PSF EXT CMAP XPLOR

         3 !NTITLE
* GENERATED BY CHARMM-GUI (HTTP://WWW.CHARMM-GUI.ORG) V3.7 ON JUN, 01. 2026. JOB
* GET A DIFFERENT CONFORMATION FOR LIPIDS PENETRATING PROTEIN / CHOL            
*  DATE:     6/ 1/26      0:46:59      CREATED BY USER: charmm-gui              

     38028 !NATOM
         1 MEMB     1        CHL1     C3       CRL1     0.140000       12.0110           0
         2 MEMB     1        CHL1     H3       HGA1     0.900000E-01   1.00800           0
         3 MEMB     1        CHL1     O3       OHL     -0.660000       15.9994           0
         4 MEMB     1        CHL1     H3'      HOL      0.430000       1.00800           0
         5 MEMB     1        CHL1     C4       CRL2    -0.180000       12.0110           0
         6 MEMB     1        CHL1     H4A      HGA2     0.900000E-01   1.00800           0
         7 MEMB     1        CHL1     H4B      HGA2     0.900000E-01   1.00800           0
         8 MEMB     1        CHL1     C5       CEL1      0.00000       12.0110           0
         9 MEMB     1        CHL1     C6       CEL1    -0.150000       12.0110           0
        10 MEMB     1        CHL1     H6       HEL1     0.150000       1.00800           0
        11 MEMB     1        CHL1     C7       CRL2    -0.180000       12.0110           0
        12 MEMB     1        CHL1     H7A      HGA2     0.900000E-01   1.00800           0
        13 MEMB     1        CHL1     H7B      HGA2     0.900000E-01   1.00800           0
        14 MEMB     1        CHL1     C8       CRL1    -0.900000E-01   12.0110           0
        15 MEMB     1        CHL1     H8       HGA1     0.900000E-01   1.00800           0
        16 MEMB     1        CHL1     C14      CRL1    -0.900000E-01   12.0110           0
        17 MEMB     1        CHL1     H14      HGA1     0.900000E-01   1.00800           0
        18 MEMB     1        CHL1     C15      CRL2    -0.180000       12.0110           0
        19 MEMB     1        CHL1     H15A     HGA2     0.900000E-01   1.00800           0
        20 MEMB     1        CHL1     H15B     HGA2     0.900000E-01   1.00800           0
        21 MEMB     1        CHL1     C16      CRL2    -0.180000       12.0110           0
        22 MEMB     1        CHL1     H16A     HGA2     0.900000E-01   1.00800           0
        23 MEMB     1        CHL1     H16B     HGA2     0.900000E-01   1.00800           0
        24 MEMB     1        CHL1     C17      CRL1    -0.900000E-01   12.0110           0
        25 MEMB     1        CHL1     H17      HGA1     0.900000E-01   1.00800           0
        26 MEMB     1        CHL1     C13      CRL1      0.00000       12.0110           0
        27 MEMB     1        CHL1     C18      CTL3    -0.270000       12.0110           0
        28 MEMB     1        CHL1     H18A     HAL3     0.900000E-01   1.00800           0
        29 MEMB     1        CHL1     H18B     HAL3     0.900000E-01   1.00800           0
        30 MEMB     1        CHL1     H18C     HAL3     0.900000E-01   1.00800           0
        31 MEMB     1        CHL1     C12      CRL2    -0.180000       12.0110           0
        32 MEMB     1        CHL1     H12A     HGA2     0.900000E-01   1.00800           0
        33 MEMB     1        CHL1     H12B     HGA2     0.900000E-01   1.00800           0
        34 MEMB     1        CHL1     C11      CRL2    -0.180000       12.0110           0
        35 MEMB     1        CHL1     H11A     HGA2     0.900000E-01   1.00800           0
        36 MEMB     1        CHL1     H11B     HGA2     0.900000E-01   1.00800           0
        37 MEMB     1        CHL1     C9       CRL1    -0.900000E-01   12.0110           0
        38 MEMB     1        CHL1     H9       HGA1     0.900000E-01   1.00800           0
        39 MEMB     1        CHL1     C10      CRL1      0.00000       12.0110           0
        40 MEMB     1        CHL1     C19      CTL3    -0.270000       12.0110           0
        41 MEMB     1        CHL1     H19A     HAL3     0.900000E-01   1.00800           0
        42 MEMB     1        CHL1     H19B     HAL3     0.900000E-01   1.00800           0
        43 MEMB     1        CHL1     H19C     HAL3     0.900000E-01   1.00800           0
        44 MEMB     1        CHL1     C1       CRL2    -0.180000       12.0110           0
        45 MEMB     1        CHL1     H1A      HGA2     0.900000E-01   1.00800           0
        46 MEMB     1        CHL1     H1B      HGA2     0.900000E-01   1.00800           0
        47 MEMB     1        CHL1     C2       CRL2    -0.180000       12.0110           0
        48 MEMB     1        CHL1     H2A      HGA2     0.900000E-01   1.00800           0
        49 MEMB     1        CHL1     H2B      HGA2     0.900000E-01   1.00800           0
        50 MEMB     1        CHL1     C20      CTL1    -0.900000E-01   12.0110           0
        51 MEMB     1        CHL1     H20      HAL1     0.900000E-01   1.00800           0
        52 MEMB     1        CHL1     C21      CTL3    -0.270000       12.0110           0
        53 MEMB     1        CHL1     H21A     HAL3     0.900000E-01   1.00800           0
        54 MEMB     1        CHL1     H21B     HAL3     0.900000E-01   1.00800           0
        55 MEMB     1        CHL1     H21C     HAL3     0.900000E-01   1.00800           0
        56 MEMB     1        CHL1     C22      CTL2    -0.180000       12.0110           0
        57 MEMB     1        CHL1     H22A     HAL2     0.900000E-01   1.00800           0
        58 MEMB     1        CHL1     H22B     HAL2     0.900000E-01   1.00800           0
        59 MEMB     1        CHL1     C23      CTL2    -0.180000       12.0110           0
        60 MEMB     1        CHL1     H23A     HAL2     0.900000E-01   1.00800           0
        61 MEMB     1        CHL1     H23B     HAL2     0.900000E-01   1.00800           0
        62 MEMB     1        CHL1     C24      CTL2    -0.180000       12.0110           0
        63 MEMB     1        CHL1     H24A     HAL2     0.900000E-01   1.00800           0
        64 MEMB     1        CHL1     H24B     HAL2     0.900000E-01   1.00800           0
        65 MEMB     1        CHL1     C25      CTL1    -0.900000E-01   12.0110           0
        66 MEMB     1        CHL1     H25      HAL1     0.900000E-01   1.00800           0
        67 MEMB     1        CHL1     C26      CTL3    -0.270000       12.0110           0
        68 MEMB     1        CHL1     H26A     HAL3     0.900000E-01   1.00800           0
        69 MEMB     1        CHL1     H26B     HAL3     0.900000E-01   1.00800           0
        70 MEMB     1        CHL1     H26C     HAL3     0.900000E-01   1.00800           0
        71 MEMB     1        CHL1     C27      CTL3    -0.270000       12.0110           0
        72 MEMB     1        CHL1     H27A     HAL3     0.900000E-01   1.00800           0
        73 MEMB     1        CHL1     H27B     HAL3     0.900000E-01   1.00800           0
        74 MEMB     1        CHL1     H27C     HAL3     0.900000E-01   1.00800           0
        75 MEMB     2        CHL1     C3       CRL1     0.140000       12.0110           0
        76 MEMB     2        CHL1     H3       HGA1     0.900000E-01   1.00800           0
        77 MEMB     2        CHL1     O3       OHL     -0.660000       15.9994           0
        78 MEMB     2        CHL1     H3'      HOL      0.430000       1.00800           0
        79 MEMB     2        CHL1     C4       CRL2    -0.180000       12.0110           0
        80 MEMB     2        CHL1     H4A      HGA2     0.900000E-01   1.00800           0
        81 MEMB     2        CHL1     H4B      HGA2     0.900000E-01   1.00800           0
        82 MEMB     2        CHL1     C5       CEL1      0.00000       12.0110           0
        83 MEMB     2        CHL1     C6       CEL1    -0.150000       12.0110           0
        84 MEMB     2        CHL1     H6       HEL1     0.150000       1.00800           0
        85 MEMB     2        CHL1     C7       CRL2    -0.180000       12.0110           0
        86 MEMB     2        CHL1     H7A      HGA2     0.900000E-01   1.00800           0
        87 MEMB     2        CHL1     H7B      HGA2     0.900000E-01   1.00800           0
        88 MEMB     2        CHL1     C8       CRL1    -0.900000E-01   12.0110           0
        89 MEMB     2        CHL1     H8       HGA1     0.900000E-01   1.00800           0
        90 MEMB     2        CHL1     C14      CRL1    -0.900000E-01   12.0110           0
        91 MEMB     2        CHL1     H14      HGA1     0.900000E-01   1.00800           0
        92 MEMB     2        CHL1     C15      CRL2    -0.180000       12.0110           0
        93 MEMB     2        CHL1     H15A     HGA2     0.900000E-01   1.00800           0
        94 MEMB     2        CHL1     H15B     HGA2     0.900000E-01   1.00800           0
        95 MEMB     2        CHL1     C16      CRL2    -0.180000       12.0110           0
        96 MEMB     2        CHL1     H16A     HGA2     0.900000E-01   1.00800           0
        97 MEMB     2        CHL1     H16B     HGA2     0.900000E-01   1.00800           0
        98 MEMB     2        CHL1     C17      CRL1    -0.900000E-01   12.0110           0
        99 MEMB     2        CHL1     H17      HGA1     0.900000E-01   1.00800           0
       100 MEMB     2        CHL1     C13      CRL1      0.00000       12.0110           0
       101 MEMB     2        CHL1     C18      CTL3    -0.270000       12.0110           0
       102 MEMB     2        CHL1     H18A     HAL3     0.900000E-01   1.00800           0
       103 MEMB     2        CHL1     H18B     HAL3     0.900000E-01   1.00800           0
       104 MEMB     2        CHL1     H18C     HAL3     0.900000E-01   1.00800           0
       105 MEMB     2        CHL1     C12      CRL2    -0.180000       12.0110           0
       106 MEMB     2        CHL1     H12A     HGA2     0.900000E-01   1.00800           0
       107 MEMB     2        CHL1     H12B     HGA2     0.900000E-01   1.00800           0
       108 MEMB     2        CHL1     C11      CRL2    -0.180000       12.0110           0
       109 MEMB     2        CHL1     H11A     HGA2     0.900000E-01   1.00800           0
       110 MEMB     2        CHL1     H11B     HGA2     0.900000E-01   1.00800           0
       111 MEMB     2        CHL1     C9       CRL1    -0.900000E-01   12.0110           0
       112 MEMB     2        CHL1     H9       HGA1     0.900000E-01   1.00800           0
       113 MEMB     2        CHL1     C10      CRL1      0.00000       12.0110           0
       114 MEMB     2        CHL1     C19      CTL3    -0.270000       12.0110           0
       115 MEMB     2        CHL1     H19A     HAL3     0.900000E-01   1.00800           0
       116 MEMB     2        CHL1     H19B     HAL3     0.900000E-01   1.00800           0
       117 MEMB     2        CHL1     H19C     HAL3     0.900000E-01   1.00800           0
       118 MEMB     2        CHL1     C1       CRL2    -0.180000       12.0110           0
       119 MEMB     2        CHL1     H1A      HGA2     0.900000E-01   1.00800           0
       120 MEMB     2        CHL1     H1B      HGA2     0.900000E-01   1.00800           0
       121 MEMB     2        CHL1     C2       CRL2    -0.180000       12.0110           0
       122 MEMB     2        CHL1     H2A      HGA2     0.900000E-01   1.00800           0
       123 MEMB     2        CHL1     H2B      HGA2     0.900000E-01   1.00800           0
       124 MEMB     2        CHL1     C20      CTL1    -0.900000E-01   12.0110           0
       125 MEMB     2        CHL1     H20      HAL1     0.900000E-01   1.00800           0
       126 MEMB     2        CHL1     C21      CTL3    -0.270000       12.0110           0
       127 MEMB     2        CHL1     H21A     HAL3     0.900000E-01   1.00800           0
       128 MEMB     2        CHL1     H21B     HAL3     0.900000E-01   1.00800           0
       129 MEMB     2        CHL1     H21C     HAL3     0.900000E-01   1.00800           0
       130 MEMB     2        CHL1     C22      CTL2    -0.180000       12.0110           0
       131 MEMB     2        CHL1     H22A     HAL2     0.900000E-01   1.00800           0
       132 MEMB     2        CHL1     H22B     HAL2     0.900000E-01   1.00800           0
       133 MEMB     2        CHL1     C23      CTL2    -0.180000       12.0110           0
       134 MEMB     2        CHL1     H23A     HAL2     0.900000E-01   1.00800           0
       135 MEMB     2        CHL1     H23B     HAL2     0.900000E-01   1.00800           0
       136 MEMB     2        CHL1     C24      CTL2    -0.180000       12.0110           0
       137 MEMB     2        CHL1     H24A     HAL2     0.900000E-01   1.00800           0
       138 MEMB     2        CHL1     H24B     HAL2     0.900000E-01   1.00800           0
       139 MEMB     2        CHL1     C25      CTL1    -0.900000E-01   12.0110           0
       140 MEMB     2        CHL1     H25      HAL1     0.900000E-01   1.00800           0
       141 MEMB     2        CHL1     C26      CTL3    -0.270000       12.0110           0
       142 MEMB     2        CHL1     H26A     HAL3     0.900000E-01   1.00800           0
       143 MEMB     2        CHL1     H26B     HAL3     0.900000E-01   1.00800           0
       144 MEMB     2        CHL1     H26C     HAL3     0.900000E-01   1.00800           0
       145 MEMB     2        CHL1     C27      CTL3    -0.270000       12.0110           0
       146 MEMB     2        CHL1     H27A     HAL3     0.900000E-01   1.00800           0
       147 MEMB     2        CHL1     H27B     HAL3     0.900000E-01   1.00800           0
       148 MEMB     2        CHL1     H27C     HAL3     0.900000E-01   1.00800           0
       149 MEMB     3        CHL1     C3       CRL1     0.140000       12.0110           0
       150 MEMB     3        CHL1     H3       HGA1     0.900000E-01   1.00800           0
       151 MEMB     3        CHL1     O3       OHL     -0.660000       15.9994           0
       152 MEMB     3        CHL1     H3'      HOL      0.430000       1.00800           0
       153 MEMB     3        CHL1     C4       CRL2    -0.180000       12.0110           0
       154 MEMB     3        CHL1     H4A      HGA2     0.900000E-01   1.00800           0
       155 MEMB     3        CHL1     H4B      HGA2     0.900000E-01   1.00800           0
       156 MEMB     3        CHL1     C5       CEL1      0.00000       12.0110           0
       157 MEMB     3        CHL1     C6       CEL1    -0.150000       12.0110           0
       158 MEMB     3        CHL1     H6       HEL1     0.150000       1.00800           0
       159 MEMB     3        CHL1     C7       CRL2    -0.180000       12.0110           0
       160 MEMB     3        CHL1     H7A      HGA2     0.900000E-01   1.00800           0
       161 MEMB     3        CHL1     H7B      HGA2     0.900000E-01   1.00800           0
       162 MEMB     3        CHL1     C8       CRL1    -0.900000E-01   12.0110           0
       163 MEMB     3        CHL1     H8       HGA1     0.900000E-01   1.00800           0
       164 MEMB     3        CHL1     C14      CRL1    -0.900000E-01   12.0110           0
       165 MEMB     3        CHL1     H14      HGA1     0.900000E-01   1.00800           0
       166 MEMB     3        CHL1     C15      CRL2    -0.180000       12.0110           0
       167 MEMB     3        CHL1     H15A     HGA2     0.900000E-01   1.00800           0
       168 MEMB     3        CHL1     H15B     HGA2     0.900000E-01   1.00800           0
       169 MEMB     3        CHL1     C16      CRL2    -0.180000       12.0110           0
       170 MEMB     3        CHL1     H16A     HGA2     0.900000E-01   1.00800           0
       171 MEMB     3        CHL1     H16B     HGA2     0.900000E-01   1.00800           0
       172 MEMB     3        CHL1     C17      CRL1    -0.900000E-01   12.0110           0
       173 MEMB     3        CHL1     H17      HGA1     0.900000E-01   1.00800           0
       174 MEMB     3        CHL1     C13      CRL1      0.00000       12.0110           0
       175 MEMB     3        CHL1     C18      CTL3    -0.270000       12.0110           0
       176 MEMB     3        CHL1     H18A     HAL3     0.900000E-01   1.00800           0
       177 MEMB     3        CHL1     H18B     HAL3     0.900000E-01   1.00800           0
       178 MEMB     3        CHL1     H18C     HAL3     0.900000E-01   1.00800           0
       179 MEMB     3        CHL1     C12      CRL2    -0.180000       12.0110           0
       180 MEMB     3        CHL1     H12A     HGA2     0.900000E-01   1.00800           0
       181 MEMB     3        CHL1     H12B     HGA2     0.900000E-01   1.00800           0
       182 MEMB     3        CHL1     C11      CRL2    -0.180000       12.0110           0
       183 MEMB     3        CHL1     H11A     HGA2     0.900000E-01   1.00800           0
       184 MEMB     3        CHL1     H11B     HGA2     0.900000E-01   1.00800           0
       185 MEMB     3        CHL1     C9       CRL1    -0.900000E-01   12.0110           0
       186 MEMB     3        CHL1     H9       HGA1     0.900000E-01   1.00800           0
       187 MEMB     3        CHL1     C10      CRL1      0.00000       12.0110           0
       188 MEMB     3        CHL1     C19      CTL3    -0.270000       12.0110           0
       189 MEMB     3        CHL1     H19A     HAL3     0.900000E-01   1.00800           0
       190 MEMB     3        CHL1     H19B     HAL3     0.900000E-01   1.00800           0
       191 MEMB     3        CHL1     H19C     HAL3     0.900000E-01   1.00800           0
       192 MEMB     3        CHL1     C1       CRL2    -0.180000       12.0110           0
       193 MEMB     3        CHL1     H1A      HGA2     0.900000E-01   1.00800           0
       194 MEMB     3        CHL1     H1B      HGA2     0.900000E-01   1.00800           0
       195 MEMB     3        CHL1     C2       CRL2    -0.180000       12.0110           0
       196 MEMB     3        CHL1     H2A      HGA2     0.900000E-01   1.00800           0
       197 MEMB     3        CHL1     H2B      HGA2     0.900000E-01   1.00800           0
       198 MEMB     3        CHL1     C20      CTL1    -0.900000E-01   12.0110           0
       199 MEMB     3        CHL1     H20      HAL1     0.900000E-01   1.00800           0
       200 MEMB     3        CHL1     C21      CTL3    -0.270000       12.0110           0
       201 MEMB     3        CHL1     H21A     HAL3     0.900000E-01   1.00800           0
       202 MEMB     3        CHL1     H21B     HAL3     0.900000E-01   1.00800           0
       203 MEMB     3        CHL1     H21C     HAL3     0.900000E-01   1.00800           0
       204 MEMB     3        CHL1     C22      CTL2    -0.180000       12.0110           0
       205 MEMB     3        CHL1     H22A     HAL2     0.900000E-01   1.00800           0
       206 MEMB     3        CHL1     H22B     HAL2     0.900000E-01   1.00800           0
       207 MEMB     3        CHL1     C23      CTL2    -0.180000       12.0110           0
       208 MEMB     3        CHL1     H23A     HAL2     0.900000E-01   1.00800           0
       209 MEMB     3        CHL1     H23B     HAL2     0.900000E-01   1.00800           0
       210 MEMB     3        CHL1     C24      CTL2    -0.180000       12.0110           0
       211 MEMB     3        CHL1     H24A     HAL2     0.900000E-01   1.00800           0
       212 MEMB     3        CHL1     H24B     HAL2     0.900000E-01   1.00800           0
       213 MEMB     3        CHL1     C25      CTL1    -0.900000E-01   12.0110           0
       214 MEMB     3        CHL1     H25      HAL1     0.900000E-01   1.00800           0
       215 MEMB     3        CHL1     C26      CTL3    -0.270000       12.0110           0
       216 MEMB     3        CHL1     H26A     HAL3     0.900000E-01   1.00800           0
       217 MEMB     3        CHL1     H26B     HAL3     0.900000E-01   1.00800           0
       218 MEMB     3        CHL1     H26C     HAL3     0.900000E-01   1.00800           0
       219 MEMB     3        CHL1     C27      CTL3    -0.270000       12.0110           0
       220 MEMB     3        CHL1     H27A     HAL3     0.900000E-01   1.00800           0
       221 MEMB     3        CHL1     H27B     HAL3     0.900000E-01   1.00800           0
       222 MEMB     3        CHL1     H27C     HAL3     0.900000E-01   1.00800           0
       223 MEMB     4        CHL1     C3       CRL1     0.140000       12.0110           0
       224 MEMB     4        CHL1     H3       HGA1     0.900000E-01   1.00800           0
       225 MEMB     4        CHL1     O3       OHL     -0.660000       15.9994           0
       226 MEMB     4        CHL1     H3'      HOL      0.430000       1.00800           0
       227 MEMB     4        CHL1     C4       CRL2    -0.180000       12.0110           0
       228 MEMB     4        CHL1     H4A      HGA2     0.900000E-01   1.00800           0
       229 MEMB     4        CHL1     H4B      HGA2     0.900000E-01   1.00800           0
       230 MEMB     4        CHL1     C5       CEL1      0.00000       12.0110           0
       231 MEMB     4        CHL1     C6       CEL1    -0.150000       12.0110           0
       232 MEMB     4        CHL1     H6       HEL1     0.150000       1.00800           0
       233 MEMB     4        CHL1     C7       CRL2    -0.180000       12.0110           0
       234 MEMB     4        CHL1     H7A      HGA2     0.900000E-01   1.00800           0
       235 MEMB     4        CHL1     H7B      HGA2     0.900000E-01   1.00800           0
       236 MEMB     4        CHL1     C8       CRL1    -0.900000E-01   12.0110           0
       237 MEMB     4        CHL1     H8       HGA1     0.900000E-01   1.00800           0
       238 MEMB     4        CHL1     C14      CRL1    -0.900000E-01   12.0110           0
       239 MEMB     4        CHL1     H14      HGA1     0.900000E-01   1.00800           0
       240 MEMB     4        CHL1     C15      CRL2    -0.180000       12.0110           0
       241 MEMB     4        CHL1     H15A     HGA2     0.900000E-01   1.00800           0
       242 MEMB     4        CHL1     H15B     HGA2     0.900000E-01   1.00800           0
       243 MEMB     4        CHL1     C16      CRL2    -0.180000       12.0110           0
       244 MEMB     4        CHL1     H16A     HGA2     0.900000E-01   1.00800           0
       245 MEMB     4        CHL1     H16B     HGA2     0.900000E-01   1.00800           0
       246 MEMB     4        CHL1     C17      CRL1    -0.900000E-01   12.0110           0
       247 MEMB     4        CHL1     H17      HGA1     0.900000E-01   1.00800           0
       248 MEMB     4        CHL1     C13      CRL1      0.00000       12.0110           0
       249 MEMB     4        CHL1     C18      CTL3    -0.270000       12.0110           0
       250 MEMB     4        CHL1     H18A     HAL3     0.900000E-01   1.00800           0
       251 MEMB     4        CHL1     H18B     HAL3     0.900000E-01   1.00800           0
       252 MEMB     4        CHL1     H18C     HAL3     0.900000E-01   1.00800           0
       253 MEMB     4        CHL1     C12      CRL2    -0.180000       12.0110           0
       254 MEMB     4        CHL1     H12A     HGA2     0.900000E-01   1.00800           0
       255 MEMB     4        CHL1     H12B     HGA2     0.900000E-01   1.00800           0
       256 MEMB     4        CHL1     C11      CRL2    -0.180000       12.0110           0
       257 MEMB     4        CHL1     H11A     HGA2     0.900000E-01   1.00800           0
       258 MEMB     4        CHL1     H11B     HGA2     0.900000E-01   1.00800           0
       259 MEMB     4        CHL1     C9       CRL1    -0.900000E-01   12.0110           0
       260 MEMB     4        CHL1     H9       HGA1     0.900000E-01   1.00800           0
       261 MEMB     4        CHL1     C10      CRL1      0.00000       12.0110           0
       262 MEMB     4        CHL1     C19      CTL3    -0.270000       12.0110           0
       263 MEMB     4        CHL1     H19A     HAL3     0.900000E-01   1.00800           0
       264 MEMB     4        CHL1     H19B     HAL3     0.900000E-01   1.00800           0
       265 MEMB     4        CHL1     H19C     HAL3     0.900000E-01   1.00800           0
       266 MEMB     4        CHL1     C1       CRL2    -0.180000       12.0110           0
       267 MEMB     4        CHL1     H1A      HGA2     0.900000E-01   1.00800           0
       268 MEMB     4        CHL1     H1B      HGA2     0.900000E-01   1.00800           0
       269 MEMB     4        CHL1     C2       CRL2    -0.180000       12.0110           0
       270 MEMB     4        CHL1     H2A      HGA2     0.900000E-01   1.00800           0
       271 MEMB     4        CHL1     H2B      HGA2     0.900000E-01   1.00800           0
       272 MEMB     4        CHL1     C20      CTL1    -0.900000E-01   12.0110           0
       273 MEMB     4        CHL1     H20      HAL1     0.900000E-01   1.00800           0
       274 MEMB     4        CHL1     C21      CTL3    -0.270000       12.0110           0
       275 MEMB     4        CHL1     H21A     HAL3     0.900000E-01   1.00800           0
       276 MEMB     4        CHL1     H21B     HAL3     0.900000E-01   1.00800           0
       277 MEMB     4        CHL1     H21C     HAL3     0.900000E-01   1.00800           0
       278 MEMB     4        CHL1     C22      CTL2    -0.180000       12.0110           0
       279 MEMB     4        CHL1     H22A     HAL2     0.900000E-01   1.00800           0
       280 MEMB     4        CHL1     H22B     HAL2     0.900000E-01   1.00800           0
       281 MEMB     4        CHL1     C23      CTL2    -0.180000       12.0110           0
       282 MEMB     4        CHL1     H23A     HAL2     0.900000E-01   1.00800           0
       283 MEMB     4        CHL1     H23B     HAL2     0.900000E-01   1.00800           0
       284 MEMB     4        CHL1     C24      CTL2    -0.180000       12.0110           0
       285 MEMB     4        CHL1     H24A     HAL2     0.900000E-01   1.00800           0
       286 MEMB     4        CHL1     H24B     HAL2     0.900000E-01   1.00800           0
       287 MEMB     4        CHL1     C25      CTL1    -0.900000E-01   12.0110           0
       288 MEMB     4        CHL1     H25      HAL1     0.900000E-01   1.00800           0
       289 MEMB     4        CHL1     C26      CTL3    -0.270000       12.0110           0
       290 MEMB     4        CHL1     H26A     HAL3     0.900000E-01   1.00800           0
       291 MEMB     4        CHL1     H26B     HAL3     0.900000E-01   1.00800           0
       292 MEMB     4        CHL1     H26C     HAL3     0.900000E-01   1.00800           0
       293 MEMB     4        CHL1     C27      CTL3    -0.270000       12.0110           0
       294 MEMB     4        CHL1     H27A     HAL3     0.900000E-01   1.00800           0
       295 MEMB     4        CHL1     H27B     HAL3     0.900000E-01   1.00800           0
       296 MEMB     4        CHL1     H27C     HAL3     0.900000E-01   1.00800           0
       297 MEMB     5        CHL1     C3       CRL1     0.140000       12.0110           0
       298 MEMB     5        CHL1     H3       HGA1     0.900000E-01   1.00800           0
       299 MEMB     5        CHL1     O3       OHL     -0.660000       15.9994           0
       300 MEMB     5        CHL1     H3'      HOL      0.430000       1.00800           0
       301 MEMB     5        CHL1     C4       CRL2    -0.180000       12.0110           0
       302 MEMB     5        CHL1     H4A      HGA2     0.900000E-01   1.00800           0
       303 MEMB     5        CHL1     H4B      HGA2     0.900000E-01   1.00800           0
       304 MEMB     5        CHL1     C5       CEL1      0.00000       12.0110           0
       305 MEMB     5        CHL1     C6       CEL1    -0.150000       12.0110           0
       306 MEMB     5        CHL1     H6       HEL1     0.150000       1.00800           0
       307 MEMB     5        CHL1     C7       CRL2    -0.180000       12.0110           0
       308 MEMB     5        CHL1     H7A      HGA2     0.900000E-01   1.00800           0
       309 MEMB     5        CHL1     H7B      HGA2     0.900000E-01   1.00800           0
       310 MEMB     5        CHL1     C8       CRL1    -0.900000E-01   12.0110           0
       311 MEMB     5        CHL1     H8       HGA1     0.900000E-01   1.00800           0
       312 MEMB     5        CHL1     C14      CRL1    -0.900000E-01   12.0110           0
       313 MEMB     5        CHL1     H14      HGA1     0.900000E-01   1.00800           0
       314 MEMB     5        CHL1     C15      CRL2    -0.180000       12.0110           0
       315 MEMB     5        CHL1     H15A     HGA2     0.900000E-01   1.00800           0
       316 MEMB     5        CHL1     H15B     HGA2     0.900000E-01   1.00800           0
       317 MEMB     5        CHL1     C16      CRL2    -0.180000       12.0110           0
       318 MEMB     5        CHL1     H16A     HGA2     0.900000E-01   1.00800           0
       319 MEMB     5        CHL1     H16B     HGA2     0.900000E-01   1.00800           0
       320 MEMB     5        CHL1     C17      CRL1    -0.900000E-01   12.0110           0
       321 MEMB     5        CHL1     H17      HGA1     0.900000E-01   1.00800           0
       322 MEMB     5        CHL1     C13      CRL1      0.00000       12.0110           0
       323 MEMB     5        CHL1     C18      CTL3    -0.270000       12.0110           0
       324 MEMB     5        CHL1     H18A     HAL3     0.900000E-01   1.00800           0
       325 MEMB     5        CHL1     H18B     HAL3     0.900000E-01   1.00800           0
       326 MEMB     5        CHL1     H18C     HAL3     0.900000E-01   1.00800           0
       327 MEMB     5        CHL1     C12      CRL2    -0.180000       12.0110           0
       328 MEMB     5        CHL1     H12A     HGA2     0.900000E-01   1.00800           0
       329 MEMB     5        CHL1     H12B     HGA2     0.900000E-01   1.00800           0
       330 MEMB     5        CHL1     C11      CRL2    -0.180000       12.0110           0
       331 MEMB     5        CHL1     H11A     HGA2     0.900000E-01   1.00800           0
       332 MEMB     5        CHL1     H11B     HGA2     0.900000E-01   1.00800           0
       333 MEMB     5        CHL1     C9       CRL1    -0.900000E-01   12.0110           0
       334 MEMB     5        CHL1     H9       HGA1     0.900000E-01   1.00800           0
       335 MEMB     5        CHL1     C10      CRL1      0.00000       12.0110           0
       336 MEMB     5        CHL1     C19      CTL3    -0.270000       12.0110           0
       337 MEMB     5        CHL1     H19A     HAL3     0.900000E-01   1.00800           0
       338 MEMB     5        CHL1     H19B     HAL3     0.900000E-01   1.00800           0
       339 MEMB     5        CHL1     H19C     HAL3     0.900000E-01   1.00800           0
       340 MEMB     5        CHL1     C1       CRL2    -0.180000       12.0110           0
       341 MEMB     5        CHL1     H1A      HGA2     0.900000E-01   1.00800           0
       342 MEMB     5        CHL1     H1B      HGA2     0.900000E-01   1.00800           0
       343 MEMB     5        CHL1     C2       CRL2    -0.180000       12.0110           0
       344 MEMB     5        CHL1     H2A      HGA2     0.900000E-01   1.00800           0
       345 MEMB     5        CHL1     H2B      HGA2     0.900000E-01   1.00800           0
       346 MEMB     5        CHL1     C20      CTL1    -0.900000E-01   12.0110           0
       347 MEMB     5        CHL1     H20      HAL1     0.900000E-01   1.00800           0
       348 MEMB     5        CHL1     C21      CTL3    -0.270000       12.0110           0
       349 MEMB     5        CHL1     H21A     HAL3     0.900000E-01   1.00800           0
       350 MEMB     5        CHL1     H21B     HAL3     0.900000E-01   1.00800           0
       351 MEMB     5        CHL1     H21C     HAL3     0.900000E-01   1.00800           0
       352 MEMB     5        CHL1     C22      CTL2    -0.180000       12.0110           0
       353 MEMB     5        CHL1     H22A     HAL2     0.900000E-01   1.00800           0
       354 MEMB     5        CHL1     H22B     HAL2     0.900000E-01   1.00800           0
       355 MEMB     5        CHL1     C23      CTL2    -0.180000       12.0110           0
       356 MEMB     5        CHL1     H23A     HAL2     0.900000E-01   1.00800           0
       357 MEMB     5        CHL1     H23B     HAL2     0.900000E-01   1.00800           0
       358 MEMB     5        CHL1     C24      CTL2    -0.180000       12.0110           0
       359 MEMB     5        CHL1     H24A     HAL2     0.900000E-01   1.00800           0
       360 MEMB     5        CHL1     H24B     HAL2     0.900000E-01   1.00800           0
       361 MEMB     5        CHL1     C25      CTL1    -0.900000E-01   12.0110           0
       362 MEMB     5        CHL1     H25      HAL1     0.900000E-01   1.00800           0
       363 MEMB     5        CHL1     C26      CTL3    -0.270000       12.0110           0
       364 MEMB     5        CHL1     H26A     HAL3     0.900000E-01   1.00800           0
       365 MEMB     5        CHL1     H26B     HAL3     0.900000E-01   1.00800           0
       366 MEMB     5        CHL1     H26C     HAL3     0.900000E-01   1.00800           0
       367 MEMB     5        CHL1     C27      CTL3    -0.270000       12.0110           0
       368 MEMB     5        CHL1     H27A     HAL3     0.900000E-01   1.00800           0
       369 MEMB     5        CHL1     H27B     HAL3     0.900000E-01   1.00800           0
       370 MEMB     5        CHL1     H27C     HAL3     0.900000E-01   1.00800           0
       371 MEMB     6        CHL1     C3       CRL1     0.140000       12.0110           0
       372 MEMB     6        CHL1     H3       HGA1     0.900000E-01   1.00800           0
       373 MEMB     6        CHL1     O3       OHL     -0.660000       15.9994           0
       374 MEMB     6        CHL1     H3'      HOL      0.430000       1.00800           0
       375 MEMB     6        CHL1     C4       CRL2    -0.180000       12.0110           0
       376 MEMB     6        CHL1     H4A      HGA2     0.900000E-01   1.00800           0
       377 MEMB     6        CHL1     H4B      HGA2     0.900000E-01   1.00800           0
       378 MEMB     6        CHL1     C5       CEL1      0.00000       12.0110           0
       379 MEMB     6        CHL1     C6       CEL1    -0.150000       12.0110           0
       380 MEMB     6        CHL1     H6       HEL1     0.150000       1.00800           0
       381 MEMB     6        CHL1     C7       CRL2    -0.180000       12.0110           0
       382 MEMB     6        CHL1     H7A      HGA2     0.900000E-01   1.00800           0
       383 MEMB     6        CHL1     H7B      HGA2     0.900000E-01   1.00800           0
       384 MEMB     6        CHL1     C8       CRL1    -0.900000E-01   12.0110           0
       385 MEMB     6        CHL1     H8       HGA1     0.900000E-01   1.00800           0
       386 MEMB     6        CHL1     C14      CRL1    -0.900000E-01   12.0110           0
       387 MEMB     6        CHL1     H14      HGA1     0.900000E-01   1.00800           0
       388 MEMB     6        CHL1     C15      CRL2    -0.180000       12.0110           0
       389 MEMB     6        CHL1     H15A     HGA2     0.900000E-01   1.00800           0
       390 MEMB     6        CHL1     H15B     HGA2     0.900000E-01   1.00800           0
       391 MEMB     6        CHL1     C16      CRL2    -0.180000       12.0110           0
       392 MEMB     6        CHL1     H16A     HGA2     0.900000E-01   1.00800           0
       393 MEMB     6        CHL1     H16B     HGA2     0.900000E-01   1.00800           0
       394 MEMB     6        CHL1     C17      CRL1    -0.900000E-01   12.0110           0
       395 MEMB     6        CHL1     H17      HGA1     0.900000E-01   1.00800           0
       396 MEMB     6        CHL1     C13      CRL1      0.00000       12.0110           0
       397 MEMB     6        CHL1     C18      CTL3    -0.270000       12.0110           0
       398 MEMB     6        CHL1     H18A     HAL3     0.900000E-01   1.00800           0
       399 MEMB     6        CHL1     H18B     HAL3     0.900000E-01   1.00800           0
       400 MEMB     6        CHL1     H18C     HAL3     0.900000E-01   1.00800           0
       401 MEMB     6        CHL1     C12      CRL2    -0.180000       12.0110           0
       402 MEMB     6        CHL1     H12A     HGA2     0.900000E-01   1.00800           0
       403 MEMB     6        CHL1     H12B     HGA2     0.900000E-01   1.00800           0
       404 MEMB     6        CHL1     C11      CRL2    -0.180000       12.0110           0
       405 MEMB     6        CHL1     H11A     HGA2     0.900000E-01   1.00800           0
       406 MEMB     6        CHL1     H11B     HGA2     0.900000E-01   1.00800           0
       407 MEMB     6        CHL1     C9       CRL1    -0.900000E-01   12.0110           0
       408 MEMB     6        CHL1     H9       HGA1     0.900000E-01   1.00800           0
       409 MEMB     6        CHL1     C10      CRL1      0.00000       12.0110           0
       410 MEMB     6        CHL1     C19      CTL3    -0.270000       12.0110           0
       411 MEMB     6        CHL1     H19A     HAL3     0.900000E-01   1.00800           0
       412 MEMB     6        CHL1     H19B     HAL3     0.900000E-01   1.00800           0
       413 MEMB     6        CHL1     H19C     HAL3     0.900000E-01   1.00800           0
       414 MEMB     6        CHL1     C1       CRL2    -0.180000       12.0110           0
       415 MEMB     6        CHL1     H1A      HGA2     0.900000E-01   1.00800           0
       416 MEMB     6        CHL1     H1B      HGA2     0.900000E-01   1.00800           0
       417 MEMB     6        CHL1     C2       CRL2    -0.180000       12.0110           0
       418 MEMB     6        CHL1     H2A      HGA2     0.900000E-01   1.00800           0
       419 MEMB     6        CHL1     H2B      HGA2     0.900000E-01   1.00800           0
       420 MEMB     6        CHL1     C20      CTL1    -0.900000E-01   12.0110           0
       421 MEMB     6        CHL1     H20      HAL1     0.900000E-01   1.00800           0
       422 MEMB     6        CHL1     C21      CTL3    -0.270000       12.0110           0
       423 MEMB     6        CHL1     H21A     HAL3     0.900000E-01   1.00800           0
       424 MEMB     6        CHL1     H21B     HAL3     0.900000E-01   1.00800           0
       425 MEMB     6        CHL1     H21C     HAL3     0.900000E-01   1.00800           0
       426 MEMB     6        CHL1     C22      CTL2    -0.180000       12.0110           0
       427 MEMB     6        CHL1     H22A     HAL2     0.900000E-01   1.00800           0
       428 MEMB     6        CHL1     H22B     HAL2     0.900000E-01   1.00800           0
       429 MEMB     6        CHL1     C23      CTL2    -0.180000       12.0110           0
       430 MEMB     6        CHL1     H23A     HAL2     0.900000E-01   1.00800           0
       431 MEMB     6        CHL1     H23B     HAL2     0.900000E-01   1.00800           0
       432 MEMB     6        CHL1     C24      CTL2    -0.180000       12.0110           0
       433 MEMB     6        CHL1     H24A     HAL2     0.900000E-01   1.00800           0
       434 MEMB     6        CHL1     H24B     HAL2     0.900000E-01   1.00800           0
       435 MEMB     6        CHL1     C25      CTL1    -0.900000E-01   12.0110           0
       436 MEMB     6        CHL1     H25      HAL1     0.900000E-01   1.00800           0
       437 MEMB     6        CHL1     C26      CTL3    -0.270000       12.0110           0
       438 MEMB     6        CHL1     H26A     HAL3     0.900000E-01   1.00800           0
       439 MEMB     6        CHL1     H26B     HAL3     0.900000E-01   1.00800           0
       440 MEMB     6        CHL1     H26C     HAL3     0.900000E-01   1.00800           0
       441 MEMB     6        CHL1     C27      CTL3    -0.270000       12.0110           0
       442 MEMB     6        CHL1     H27A     HAL3     0.900000E-01   1.00800           0
       443 MEMB     6        CHL1     H27B     HAL3     0.900000E-01   1.00800           0
       444 MEMB     6        CHL1     H27C     HAL3     0.900000E-01   1.00800           0
       445 MEMB     7        CHL1     C3       CRL1     0.140000       12.0110           0
       446 MEMB     7        CHL1     H3       HGA1     0.900000E-01   1.00800           0
       447 MEMB     7        CHL1     O3       OHL     -0.660000       15.9994           0
       448 MEMB     7        CHL1     H3'      HOL      0.430000       1.00800           0
       449 MEMB     7        CHL1     C4       CRL2    -0.180000       12.0110           0
       450 MEMB     7        CHL1     H4A      HGA2     0.900000E-01   1.00800           0
       451 MEMB     7        CHL1     H4B      HGA2     0.900000E-01   1.00800           0
       452 MEMB     7        CHL1     C5       CEL1      0.00000       12.0110           0
       453 MEMB     7        CHL1     C6       CEL1    -0.150000       12.0110           0
       454 MEMB     7        CHL1     H6       HEL1     0.150000       1.00800           0
       455 MEMB     7        CHL1     C7       CRL2    -0.180000       12.0110           0
       456 MEMB     7        CHL1     H7A      HGA2     0.900000E-01   1.00800           0
       457 MEMB     7        CHL1     H7B      HGA2     0.900000E-01   1.00800           0
       458 MEMB     7        CHL1     C8       CRL1    -0.900000E-01   12.0110           0
       459 MEMB     7        CHL1     H8       HGA1     0.900000E-01   1.00800           0
       460 MEMB     7        CHL1     C14      CRL1    -0.900000E-01   12.0110           0
       461 MEMB     7        CHL1     H14      HGA1     0.900000E-01   1.00800           0
       462 MEMB     7        CHL1     C15      CRL2    -0.180000       12.0110           0
       463 MEMB     7        CHL1     H15A     HGA2     0.900000E-01   1.00800           0
       464 MEMB     7        CHL1     H15B     HGA2     0.900000E-01   1.00800           0
       465 MEMB     7        CHL1     C16      CRL2    -0.180000       12.0110           0
       466 MEMB     7        CHL1     H16A     HGA2     0.900000E-01   1.00800           0
       467 MEMB     7        CHL1     H16B     HGA2     0.900000E-01   1.00800           0
       468 MEMB     7        CHL1     C17      CRL1    -0.900000E-01   12.0110           0
       469 MEMB     7        CHL1     H17      HGA1     0.900000E-01   1.00800           0
       470 MEMB     7        CHL1     C13      CRL1      0.00000       12.0110           0
       471 MEMB     7        CHL1     C18      CTL3    -0.270000       12.0110           0
       472 MEMB     7        CHL1     H18A     HAL3     0.900000E-01   1.00800           0
       473 MEMB     7        CHL1     H18B     HAL3     0.900000E-01   1.00800           0
       474 MEMB     7        CHL1     H18C     HAL3     0.900000E-01   1.00800           0
       475 MEMB     7        CHL1     C12      CRL2    -0.180000       12.0110           0
       476 MEMB     7        CHL1     H12A     HGA2     0.900000E-01   1.00800           0
       477 MEMB     7        CHL1     H12B     HGA2     0.900000E-01   1.00800           0
       478 MEMB     7        CHL1     C11      CRL2    -0.180000       12.0110           0
       479 MEMB     7        CHL1     H11A     HGA2     0.900000E-01   1.00800           0
       480 MEMB     7        CHL1     H11B     HGA2     0.900000E-01   1.00800           0
       481 MEMB     7        CHL1     C9       CRL1    -0.900000E-01   12.0110           0
       482 MEMB     7        CHL1     H9       HGA1     0.900000E-01   1.00800           0
       483 MEMB     7        CHL1     C10      CRL1      0.00000       12.0110           0
       484 MEMB     7        CHL1     C19      CTL3    -0.270000       12.0110           0
       485 MEMB     7        CHL1     H19A     HAL3     0.900000E-01   1.00800           0
       486 MEMB     7        CHL1     H19B     HAL3     0.900000E-01   1.00800           0
       487 MEMB     7        CHL1     H19C     HAL3     0.900000E-01   1.00800           0
       488 MEMB     7        CHL1     C1       CRL2    -0.180000       12.0110           0
       489 MEMB     7        CHL1     H1A      HGA2     0.900000E-01   1.00800           0
       490 MEMB     7        CHL1     H1B      HGA2     0.900000E-01   1.00800           0
       491 MEMB     7        CHL1     C2       CRL2    -0.180000       12.0110           0
       492 MEMB     7        CHL1     H2A      HGA2     0.900000E-01   1.00800           0
       493 MEMB     7        CHL1     H2B      HGA2     0.900000E-01   1.00800           0
       494 MEMB     7        CHL1     C20      CTL1    -0.900000E-01   12.0110           0
       495 MEMB     7        CHL1     H20      HAL1     0.900000E-01   1.00800           0
       496 MEMB     7        CHL1     C21      CTL3    -0.270000       12.0110           0
       497 MEMB     7        CHL1     H21A     HAL3     0.900000E-01   1.00800           0
       498 MEMB     7        CHL1     H21B     HAL3     0.900000E-01   1.00800           0
       499 MEMB     7        CHL1     H21C     HAL3     0.900000E-01   1.00800           0
       500 MEMB     7        CHL1     C22      CTL2    -0.180000       12.0110           0
       501 MEMB     7        CHL1     H22A     HAL2     0.900000E-01   1.00800           0
       502 MEMB     7        CHL1     H22B     HAL2     0.900000E-01   1.00800           0
       503 MEMB     7        CHL1     C23      CTL2    -0.180000       12.0110           0
       504 MEMB     7        CHL1     H23A     HAL2     0.900000E-01   1.00800           0
       505 MEMB     7        CHL1     H23B     HAL2     0.900000E-01   1.00800           0
       506 MEMB     7        CHL1     C24      CTL2    -0.180000       12.0110           0
       507 MEMB     7        CHL1     H24A     HAL2     0.900000E-01   1.00800           0
       508 MEMB     7        CHL1     H24B     HAL2     0.900000E-01   1.00800           0
       509 MEMB     7        CHL1     C25      CTL1    -0.900000E-01   12.0110           0
       510 MEMB     7        CHL1     H25      HAL1     0.900000E-01   1.00800           0
       511 MEMB     7        CHL1     C26      CTL3    -0.270000       12.0110           0
       512 MEMB     7        CHL1     H26A     HAL3     0.900000E-01   1.00800           0
       513 MEMB     7        CHL1     H26B     HAL3     0.900000E-01   1.00800           0
       514 MEMB     7        CHL1     H26C     HAL3     0.900000E-01   1.00800           0
       515 MEMB     7        CHL1     C27      CTL3    -0.270000       12.0110           0
       516 MEMB     7        CHL1     H27A     HAL3     0.900000E-01   1.00800           0
       517 MEMB     7        CHL1     H27B     HAL3     0.900000E-01   1.00800           0
       518 MEMB     7        CHL1     H27C     HAL3     0.900000E-01   1.00800           0
       519 MEMB     8        CHL1     C3       CRL1     0.140000       12.0110           0
       520 MEMB     8        CHL1     H3       HGA1     0.900000E-01   1.00800           0
       521 MEMB     8        CHL1     O3       OHL     -0.660000       15.9994           0
       522 MEMB     8        CHL1     H3'      HOL      0.430000       1.00800           0
       523 MEMB     8        CHL1     C4       CRL2    -0.180000       12.0110           0
       524 MEMB     8        CHL1     H4A      HGA2     0.900000E-01   1.00800           0
       525 MEMB     8        CHL1     H4B      HGA2     0.900000E-01   1.00800           0
       526 MEMB     8        CHL1     C5       CEL1      0.00000       12.0110           0
       527 MEMB     8        CHL1     C6       CEL1    -0.150000       12.0110           0
       528 MEMB     8        CHL1     H6       HEL1     0.150000       1.00800           0
       529 MEMB     8        CHL1     C7       CRL2    -0.180000       12.0110           0
       530 MEMB     8        CHL1     H7A      HGA2     0.900000E-01   1.00800           0
       531 MEMB     8        CHL1     H7B      HGA2     0.900000E-01   1.00800           0
       532 MEMB     8        CHL1     C8       CRL1    -0.900000E-01   12.0110           0
       533 MEMB     8        CHL1     H8       HGA1     0.900000E-01   1.00800           0
       534 MEMB     8        CHL1     C14      CRL1    -0.900000E-01   12.0110           0
       535 MEMB     8        CHL1     H14      HGA1     0.900000E-01   1.00800           0
       536 MEMB     8        CHL1     C15      CRL2    -0.180000       12.0110           0
       537 MEMB     8        CHL1     H15A     HGA2     0.900000E-01   1.00800           0
       538 MEMB     8        CHL1     H15B     HGA2     0.900000E-01   1.00800           0
       539 MEMB     8        CHL1     C16      CRL2    -0.180000       12.0110           0
       540 MEMB     8        CHL1     H16A     HGA2     0.900000E-01   1.00800           0
       541 MEMB     8        CHL1     H16B     HGA2     0.900000E-01   1.00800           0
       542 MEMB     8        CHL1     C17      CRL1    -0.900000E-01   12.0110           0
       543 MEMB     8        CHL1     H17      HGA1     0.900000E-01   1.00800           0
       544 MEMB     8        CHL1     C13      CRL1      0.00000       12.0110           0
       545 MEMB     8        CHL1     C18      CTL3    -0.270000       12.0110           0
       546 MEMB     8        CHL1     H18A     HAL3     0.900000E-01   1.00800           0
       547 MEMB     8        CHL1     H18B     HAL3     0.900000E-01   1.00800           0
       548 MEMB     8        CHL1     H18C     HAL3     0.900000E-01   1.00800           0
       549 MEMB     8        CHL1     C12      CRL2    -0.180000       12.0110           0
       550 MEMB     8        CHL1     H12A     HGA2     0.900000E-01   1.00800           0
       551 MEMB     8        CHL1     H12B     HGA2     0.900000E-01   1.00800           0
       552 MEMB     8        CHL1     C11      CRL2    -0.180000       12.0110           0
       553 MEMB     8        CHL1     H11A     HGA2     0.900000E-01   1.00800           0
       554 MEMB     8        CHL1     H11B     HGA2     0.900000E-01   1.00800           0
       555 MEMB     8        CHL1     C9       CRL1    -0.900000E-01   12.0110           0
       556 MEMB     8        CHL1     H9       HGA1     0.900000E-01   1.00800           0
       557 MEMB     8        CHL1     C10      CRL1      0.00000       12.0110           0
       558 MEMB     8        CHL1     C19      CTL3    -0.270000       12.0110           0
       559 MEMB     8        CHL1     H19A     HAL3     0.900000E-01   1.00800           0
       560 MEMB     8        CHL1     H19B     HAL3     0.900000E-01   1.00800           0
       561 MEMB     8        CHL1     H19C     HAL3     0.900000E-01   1.00800           0
       562 MEMB     8        CHL1     C1       CRL2    -0.180000       12.0110           0
       563 MEMB     8        CHL1     H1A      HGA2     0.900000E-01   1.00800           0
       564 MEMB     8        CHL1     H1B      HGA2     0.900000E-01   1.00800           0
       565 MEMB     8        CHL1     C2       CRL2    -0.180000       12.0110           0
       566 MEMB     8        CHL1     H2A      HGA2     0.900000E-01   1.00800           0
       567 MEMB     8        CHL1     H2B      HGA2     0.900000E-01   1.00800           0
       568 MEMB     8        CHL1     C20      CTL1    -0.900000E-01   12.0110           0
       569 MEMB     8        CHL1     H20      HAL1     0.900000E-01   1.00800           0
       570 MEMB     8        CHL1     C21      CTL3    -0.270000       12.0110           0
       571 MEMB     8        CHL1     H21A     HAL3     0.900000E-01   1.00800           0
       572 MEMB     8        CHL1     H21B     HAL3     0.900000E-01   1.00800           0
       573 MEMB     8        CHL1     H21C     HAL3     0.900000E-01   1.00800           0
       574 MEMB     8        CHL1     C22      CTL2    -0.180000       12.0110           0
       575 MEMB     8        CHL1     H22A     HAL2     0.900000E-01   1.00800           0
       576 MEMB     8        CHL1     H22B     HAL2     0.900000E-01   1.00800           0
       577 MEMB     8        CHL1     C23      CTL2    -0.180000       12.0110           0
       578 MEMB     8        CHL1     H23A     HAL2     0.900000E-01   1.00800           0
       579 MEMB     8        CHL1     H23B     HAL2     0.900000E-01   1.00800           0
       580 MEMB     8        CHL1     C24      CTL2    -0.180000       12.0110           0
       581 MEMB     8        CHL1     H24A     HAL2     0.900000E-01   1.00800           0
       582 MEMB     8        CHL1     H24B     HAL2     0.900000E-01   1.00800           0
       583 MEMB     8        CHL1     C25      CTL1    -0.900000E-01   12.0110           0
       584 MEMB     8        CHL1     H25      HAL1     0.900000E-01   1.00800           0
       585 MEMB     8        CHL1     C26      CTL3    -0.270000       12.0110           0
       586 MEMB     8        CHL1     H26A     HAL3     0.900000E-01   1.00800           0
       587 MEMB     8        CHL1     H26B     HAL3     0.900000E-01   1.00800           0
       588 MEMB     8        CHL1     H26C     HAL3     0.900000E-01   1.00800           0
       589 MEMB     8        CHL1     C27      CTL3    -0.270000       12.0110           0
       590 MEMB     8        CHL1     H27A     HAL3     0.900000E-01   1.00800           0
       591 MEMB     8        CHL1     H27B     HAL3     0.900000E-01   1.00800           0
       592 MEMB     8        CHL1     H27C     HAL3     0.900000E-01   1.00800           0
       593 MEMB     9        CHL1     C3       CRL1     0.140000       12.0110           0
       594 MEMB     9        CHL1     H3       HGA1     0.900000E-01   1.00800           0
       595 MEMB     9        CHL1     O3       OHL     -0.660000       15.9994           0
       596 MEMB     9        CHL1     H3'      HOL      0.430000       1.00800           0
       597 MEMB     9        CHL1     C4       CRL2    -0.180000       12.0110           0
       598 MEMB     9        CHL1     H4A      HGA2     0.900000E-01   1.00800           0
       599 MEMB     9        CHL1     H4B      HGA2     0.900000E-01   1.00800           0
       600 MEMB     9        CHL1     C5       CEL1      0.00000       12.0110           0
       601 MEMB     9        CHL1     C6       CEL1    -0.150000       12.0110           0
       602 MEMB     9        CHL1     H6       HEL1     0.150000       1.00800           0
       603 MEMB     9        CHL1     C7       CRL2    -0.180000       12.0110           0
       604 MEMB     9        CHL1     H7A      HGA2     0.900000E-01   1.00800           0
       605 MEMB     9        CHL1     H7B      HGA2     0.900000E-01   1.00800           0
       606 MEMB     9        CHL1     C8       CRL1    -0.900000E-01   12.0110           0
       607 MEMB     9        CHL1     H8       HGA1     0.900000E-01   1.00800           0
       608 MEMB     9        CHL1     C14      CRL1    -0.900000E-01   12.0110           0
       609 MEMB     9        CHL1     H14      HGA1     0.900000E-01   1.00800           0
       610 MEMB     9        CHL1     C15      CRL2    -0.180000       12.0110           0
       611 MEMB     9        CHL1     H15A     HGA2     0.900000E-01   1.00800           0
       612 MEMB     9        CHL1     H15B     HGA2     0.900000E-01   1.00800           0
       613 MEMB     9        CHL1     C16      CRL2    -0.180000       12.0110           0
       614 MEMB     9        CHL1     H16A     HGA2     0.900000E-01   1.00800           0
       615 MEMB     9        CHL1     H16B     HGA2     0.900000E-01   1.00800           0
       616 MEMB     9        CHL1     C17      CRL1    -0.900000E-01   12.0110           0
       617 MEMB     9        CHL1     H17      HGA1     0.900000E-01   1.00800           0
       618 MEMB     9        CHL1     C13      CRL1      0.00000       12.0110           0
       619 MEMB     9        CHL1     C18      CTL3    -0.270000       12.0110           0
       620 MEMB     9        CHL1     H18A     HAL3     0.900000E-01   1.00800           0
       621 MEMB     9        CHL1     H18B     HAL3     0.900000E-01   1.00800           0
       622 MEMB     9        CHL1     H18C     HAL3     0.900000E-01   1.00800           0
       623 MEMB     9        CHL1     C12      CRL2    -0.180000       12.0110           0
       624 MEMB     9        CHL1     H12A     HGA2     0.900000E-01   1.00800           0
       625 MEMB     9        CHL1     H12B     HGA2     0.900000E-01   1.00800           0
       626 MEMB     9        CHL1     C11      CRL2    -0.180000       12.0110           0
       627 MEMB     9        CHL1     H11A     HGA2     0.900000E-01   1.00800           0
       628 MEMB     9        CHL1     H11B     HGA2     0.900000E-01   1.00800           0
       629 MEMB     9        CHL1     C9       CRL1    -0.900000E-01   12.0110           0
       630 MEMB     9        CHL1     H9       HGA1     0.900000E-01   1.00800           0
       631 MEMB     9        CHL1     C10      CRL1      0.00000       12.0110           0
       632 MEMB     9        CHL1     C19      CTL3    -0.270000       12.0110           0
       633 MEMB     9        CHL1     H19A     HAL3     0.900000E-01   1.00800           0
       634 MEMB     9        CHL1     H19B     HAL3     0.900000E-01   1.00800           0
       635 MEMB     9        CHL1     H19C     HAL3     0.900000E-01   1.00800           0
       636 MEMB     9        CHL1     C1       CRL2    -0.180000       12.0110           0
       637 MEMB     9        CHL1     H1A      HGA2     0.900000E-01   1.00800           0
       638 MEMB     9        CHL1     H1B      HGA2     0.900000E-01   1.00800           0
       639 MEMB     9        CHL1     C2       CRL2    -0.180000       12.0110           0
       640 MEMB     9        CHL1     H2A      HGA2     0.900000E-01   1.00800           0
       641 MEMB     9        CHL1     H2B      HGA2     0.900000E-01   1.00800           0
       642 MEMB     9        CHL1     C20      CTL1    -0.900000E-01   12.0110           0
       643 MEMB     9        CHL1     H20      HAL1     0.900000E-01   1.00800           0
       644 MEMB     9        CHL1     C21      CTL3    -0.270000       12.0110           0
       645 MEMB     9        CHL1     H21A     HAL3     0.900000E-01   1.00800           0
       646 MEMB     9        CHL1     H21B     HAL3     0.900000E-01   1.00800           0
       647 MEMB     9        CHL1     H21C     HAL3     0.900000E-01   1.00800           0
       648 MEMB     9        CHL1     C22      CTL2    -0.180000       12.0110           0
       649 MEMB     9        CHL1     H22A     HAL2     0.900000E-01   1.00800           0
       650 MEMB     9        CHL1     H22B     HAL2     0.900000E-01   1.00800           0
       651 MEMB     9        CHL1     C23      CTL2    -0.180000       12.0110           0
       652 MEMB     9        CHL1     H23A     HAL2     0.900000E-01   1.00800           0
       653 MEMB     9        CHL1     H23B     HAL2     0.900000E-01   1.00800           0
       654 MEMB     9        CHL1     C24      CTL2    -0.180000       12.0110           0
       655 MEMB     9        CHL1     H24A     HAL2     0.900000E-01   1.00800           0
       656 MEMB     9        CHL1     H24B     HAL2     0.900000E-01   1.00800           0
       657 MEMB     9        CHL1     C25      CTL1    -0.900000E-01   12.0110           0
       658 MEMB     9        CHL1     H25      HAL1     0.900000E-01   1.00800           0
       659 MEMB     9        CHL1     C26      CTL3    -0.270000       12.0110           0
       660 MEMB     9        CHL1     H26A     HAL3     0.900000E-01   1.00800           0
       661 MEMB     9        CHL1     H26B     HAL3     0.900000E-01   1.00800           0
       662 MEMB     9        CHL1     H26C     HAL3     0.900000E-01   1.00800           0
       663 MEMB     9        CHL1     C27      CTL3    -0.270000       12.0110           0
       664 MEMB     9        CHL1     H27A     HAL3     0.900000E-01   1.00800           0
       665 MEMB     9        CHL1     H27B     HAL3     0.900000E-01   1.00800           0
       666 MEMB     9        CHL1     H27C     HAL3     0.900000E-01   1.00800           0
       667 MEMB     10       CHL1     C3       CRL1     0.140000       12.0110           0
       668 MEMB     10       CHL1     H3       HGA1     0.900000E-01   1.00800           0
       669 MEMB     10       CHL1     O3       OHL     -0.660000       15.9994           0
       670 MEMB     10       CHL1     H3'      HOL      0.430000       1.00800           0
       671 MEMB     10       CHL1     C4       CRL2    -0.180000       12.0110           0
       672 MEMB     10       CHL1     H4A      HGA2     0.900000E-01   1.00800           0
       673 MEMB     10       CHL1     H4B      HGA2     0.900000E-01   1.00800           0
       674 MEMB     10       CHL1     C5       CEL1      0.00000       12.0110           0
       675 MEMB     10       CHL1     C6       CEL1    -0.150000       12.0110           0
       676 MEMB     10       CHL1     H6       HEL1     0.150000       1.00800           0
       677 MEMB     10       CHL1     C7       CRL2    -0.180000       12.0110           0
       678 MEMB     10       CHL1     H7A      HGA2     0.900000E-01   1.00800           0
       679 MEMB     10       CHL1     H7B      HGA2     0.900000E-01   1.00800           0
       680 MEMB     10       CHL1     C8       CRL1    -0.900000E-01   12.0110           0
       681 MEMB     10       CHL1     H8       HGA1     0.900000E-01   1.00800           0
       682 MEMB     10       CHL1     C14      CRL1    -0.900000E-01   12.0110           0
       683 MEMB     10       CHL1     H14      HGA1     0.900000E-01   1.00800           0
       684 MEMB     10       CHL1     C15      CRL2    -0.180000       12.0110           0
       685 MEMB     10       CHL1     H15A     HGA2     0.900000E-01   1.00800           0
       686 MEMB     10       CHL1     H15B     HGA2     0.900000E-01   1.00800           0
       687 MEMB     10       CHL1     C16      CRL2    -0.180000       12.0110           0
       688 MEMB     10       CHL1     H16A     HGA2     0.900000E-01   1.00800           0
       689 MEMB     10       CHL1     H16B     HGA2     0.900000E-01   1.00800           0
       690 MEMB     10       CHL1     C17      CRL1    -0.900000E-01   12.0110           0
       691 MEMB     10       CHL1     H17      HGA1     0.900000E-01   1.00800           0
       692 MEMB     10       CHL1     C13      CRL1      0.00000       12.0110           0
       693 MEMB     10       CHL1     C18      CTL3    -0.270000       12.0110           0
       694 MEMB     10       CHL1     H18A     HAL3     0.900000E-01   1.00800           0
       695 MEMB     10       CHL1     H18B     HAL3     0.900000E-01   1.00800           0
       696 MEMB     10       CHL1     H18C     HAL3     0.900000E-01   1.00800           0
       697 MEMB     10       CHL1     C12      CRL2    -0.180000       12.0110           0
       698 MEMB     10       CHL1     H12A     HGA2     0.900000E-01   1.00800           0
       699 MEMB     10       CHL1     H12B     HGA2     0.900000E-01   1.00800           0
       700 MEMB     10       CHL1     C11      CRL2    -0.180000       12.0110           0
       701 MEMB     10       CHL1     H11A     HGA2     0.900000E-01   1.00800           0
       702 MEMB     10       CHL1     H11B     HGA2     0.900000E-01   1.00800           0
       703 MEMB     10       CHL1     C9       CRL1    -0.900000E-01   12.0110           0
       704 MEMB     10       CHL1     H9       HGA1     0.900000E-01   1.00800           0
       705 MEMB     10       CHL1     C10      CRL1      0.00000       12.0110           0
       706 MEMB     10       CHL1     C19      CTL3    -0.270000       12.0110           0
       707 MEMB     10       CHL1     H19A     HAL3     0.900000E-01   1.00800           0
       708 MEMB     10       CHL1     H19B     HAL3     0.900000E-01   1.00800           0
       709 MEMB     10       CHL1     H19C     HAL3     0.900000E-01   1.00800           0
       710 MEMB     10       CHL1     C1       CRL2    -0.180000       12.0110           0
       711 MEMB     10       CHL1     H1A      HGA2     0.900000E-01   1.00800           0
       712 MEMB     10       CHL1     H1B      HGA2     0.900000E-01   1.00800           0
       713 MEMB     10       CHL1     C2       CRL2    -0.180000       12.0110           0
       714 MEMB     10       CHL1     H2A      HGA2     0.900000E-01   1.00800           0
       715 MEMB     10       CHL1     H2B      HGA2     0.900000E-01   1.00800           0
       716 MEMB     10       CHL1     C20      CTL1    -0.900000E-01   12.0110           0
       717 MEMB     10       CHL1     H20      HAL1     0.900000E-01   1.00800           0
       718 MEMB     10       CHL1     C21      CTL3    -0.270000       12.0110           0
       719 MEMB     10       CHL1     H21A     HAL3     0.900000E-01   1.00800           0
       720 MEMB     10       CHL1     H21B     HAL3     0.900000E-01   1.00800           0
       721 MEMB     10       CHL1     H21C     HAL3     0.900000E-01   1.00800           0
       722 MEMB     10       CHL1     C22      CTL2    -0.180000       12.0110           0
       723 MEMB     10       CHL1     H22A     HAL2     0.900000E-01   1.00800           0
       724 MEMB     10       CHL1     H22B     HAL2     0.900000E-01   1.00800           0
       725 MEMB     10       CHL1     C23      CTL2    -0.180000       12.0110           0
       726 MEMB     10       CHL1     H23A     HAL2     0.900000E-01   1.00800           0
       727 MEMB     10       CHL1     H23B     HAL2     0.900000E-01   1.00800           0
       728 MEMB     10       CHL1     C24      CTL2    -0.180000       12.0110           0
       729 MEMB     10       CHL1     H24A     HAL2     0.900000E-01   1.00800           0
       730 MEMB     10       CHL1     H24B     HAL2     0.900000E-01   1.00800           0
       731 MEMB     10       CHL1     C25      CTL1    -0.900000E-01   12.0110           0
       732 MEMB     10       CHL1     H25      HAL1     0.900000E-01   1.00800           0
       733 MEMB     10       CHL1     C26      CTL3    -0.270000       12.0110           0
       734 MEMB     10       CHL1     H26A     HAL3     0.900000E-01   1.00800           0
       735 MEMB     10       CHL1     H26B     HAL3     0.900000E-01   1.00800           0
       736 MEMB     10       CHL1     H26C     HAL3     0.900000E-01   1.00800           0
       737 MEMB     10       CHL1     C27      CTL3    -0.270000       12.0110           0
       738 MEMB     10       CHL1     H27A     HAL3     0.900000E-01   1.00800           0
       739 MEMB     10       CHL1     H27B     HAL3     0.900000E-01   1.00800           0
       740 MEMB     10       CHL1     H27C     HAL3     0.900000E-01   1.00800           0
       741 MEMB     11       CHL1     C3       CRL1     0.140000       12.0110           0
       742 MEMB     11       CHL1     H3       HGA1     0.900000E-01   1.00800           0
       743 MEMB     11       CHL1     O3       OHL     -0.660000       15.9994           0
       744 MEMB     11       CHL1     H3'      HOL      0.430000       1.00800           0
       745 MEMB     11       CHL1     C4       CRL2    -0.180000       12.0110           0
       746 MEMB     11       CHL1     H4A      HGA2     0.900000E-01   1.00800           0
       747 MEMB     11       CHL1     H4B      HGA2     0.900000E-01   1.00800           0
       748 MEMB     11       CHL1     C5       CEL1      0.00000       12.0110           0
       749 MEMB     11       CHL1     C6       CEL1    -0.150000       12.0110           0
       750 MEMB     11       CHL1     H6       HEL1     0.150000       1.00800           0
       751 MEMB     11       CHL1     C7       CRL2    -0.180000       12.0110           0
       752 MEMB     11       CHL1     H7A      HGA2     0.900000E-01   1.00800           0
       753 MEMB     11       CHL1     H7B      HGA2     0.900000E-01   1.00800           0
       754 MEMB     11       CHL1     C8       CRL1    -0.900000E-01   12.0110           0
       755 MEMB     11       CHL1     H8       HGA1     0.900000E-01   1.00800           0
       756 MEMB     11       CHL1     C14      CRL1    -0.900000E-01   12.0110           0
       757 MEMB     11       CHL1     H14      HGA1     0.900000E-01   1.00800           0
       758 MEMB     11       CHL1     C15      CRL2    -0.180000       12.0110           0
       759 MEMB     11       CHL1     H15A     HGA2     0.900000E-01   1.00800           0
       760 MEMB     11       CHL1     H15B     HGA2     0.900000E-01   1.00800           0
       761 MEMB     11       CHL1     C16      CRL2    -0.180000       12.0110           0
       762 MEMB     11       CHL1     H16A     HGA2     0.900000E-01   1.00800           0
       763 MEMB     11       CHL1     H16B     HGA2     0.900000E-01   1.00800           0
       764 MEMB     11       CHL1     C17      CRL1    -0.900000E-01   12.0110           0
       765 MEMB     11       CHL1     H17      HGA1     0.900000E-01   1.00800           0
       766 MEMB     11       CHL1     C13      CRL1      0.00000       12.0110           0
       767 MEMB     11       CHL1     C18      CTL3    -0.270000       12.0110           0
       768 MEMB     11       CHL1     H18A     HAL3     0.900000E-01   1.00800           0
       769 MEMB     11       CHL1     H18B     HAL3     0.900000E-01   1.00800           0
       770 MEMB     11       CHL1     H18C     HAL3     0.900000E-01   1.00800           0
       771 MEMB     11       CHL1     C12      CRL2    -0.180000       12.0110           0
       772 MEMB     11       CHL1     H12A     HGA2     0.900000E-01   1.00800           0
       773 MEMB     11       CHL1     H12B     HGA2     0.900000E-01   1.00800           0
       774 MEMB     11       CHL1     C11      CRL2    -0.180000       12.0110           0
       775 MEMB     11       CHL1     H11A     HGA2     0.900000E-01   1.00800           0
       776 MEMB     11       CHL1     H11B     HGA2     0.900000E-01   1.00800           0
       777 MEMB     11       CHL1     C9       CRL1    -0.900000E-01   12.0110           0
       778 MEMB     11       CHL1     H9       HGA1     0.900000E-01   1.00800           0
       779 MEMB     11       CHL1     C10      CRL1      0.00000       12.0110           0
       780 MEMB     11       CHL1     C19      CTL3    -0.270000       12.0110           0
       781 MEMB     11       CHL1     H19A     HAL3     0.900000E-01   1.00800           0
       782 MEMB     11       CHL1     H19B     HAL3     0.900000E-01   1.00800           0
       783 MEMB     11       CHL1     H19C     HAL3     0.900000E-01   1.00800           0
       784 MEMB     11       CHL1     C1       CRL2    -0.180000       12.0110           0
       785 MEMB     11       CHL1     H1A      HGA2     0.900000E-01   1.00800           0
       786 MEMB     11       CHL1     H1B      HGA2     0.900000E-01   1.00800           0
       787 MEMB     11       CHL1     C2       CRL2    -0.180000       12.0110           0
       788 MEMB     11       CHL1     H2A      HGA2     0.900000E-01   1.00800           0
       789 MEMB     11       CHL1     H2B      HGA2     0.900000E-01   1.00800           0
       790 MEMB     11       CHL1     C20      CTL1    -0.900000E-01   12.0110           0
       791 MEMB     11       CHL1     H20      HAL1     0.900000E-01   1.00800           0
       792 MEMB     11       CHL1     C21      CTL3    -0.270000       12.0110           0
       793 MEMB     11       CHL1     H21A     HAL3     0.900000E-01   1.00800           0
       794 MEMB     11       CHL1     H21B     HAL3     0.900000E-01   1.00800           0
       795 MEMB     11       CHL1     H21C     HAL3     0.900000E-01   1.00800           0
       796 MEMB     11       CHL1     C22      CTL2    -0.180000       12.0110           0
       797 MEMB     11       CHL1     H22A     HAL2     0.900000E-01   1.00800           0
       798 MEMB     11       CHL1     H22B     HAL2     0.900000E-01   1.00800           0
       799 MEMB     11       CHL1     C23      CTL2    -0.180000       12.0110           0
       800 MEMB     11       CHL1     H23A     HAL2     0.900000E-01   1.00800           0
       801 MEMB     11       CHL1     H23B     HAL2     0.900000E-01   1.00800           0
       802 MEMB     11       CHL1     C24      CTL2    -0.180000       12.0110           0
       803 MEMB     11       CHL1     H24A     HAL2     0.900000E-01   1.00800           0
       804 MEMB     11       CHL1     H24B     HAL2     0.900000E-01   1.00800           0
       805 MEMB     11       CHL1     C25      CTL1    -0.900000E-01   12.0110           0
       806 MEMB     11       CHL1     H25      HAL1     0.900000E-01   1.00800           0
       807 MEMB     11       CHL1     C26      CTL3    -0.270000       12.0110           0
       808 MEMB     11       CHL1     H26A     HAL3     0.900000E-01   1.00800           0
       809 MEMB     11       CHL1     H26B     HAL3     0.900000E-01   1.00800           0
       810 MEMB     11       CHL1     H26C     HAL3     0.900000E-01   1.00800           0
       811 MEMB     11       CHL1     C27      CTL3    -0.270000       12.0110           0
       812 MEMB     11       CHL1     H27A     HAL3     0.900000E-01   1.00800           0
       813 MEMB     11       CHL1     H27B     HAL3     0.900000E-01   1.00800           0
       814 MEMB     11       CHL1     H27C     HAL3     0.900000E-01   1.00800           0
       815 MEMB     12       CHL1     C3       CRL1     0.140000       12.0110           0
       816 MEMB     12       CHL1     H3       HGA1     0.900000E-01   1.00800           0
       817 MEMB     12       CHL1     O3       OHL     -0.660000       15.9994           0
       818 MEMB     12       CHL1     H3'      HOL      0.430000       1.00800           0
       819 MEMB     12       CHL1     C4       CRL2    -0.180000       12.0110           0
       820 MEMB     12       CHL1     H4A      HGA2     0.900000E-01   1.00800           0
       821 MEMB     12       CHL1     H4B      HGA2     0.900000E-01   1.00800           0
       822 MEMB     12       CHL1     C5       CEL1      0.00000       12.0110           0
       823 MEMB     12       CHL1     C6       CEL1    -0.150000       12.0110           0
       824 MEMB     12       CHL1     H6       HEL1     0.150000       1.00800           0
       825 MEMB     12       CHL1     C7       CRL2    -0.180000       12.0110           0
       826 MEMB     12       CHL1     H7A      HGA2     0.900000E-01   1.00800           0
       827 MEMB     12       CHL1     H7B      HGA2     0.900000E-01   1.00800           0
       828 MEMB     12       CHL1     C8       CRL1    -0.900000E-01   12.0110           0
       829 MEMB     12       CHL1     H8       HGA1     0.900000E-01   1.00800           0
       830 MEMB     12       CHL1     C14      CRL1    -0.900000E-01   12.0110           0
       831 MEMB     12       CHL1     H14      HGA1     0.900000E-01   1.00800           0
       832 MEMB     12       CHL1     C15      CRL2    -0.180000       12.0110           0
       833 MEMB     12       CHL1     H15A     HGA2     0.900000E-01   1.00800           0
       834 MEMB     12       CHL1     H15B     HGA2     0.900000E-01   1.00800           0
       835 MEMB     12       CHL1     C16      CRL2    -0.180000       12.0110           0
       836 MEMB     12       CHL1     H16A     HGA2     0.900000E-01   1.00800           0
       837 MEMB     12       CHL1     H16B     HGA2     0.900000E-01   1.00800           0
       838 MEMB     12       CHL1     C17      CRL1    -0.900000E-01   12.0110           0
       839 MEMB     12       CHL1     H17      HGA1     0.900000E-01   1.00800           0
       840 MEMB     12       CHL1     C13      CRL1      0.00000       12.0110           0
       841 MEMB     12       CHL1     C18      CTL3    -0.270000       12.0110           0
       842 MEMB     12       CHL1     H18A     HAL3     0.900000E-01   1.00800           0
       843 MEMB     12       CHL1     H18B     HAL3     0.900000E-01   1.00800           0
       844 MEMB     12       CHL1     H18C     HAL3     0.900000E-01   1.00800           0
       845 MEMB     12       CHL1     C12      CRL2    -0.180000       12.0110           0
       846 MEMB     12       CHL1     H12A     HGA2     0.900000E-01   1.00800           0
       847 MEMB     12       CHL1     H12B     HGA2     0.900000E-01   1.00800           0
       848 MEMB     12       CHL1     C11      CRL2    -0.180000       12.0110           0
       849 MEMB     12       CHL1     H11A     HGA2     0.900000E-01   1.00800           0
       850 MEMB     12       CHL1     H11B     HGA2     0.900000E-01   1.00800           0
       851 MEMB     12       CHL1     C9       CRL1    -0.900000E-01   12.0110           0
       852 MEMB     12       CHL1     H9       HGA1     0.900000E-01   1.00800           0
       853 MEMB     12       CHL1     C10      CRL1      0.00000       12.0110           0
       854 MEMB     12       CHL1     C19      CTL3    -0.270000       12.0110           0
       855 MEMB     12       CHL1     H19A     HAL3     0.900000E-01   1.00800           0
       856 MEMB     12       CHL1     H19B     HAL3     0.900000E-01   1.00800           0
       857 MEMB     12       CHL1     H19C     HAL3     0.900000E-01   1.00800           0
       858 MEMB     12       CHL1     C1       CRL2    -0.180000       12.0110           0
       859 MEMB     12       CHL1     H1A      HGA2     0.900000E-01   1.00800           0
       860 MEMB     12       CHL1     H1B      HGA2     0.900000E-01   1.00800           0
       861 MEMB     12       CHL1     C2       CRL2    -0.180000       12.0110           0
       862 MEMB     12       CHL1     H2A      HGA2     0.900000E-01   1.00800           0
       863 MEMB     12       CHL1     H2B      HGA2     0.900000E-01   1.00800           0
       864 MEMB     12       CHL1     C20      CTL1    -0.900000E-01   12.0110           0
       865 MEMB     12       CHL1     H20      HAL1     0.900000E-01   1.00800           0
       866 MEMB     12       CHL1     C21      CTL3    -0.270000       12.0110           0
       867 MEMB     12       CHL1     H21A     HAL3     0.900000E-01   1.00800           0
       868 MEMB     12       CHL1     H21B     HAL3     0.900000E-01   1.00800           0
       869 MEMB     12       CHL1     H21C     HAL3     0.900000E-01   1.00800           0
       870 MEMB     12       CHL1     C22      CTL2    -0.180000       12.0110           0
       871 MEMB     12       CHL1     H22A     HAL2     0.900000E-01   1.00800           0
       872 MEMB     12       CHL1     H22B     HAL2     0.900000E-01   1.00800           0
       873 MEMB     12       CHL1     C23      CTL2    -0.180000       12.0110           0
       874 MEMB     12       CHL1     H23A     HAL2     0.900000E-01   1.00800           0
       875 MEMB     12       CHL1     H23B     HAL2     0.900000E-01   1.00800           0
       876 MEMB     12       CHL1     C24      CTL2    -0.180000       12.0110           0
       877 MEMB     12       CHL1     H24A     HAL2     0.900000E-01   1.00800           0
       878 MEMB     12       CHL1     H24B     HAL2     0.900000E-01   1.00800           0
       879 MEMB     12       CHL1     C25      CTL1    -0.900000E-01   12.0110           0
       880 MEMB     12       CHL1     H25      HAL1     0.900000E-01   1.00800           0
       881 MEMB     12       CHL1     C26      CTL3    -0.270000       12.0110           0
       882 MEMB     12       CHL1     H26A     HAL3     0.900000E-01   1.00800           0
       883 MEMB     12       CHL1     H26B     HAL3     0.900000E-01   1.00800           0
       884 MEMB     12       CHL1     H26C     HAL3     0.900000E-01   1.00800           0
       885 MEMB     12       CHL1     C27      CTL3    -0.270000       12.0110           0
       886 MEMB     12       CHL1     H27A     HAL3     0.900000E-01   1.00800           0
       887 MEMB     12       CHL1     H27B     HAL3     0.900000E-01   1.00800           0
       888 MEMB     12       CHL1     H27C     HAL3     0.900000E-01   1.00800           0
       889 MEMB     13       CHL1     C3       CRL1     0.140000       12.0110           0
       890 MEMB     13       CHL1     H3       HGA1     0.900000E-01   1.00800           0
       891 MEMB     13       CHL1     O3       OHL     -0.660000       15.9994           0
       892 MEMB     13       CHL1     H3'      HOL      0.430000       1.00800           0
       893 MEMB     13       CHL1     C4       CRL2    -0.180000       12.0110           0
       894 MEMB     13       CHL1     H4A      HGA2     0.900000E-01   1.00800           0
       895 MEMB     13       CHL1     H4B      HGA2     0.900000E-01   1.00800           0
       896 MEMB     13       CHL1     C5       CEL1      0.00000       12.0110           0
       897 MEMB     13       CHL1     C6       CEL1    -0.150000       12.0110           0
       898 MEMB     13       CHL1     H6       HEL1     0.150000       1.00800           0
       899 MEMB     13       CHL1     C7       CRL2    -0.180000       12.0110           0
       900 MEMB     13       CHL1     H7A      HGA2     0.900000E-01   1.00800           0
       901 MEMB     13       CHL1     H7B      HGA2     0.900000E-01   1.00800           0
       902 MEMB     13       CHL1     C8       CRL1    -0.900000E-01   12.0110           0
       903 MEMB     13       CHL1     H8       HGA1     0.900000E-01   1.00800           0
       904 MEMB     13       CHL1     C14      CRL1    -0.900000E-01   12.0110           0
       905 MEMB     13       CHL1     H14      HGA1     0.900000E-01   1.00800           0
       906 MEMB     13       CHL1     C15      CRL2    -0.180000       12.0110           0
       907 MEMB     13       CHL1     H15A     HGA2     0.900000E-01   1.00800           0
       908 MEMB     13       CHL1     H15B     HGA2     0.900000E-01   1.00800           0
       909 MEMB     13       CHL1     C16      CRL2    -0.180000       12.0110           0
       910 MEMB     13       CHL1     H16A     HGA2     0.900000E-01   1.00800           0
       911 MEMB     13       CHL1     H16B     HGA2     0.900000E-01   1.00800           0
       912 MEMB     13       CHL1     C17      CRL1    -0.900000E-01   12.0110           0
       913 MEMB     13       CHL1     H17      HGA1     0.900000E-01   1.00800           0
       914 MEMB     13       CHL1     C13      CRL1      0.00000       12.0110           0
       915 MEMB     13       CHL1     C18      CTL3    -0.270000       12.0110           0
       916 MEMB     13       CHL1     H18A     HAL3     0.900000E-01   1.00800           0
       917 MEMB     13       CHL1     H18B     HAL3     0.900000E-01   1.00800           0
       918 MEMB     13       CHL1     H18C     HAL3     0.900000E-01   1.00800           0
       919 MEMB     13       CHL1     C12      CRL2    -0.180000       12.0110           0
       920 MEMB     13       CHL1     H12A     HGA2     0.900000E-01   1.00800           0
       921 MEMB     13       CHL1     H12B     HGA2     0.900000E-01   1.00800           0
       922 MEMB     13       CHL1     C11      CRL2    -0.180000       12.0110           0
       923 MEMB     13       CHL1     H11A     HGA2     0.900000E-01   1.00800           0
       924 MEMB     13       CHL1     H11B     HGA2     0.900000E-01   1.00800           0
       925 MEMB     13       CHL1     C9       CRL1    -0.900000E-01   12.0110           0
       926 MEMB     13       CHL1     H9       HGA1     0.900000E-01   1.00800           0
       927 MEMB     13       CHL1     C10      CRL1      0.00000       12.0110           0
       928 MEMB     13       CHL1     C19      CTL3    -0.270000       12.0110           0
       929 MEMB     13       CHL1     H19A     HAL3     0.900000E-01   1.00800           0
       930 MEMB     13       CHL1     H19B     HAL3     0.900000E-01   1.00800           0
       931 MEMB     13       CHL1     H19C     HAL3     0.900000E-01   1.00800           0
       932 MEMB     13       CHL1     C1       CRL2    -0.180000       12.0110           0
       933 MEMB     13       CHL1     H1A      HGA2     0.900000E-01   1.00800           0
       934 MEMB     13       CHL1     H1B      HGA2     0.900000E-01   1.00800           0
       935 MEMB     13       CHL1     C2       CRL2    -0.180000       12.0110           0
       936 MEMB     13       CHL1     H2A      HGA2     0.900000E-01   1.00800           0
       937 MEMB     13       CHL1     H2B      HGA2     0.900000E-01   1.00800           0
       938 MEMB     13       CHL1     C20      CTL1    -0.900000E-01   12.0110           0
       939 MEMB     13       CHL1     H20      HAL1     0.900000E-01   1.00800           0
       940 MEMB     13       CHL1     C21      CTL3    -0.270000       12.0110           0
       941 MEMB     13       CHL1     H21A     HAL3     0.900000E-01   1.00800           0
       942 MEMB     13       CHL1     H21B     HAL3     0.900000E-01   1.00800           0
       943 MEMB     13       CHL1     H21C     HAL3     0.900000E-01   1.00800           0
       944 MEMB     13       CHL1     C22      CTL2    -0.180000       12.0110           0
       945 MEMB     13       CHL1     H22A     HAL2     0.900000E-01   1.00800           0
       946 MEMB     13       CHL1     H22B     HAL2     0.900000E-01   1.00800           0
       947 MEMB     13       CHL1     C23      CTL2    -0.180000       12.0110           0
       948 MEMB     13       CHL1     H23A     HAL2     0.900000E-01   1.00800           0
       949 MEMB     13       CHL1     H23B     HAL2     0.900000E-01   1.00800           0
       950 MEMB     13       CHL1     C24      CTL2    -0.180000       12.0110           0
       951 MEMB     13       CHL1     H24A     HAL2     0.900000E-01   1.00800           0
       952 MEMB     13       CHL1     H24B     HAL2     0.900000E-01   1.00800           0
       953 MEMB     13       CHL1     C25      CTL1    -0.900000E-01   12.0110           0
       954 MEMB     13       CHL1     H25      HAL1     0.900000E-01   1.00800           0
       955 MEMB     13       CHL1     C26      CTL3    -0.270000       12.0110           0
       956 MEMB     13       CHL1     H26A     HAL3     0.900000E-01   1.00800           0
       957 MEMB     13       CHL1     H26B     HAL3     0.900000E-01   1.00800           0
       958 MEMB     13       CHL1     H26C     HAL3     0.900000E-01   1.00800           0
       959 MEMB     13       CHL1     C27      CTL3    -0.270000       12.0110           0
       960 MEMB     13       CHL1     H27A     HAL3     0.900000E-01   1.00800           0
       961 MEMB     13       CHL1     H27B     HAL3     0.900000E-01   1.00800           0
       962 MEMB     13       CHL1     H27C     HAL3     0.900000E-01   1.00800           0
       963 MEMB     14       CHL1     C3       CRL1     0.140000       12.0110           0
       964 MEMB     14       CHL1     H3       HGA1     0.900000E-01   1.00800           0
       965 MEMB     14       CHL1     O3       OHL     -0.660000       15.9994           0
       966 MEMB     14       CHL1     H3'      HOL      0.430000       1.00800           0
       967 MEMB     14       CHL1     C4       CRL2    -0.180000       12.0110           0
       968 MEMB     14       CHL1     H4A      HGA2     0.900000E-01   1.00800           0
       969 MEMB     14       CHL1     H4B      HGA2     0.900000E-01   1.00800           0
       970 MEMB     14       CHL1     C5       CEL1      0.00000       12.0110           0
       971 MEMB     14       CHL1     C6       CEL1    -0.150000       12.0110           0
       972 MEMB     14       CHL1     H6       HEL1     0.150000       1.00800           0
       973 MEMB     14       CHL1     C7       CRL2    -0.180000       12.0110           0
       974 MEMB     14       CHL1     H7A      HGA2     0.900000E-01   1.00800           0
       975 MEMB     14       CHL1     H7B      HGA2     0.900000E-01   1.00800           0
       976 MEMB     14       CHL1     C8       CRL1    -0.900000E-01   12.0110           0
       977 MEMB     14       CHL1     H8       HGA1     0.900000E-01   1.00800           0
       978 MEMB     14       CHL1     C14      CRL1    -0.900000E-01   12.0110           0
       979 MEMB     14       CHL1     H14      HGA1     0.900000E-01   1.00800           0
       980 MEMB     14       CHL1     C15      CRL2    -0.180000       12.0110           0
       981 MEMB     14       CHL1     H15A     HGA2     0.900000E-01   1.00800           0
       982 MEMB     14       CHL1     H15B     HGA2     0.900000E-01   1.00800           0
       983 MEMB     14       CHL1     C16      CRL2    -0.180000       12.0110           0
       984 MEMB     14       CHL1     H16A     HGA2     0.900000E-01   1.00800           0
       985 MEMB     14       CHL1     H16B     HGA2     0.900000E-01   1.00800           0
       986 MEMB     14       CHL1     C17      CRL1    -0.900000E-01   12.0110           0
       987 MEMB     14       CHL1     H17      HGA1     0.900000E-01   1.00800           0
       988 MEMB     14       CHL1     C13      CRL1      0.00000       12.0110           0
       989 MEMB     14       CHL1     C18      CTL3    -0.270000       12.0110           0
       990 MEMB     14       CHL1     H18A     HAL3     0.900000E-01   1.00800           0
       991 MEMB     14       CHL1     H18B     HAL3     0.900000E-01   1.00800           0
       992 MEMB     14       CHL1     H18C     HAL3     0.900000E-01   1.00800           0
       993 MEMB     14       CHL1     C12      CRL2    -0.180000       12.0110           0
       994 MEMB     14       CHL1     H12A     HGA2     0.900000E-01   1.00800           0
       995 MEMB     14       CHL1     H12B     HGA2     0.900000E-01   1.00800           0
       996 MEMB     14       CHL1     C11      CRL2    -0.180000       12.0110           0
       997 MEMB     14       CHL1     H11A     HGA2     0.900000E-01   1.00800           0
       998 MEMB     14       CHL1     H11B     HGA2     0.900000E-01   1.00800           0
       999 MEMB     14       CHL1     C9       CRL1    -0.900000E-01   12.0110           0
      1000 MEMB     14       CHL1     H9       HGA1     0.900000E-01   1.00800           0
      1001 MEMB     14       CHL1     C10      CRL1      0.00000       12.0110           0
      1002 MEMB     14       CHL1     C19      CTL3    -0.270000       12.0110           0
      1003 MEMB     14       CHL1     H19A     HAL3     0.900000E-01   1.00800           0
      1004 MEMB     14       CHL1     H19B     HAL3     0.900000E-01   1.00800           0
      1005 MEMB     14       CHL1     H19C     HAL3     0.900000E-01   1.00800           0
      1006 MEMB     14       CHL1     C1       CRL2    -0.180000       12.0110           0
      1007 MEMB     14       CHL1     H1A      HGA2     0.900000E-01   1.00800           0
      1008 MEMB     14       CHL1     H1B      HGA2     0.900000E-01   1.00800           0
      1009 MEMB     14       CHL1     C2       CRL2    -0.180000       12.0110           0
      1010 MEMB     14       CHL1     H2A      HGA2     0.900000E-01   1.00800           0
      1011 MEMB     14       CHL1     H2B      HGA2     0.900000E-01   1.00800           0
      1012 MEMB     14       CHL1     C20      CTL1    -0.900000E-01   12.0110           0
      1013 MEMB     14       CHL1     H20      HAL1     0.900000E-01   1.00800           0
      1014 MEMB     14       CHL1     C21      CTL3    -0.270000       12.0110           0
      1015 MEMB     14       CHL1     H21A     HAL3     0.900000E-01   1.00800           0
      1016 MEMB     14       CHL1     H21B     HAL3     0.900000E-01   1.00800           0
      1017 MEMB     14       CHL1     H21C     HAL3     0.900000E-01   1.00800           0
      1018 MEMB     14       CHL1     C22      CTL2    -0.180000       12.0110           0
      1019 MEMB     14       CHL1     H22A     HAL2     0.900000E-01   1.00800           0
      1020 MEMB     14       CHL1     H22B     HAL2     0.900000E-01   1.00800           0
      1021 MEMB     14       CHL1     C23      CTL2    -0.180000       12.0110           0
      1022 MEMB     14       CHL1     H23A     HAL2     0.900000E-01   1.00800           0
      1023 MEMB     14       CHL1     H23B     HAL2     0.900000E-01   1.00800           0
      1024 MEMB     14       CHL1     C24      CTL2    -0.180000       12.0110           0
      1025 MEMB     14       CHL1     H24A     HAL2     0.900000E-01   1.00800           0
      1026 MEMB     14       CHL1     H24B     HAL2     0.900000E-01   1.00800           0
      1027 MEMB     14       CHL1     C25      CTL1    -0.900000E-01   12.0110           0
      1028 MEMB     14       CHL1     H25      HAL1     0.900000E-01   1.00800           0
      1029 MEMB     14       CHL1     C26      CTL3    -0.270000       12.0110           0
      1030 MEMB     14       CHL1     H26A     HAL3     0.900000E-01   1.00800           0
      1031 MEMB     14       CHL1     H26B     HAL3     0.900000E-01   1.00800           0
      1032 MEMB     14       CHL1     H26C     HAL3     0.900000E-01   1.00800           0
      1033 MEMB     14       CHL1     C27      CTL3    -0.270000       12.0110           0
      1034 MEMB     14       CHL1     H27A     HAL3     0.900000E-01   1.00800           0
      1035 MEMB     14       CHL1     H27B     HAL3     0.900000E-01   1.00800           0
      1036 MEMB     14       CHL1     H27C     HAL3     0.900000E-01   1.00800           0
      1037 MEMB     15       CHL1     C3       CRL1     0.140000       12.0110           0
      1038 MEMB     15       CHL1     H3       HGA1     0.900000E-01   1.00800           0
      1039 MEMB     15       CHL1     O3       OHL     -0.660000       15.9994           0
      1040 MEMB     15       CHL1     H3'      HOL      0.430000       1.00800           0
      1041 MEMB     15       CHL1     C4       CRL2    -0.180000       12.0110           0
      1042 MEMB     15       CHL1     H4A      HGA2     0.900000E-01   1.00800           0
      1043 MEMB     15       CHL1     H4B      HGA2     0.900000E-01   1.00800           0
      1044 MEMB     15       CHL1     C5       CEL1      0.00000       12.0110           0
      1045 MEMB     15       CHL1     C6       CEL1    -0.150000       12.0110           0
      1046 MEMB     15       CHL1     H6       HEL1     0.150000       1.00800           0
      1047 MEMB     15       CHL1     C7       CRL2    -0.180000       12.0110           0
      1048 MEMB     15       CHL1     H7A      HGA2     0.900000E-01   1.00800           0
      1049 MEMB     15       CHL1     H7B      HGA2     0.900000E-01   1.00800           0
      1050 MEMB     15       CHL1     C8       CRL1    -0.900000E-01   12.0110           0
      1051 MEMB     15       CHL1     H8       HGA1     0.900000E-01   1.00800           0
      1052 MEMB     15       CHL1     C14      CRL1    -0.900000E-01   12.0110           0
      1053 MEMB     15       CHL1     H14      HGA1     0.900000E-01   1.00800           0
      1054 MEMB     15       CHL1     C15      CRL2    -0.180000       12.0110           0
      1055 MEMB     15       CHL1     H15A     HGA2     0.900000E-01   1.00800           0
      1056 MEMB     15       CHL1     H15B     HGA2     0.900000E-01   1.00800           0
      1057 MEMB     15       CHL1     C16      CRL2    -0.180000       12.0110           0
      1058 MEMB     15       CHL1     H16A     HGA2     0.900000E-01   1.00800           0
      1059 MEMB     15       CHL1     H16B     HGA2     0.900000E-01   1.00800           0
      1060 MEMB     15       CHL1     C17      CRL1    -0.900000E-01   12.0110           0
      1061 MEMB     15       CHL1     H17      HGA1     0.900000E-01   1.00800           0
      1062 MEMB     15       CHL1     C13      CRL1      0.00000       12.0110           0
      1063 MEMB     15       CHL1     C18      CTL3    -0.270000       12.0110           0
      1064 MEMB     15       CHL1     H18A     HAL3     0.900000E-01   1.00800           0
      1065 MEMB     15       CHL1     H18B     HAL3     0.900000E-01   1.00800           0
      1066 MEMB     15       CHL1     H18C     HAL3     0.900000E-01   1.00800           0
      1067 MEMB     15       CHL1     C12      CRL2    -0.180000       12.0110           0
      1068 MEMB     15       CHL1     H12A     HGA2     0.900000E-01   1.00800           0
      1069 MEMB     15       CHL1     H12B     HGA2     0.900000E-01   1.00800           0
      1070 MEMB     15       CHL1     C11      CRL2    -0.180000       12.0110           0
      1071 MEMB     15       CHL1     H11A     HGA2     0.900000E-01   1.00800           0
      1072 MEMB     15       CHL1     H11B     HGA2     0.900000E-01   1.00800           0
      1073 MEMB     15       CHL1     C9       CRL1    -0.900000E-01   12.0110           0
      1074 MEMB     15       CHL1     H9       HGA1     0.900000E-01   1.00800           0
      1075 MEMB     15       CHL1     C10      CRL1      0.00000       12.0110           0
      1076 MEMB     15       CHL1     C19      CTL3    -0.270000       12.0110           0
      1077 MEMB     15       CHL1     H19A     HAL3     0.900000E-01   1.00800           0
      1078 MEMB     15       CHL1     H19B     HAL3     0.900000E-01   1.00800           0
      1079 MEMB     15       CHL1     H19C     HAL3     0.900000E-01   1.00800           0
      1080 MEMB     15       CHL1     C1       CRL2    -0.180000       12.0110           0
      1081 MEMB     15       CHL1     H1A      HGA2     0.900000E-01   1.00800           0
      1082 MEMB     15       CHL1     H1B      HGA2     0.900000E-01   1.00800           0
      1083 MEMB     15       CHL1     C2       CRL2    -0.180000       12.0110           0
      1084 MEMB     15       CHL1     H2A      HGA2     0.900000E-01   1.00800           0
      1085 MEMB     15       CHL1     H2B      HGA2     0.900000E-01   1.00800           0
      1086 MEMB     15       CHL1     C20      CTL1    -0.900000E-01   12.0110           0
      1087 MEMB     15       CHL1     H20      HAL1     0.900000E-01   1.00800           0
      1088 MEMB     15       CHL1     C21      CTL3    -0.270000       12.0110           0
      1089 MEMB     15       CHL1     H21A     HAL3     0.900000E-01   1.00800           0
      1090 MEMB     15       CHL1     H21B     HAL3     0.900000E-01   1.00800           0
      1091 MEMB     15       CHL1     H21C     HAL3     0.900000E-01   1.00800           0
      1092 MEMB     15       CHL1     C22      CTL2    -0.180000       12.0110           0
      1093 MEMB     15       CHL1     H22A     HAL2     0.900000E-01   1.00800           0
      1094 MEMB     15       CHL1     H22B     HAL2     0.900000E-01   1.00800           0
      1095 MEMB     15       CHL1     C23      CTL2    -0.180000       12.0110           0
      1096 MEMB     15       CHL1     H23A     HAL2     0.900000E-01   1.00800           0
      1097 MEMB     15       CHL1     H23B     HAL2     0.900000E-01   1.00800           0
      1098 MEMB     15       CHL1     C24      CTL2    -0.180000       12.0110           0
      1099 MEMB     15       CHL1     H24A     HAL2     0.900000E-01   1.00800           0
      1100 MEMB     15       CHL1     H24B     HAL2     0.900000E-01   1.00800           0
      1101 MEMB     15       CHL1     C25      CTL1    -0.900000E-01   12.0110           0
      1102 MEMB     15       CHL1     H25      HAL1     0.900000E-01   1.00800           0
      1103 MEMB     15       CHL1     C26      CTL3    -0.270000       12.0110           0
      1104 MEMB     15       CHL1     H26A     HAL3     0.900000E-01   1.00800           0
      1105 MEMB     15       CHL1     H26B     HAL3     0.900000E-01   1.00800           0
      1106 MEMB     15       CHL1     H26C     HAL3     0.900000E-01   1.00800           0
      1107 MEMB     15       CHL1     C27      CTL3    -0.270000       12.0110           0
      1108 MEMB     15       CHL1     H27A     HAL3     0.900000E-01   1.00800           0
      1109 MEMB     15       CHL1     H27B     HAL3     0.900000E-01   1.00800           0
      1110 MEMB     15       CHL1     H27C     HAL3     0.900000E-01   1.00800           0
      1111 MEMB     16       CHL1     C3       CRL1     0.140000       12.0110           0
      1112 MEMB     16       CHL1     H3       HGA1     0.900000E-01   1.00800           0
      1113 MEMB     16       CHL1     O3       OHL     -0.660000       15.9994           0
      1114 MEMB     16       CHL1     H3'      HOL      0.430000       1.00800           0
      1115 MEMB     16       CHL1     C4       CRL2    -0.180000       12.0110           0
      1116 MEMB     16       CHL1     H4A      HGA2     0.900000E-01   1.00800           0
      1117 MEMB     16       CHL1     H4B      HGA2     0.900000E-01   1.00800           0
      1118 MEMB     16       CHL1     C5       CEL1      0.00000       12.0110           0
      1119 MEMB     16       CHL1     C6       CEL1    -0.150000       12.0110           0
      1120 MEMB     16       CHL1     H6       HEL1     0.150000       1.00800           0
      1121 MEMB     16       CHL1     C7       CRL2    -0.180000       12.0110           0
      1122 MEMB     16       CHL1     H7A      HGA2     0.900000E-01   1.00800           0
      1123 MEMB     16       CHL1     H7B      HGA2     0.900000E-01   1.00800           0
      1124 MEMB     16       CHL1     C8       CRL1    -0.900000E-01   12.0110           0
      1125 MEMB     16       CHL1     H8       HGA1     0.900000E-01   1.00800           0
      1126 MEMB     16       CHL1     C14      CRL1    -0.900000E-01   12.0110           0
      1127 MEMB     16       CHL1     H14      HGA1     0.900000E-01   1.00800           0
      1128 MEMB     16       CHL1     C15      CRL2    -0.180000       12.0110           0
      1129 MEMB     16       CHL1     H15A     HGA2     0.900000E-01   1.00800           0
      1130 MEMB     16       CHL1     H15B     HGA2     0.900000E-01   1.00800           0
      1131 MEMB     16       CHL1     C16      CRL2    -0.180000       12.0110           0
      1132 MEMB     16       CHL1     H16A     HGA2     0.900000E-01   1.00800           0
      1133 MEMB     16       CHL1     H16B     HGA2     0.900000E-01   1.00800           0
      1134 MEMB     16       CHL1     C17      CRL1    -0.900000E-01   12.0110           0
      1135 MEMB     16       CHL1     H17      HGA1     0.900000E-01   1.00800           0
      1136 MEMB     16       CHL1     C13      CRL1      0.00000       12.0110           0
      1137 MEMB     16       CHL1     C18      CTL3    -0.270000       12.0110           0
      1138 MEMB     16       CHL1     H18A     HAL3     0.900000E-01   1.00800           0
      1139 MEMB     16       CHL1     H18B     HAL3     0.900000E-01   1.00800           0
      1140 MEMB     16       CHL1     H18C     HAL3     0.900000E-01   1.00800           0
      1141 MEMB     16       CHL1     C12      CRL2    -0.180000       12.0110           0
      1142 MEMB     16       CHL1     H12A     HGA2     0.900000E-01   1.00800           0
      1143 MEMB     16       CHL1     H12B     HGA2     0.900000E-01   1.00800           0
      1144 MEMB     16       CHL1     C11      CRL2    -0.180000       12.0110           0
      1145 MEMB     16       CHL1     H11A     HGA2     0.900000E-01   1.00800           0
      1146 MEMB     16       CHL1     H11B     HGA2     0.900000E-01   1.00800           0
      1147 MEMB     16       CHL1     C9       CRL1    -0.900000E-01   12.0110           0
      1148 MEMB     16       CHL1     H9       HGA1     0.900000E-01   1.00800           0
      1149 MEMB     16       CHL1     C10      CRL1      0.00000       12.0110           0
      1150 MEMB     16       CHL1     C19      CTL3    -0.270000       12.0110           0
      1151 MEMB     16       CHL1     H19A     HAL3     0.900000E-01   1.00800           0
      1152 MEMB     16       CHL1     H19B     HAL3     0.900000E-01   1.00800           0
      1153 MEMB     16       CHL1     H19C     HAL3     0.900000E-01   1.00800           0
      1154 MEMB     16       CHL1     C1       CRL2    -0.180000       12.0110           0
      1155 MEMB     16       CHL1     H1A      HGA2     0.900000E-01   1.00800           0
      1156 MEMB     16       CHL1     H1B      HGA2     0.900000E-01   1.00800           0
      1157 MEMB     16       CHL1     C2       CRL2    -0.180000       12.0110           0
      1158 MEMB     16       CHL1     H2A      HGA2     0.900000E-01   1.00800           0
      1159 MEMB     16       CHL1     H2B      HGA2     0.900000E-01   1.00800           0
      1160 MEMB     16       CHL1     C20      CTL1    -0.900000E-01   12.0110           0
      1161 MEMB     16       CHL1     H20      HAL1     0.900000E-01   1.00800           0
      1162 MEMB     16       CHL1     C21      CTL3    -0.270000       12.0110           0
      1163 MEMB     16       CHL1     H21A     HAL3     0.900000E-01   1.00800           0
      1164 MEMB     16       CHL1     H21B     HAL3     0.900000E-01   1.00800           0
      1165 MEMB     16       CHL1     H21C     HAL3     0.900000E-01   1.00800           0
      1166 MEMB     16       CHL1     C22      CTL2    -0.180000       12.0110           0
      1167 MEMB     16       CHL1     H22A     HAL2     0.900000E-01   1.00800           0
      1168 MEMB     16       CHL1     H22B     HAL2     0.900000E-01   1.00800           0
      1169 MEMB     16       CHL1     C23      CTL2    -0.180000       12.0110           0
      1170 MEMB     16       CHL1     H23A     HAL2     0.900000E-01   1.00800           0
      1171 MEMB     16       CHL1     H23B     HAL2     0.900000E-01   1.00800           0
      1172 MEMB     16       CHL1     C24      CTL2    -0.180000       12.0110           0
      1173 MEMB     16       CHL1     H24A     HAL2     0.900000E-01   1.00800           0
      1174 MEMB     16       CHL1     H24B     HAL2     0.900000E-01   1.00800           0
      1175 MEMB     16       CHL1     C25      CTL1    -0.900000E-01   12.0110           0
      1176 MEMB     16       CHL1     H25      HAL1     0.900000E-01   1.00800           0
      1177 MEMB     16       CHL1     C26      CTL3    -0.270000       12.0110           0
      1178 MEMB     16       CHL1     H26A     HAL3     0.900000E-01   1.00800           0
      1179 MEMB     16       CHL1     H26B     HAL3     0.900000E-01   1.00800           0
      1180 MEMB     16       CHL1     H26C     HAL3     0.900000E-01   1.00800           0
      1181 MEMB     16       CHL1     C27      CTL3    -0.270000       12.0110           0
      1182 MEMB     16       CHL1     H27A     HAL3     0.900000E-01   1.00800           0
      1183 MEMB     16       CHL1     H27B     HAL3     0.900000E-01   1.00800           0
      1184 MEMB     16       CHL1     H27C     HAL3     0.900000E-01   1.00800           0
      1185 MEMB     17       CHL1     C3       CRL1     0.140000       12.0110           0
      1186 MEMB     17       CHL1     H3       HGA1     0.900000E-01   1.00800           0
      1187 MEMB     17       CHL1     O3       OHL     -0.660000       15.9994           0
      1188 MEMB     17       CHL1     H3'      HOL      0.430000       1.00800           0
      1189 MEMB     17       CHL1     C4       CRL2    -0.180000       12.0110           0
      1190 MEMB     17       CHL1     H4A      HGA2     0.900000E-01   1.00800           0
      1191 MEMB     17       CHL1     H4B      HGA2     0.900000E-01   1.00800           0
      1192 MEMB     17       CHL1     C5       CEL1      0.00000       12.0110           0
      1193 MEMB     17       CHL1     C6       CEL1    -0.150000       12.0110           0
      1194 MEMB     17       CHL1     H6       HEL1     0.150000       1.00800           0
      1195 MEMB     17       CHL1     C7       CRL2    -0.180000       12.0110           0
      1196 MEMB     17       CHL1     H7A      HGA2     0.900000E-01   1.00800           0
      1197 MEMB     17       CHL1     H7B      HGA2     0.900000E-01   1.00800           0
      1198 MEMB     17       CHL1     C8       CRL1    -0.900000E-01   12.0110           0
      1199 MEMB     17       CHL1     H8       HGA1     0.900000E-01   1.00800           0
      1200 MEMB     17       CHL1     C14      CRL1    -0.900000E-01   12.0110           0
      1201 MEMB     17       CHL1     H14      HGA1     0.900000E-01   1.00800           0
      1202 MEMB     17       CHL1     C15      CRL2    -0.180000       12.0110           0
      1203 MEMB     17       CHL1     H15A     HGA2     0.900000E-01   1.00800           0
      1204 MEMB     17       CHL1     H15B     HGA2     0.900000E-01   1.00800           0
      1205 MEMB     17       CHL1     C16      CRL2    -0.180000       12.0110           0
      1206 MEMB     17       CHL1     H16A     HGA2     0.900000E-01   1.00800           0
      1207 MEMB     17       CHL1     H16B     HGA2     0.900000E-01   1.00800           0
      1208 MEMB     17       CHL1     C17      CRL1    -0.900000E-01   12.0110           0
      1209 MEMB     17       CHL1     H17      HGA1     0.900000E-01   1.00800           0
      1210 MEMB     17       CHL1     C13      CRL1      0.00000       12.0110           0
      1211 MEMB     17       CHL1     C18      CTL3    -0.270000       12.0110           0
      1212 MEMB     17       CHL1     H18A     HAL3     0.900000E-01   1.00800           0
      1213 MEMB     17       CHL1     H18B     HAL3     0.900000E-01   1.00800           0
      1214 MEMB     17       CHL1     H18C     HAL3     0.900000E-01   1.00800           0
      1215 MEMB     17       CHL1     C12      CRL2    -0.180000       12.0110           0
      1216 MEMB     17       CHL1     H12A     HGA2     0.900000E-01   1.00800           0
      1217 MEMB     17       CHL1     H12B     HGA2     0.900000E-01   1.00800           0
      1218 MEMB     17       CHL1     C11      CRL2    -0.180000       12.0110           0
      1219 MEMB     17       CHL1     H11A     HGA2     0.900000E-01   1.00800           0
      1220 MEMB     17       CHL1     H11B     HGA2     0.900000E-01   1.00800           0
      1221 MEMB     17       CHL1     C9       CRL1    -0.900000E-01   12.0110           0
      1222 MEMB     17       CHL1     H9       HGA1     0.900000E-01   1.00800           0
      1223 MEMB     17       CHL1     C10      CRL1      0.00000       12.0110           0
      1224 MEMB     17       CHL1     C19      CTL3    -0.270000       12.0110           0
      1225 MEMB     17       CHL1     H19A     HAL3     0.900000E-01   1.00800           0
      1226 MEMB     17       CHL1     H19B     HAL3     0.900000E-01   1.00800           0
      1227 MEMB     17       CHL1     H19C     HAL3     0.900000E-01   1.00800           0
      1228 MEMB     17       CHL1     C1       CRL2    -0.180000       12.0110           0
      1229 MEMB     17       CHL1     H1A      HGA2     0.900000E-01   1.00800           0
      1230 MEMB     17       CHL1     H1B      HGA2     0.900000E-01   1.00800           0
      1231 MEMB     17       CHL1     C2       CRL2    -0.180000       12.0110           0
      1232 MEMB     17       CHL1     H2A      HGA2     0.900000E-01   1.00800           0
      1233 MEMB     17       CHL1     H2B      HGA2     0.900000E-01   1.00800           0
      1234 MEMB     17       CHL1     C20      CTL1    -0.900000E-01   12.0110           0
      1235 MEMB     17       CHL1     H20      HAL1     0.900000E-01   1.00800           0
      1236 MEMB     17       CHL1     C21      CTL3    -0.270000       12.0110           0
      1237 MEMB     17       CHL1     H21A     HAL3     0.900000E-01   1.00800           0
      1238 MEMB     17       CHL1     H21B     HAL3     0.900000E-01   1.00800           0
      1239 MEMB     17       CHL1     H21C     HAL3     0.900000E-01   1.00800           0
      1240 MEMB     17       CHL1     C22      CTL2    -0.180000       12.0110           0
      1241 MEMB     17       CHL1     H22A     HAL2     0.900000E-01   1.00800           0
      1242 MEMB     17       CHL1     H22B     HAL2     0.900000E-01   1.00800           0
      1243 MEMB     17       CHL1     C23      CTL2    -0.180000       12.0110           0
      1244 MEMB     17       CHL1     H23A     HAL2     0.900000E-01   1.00800           0
      1245 MEMB     17       CHL1     H23B     HAL2     0.900000E-01   1.00800           0
      1246 MEMB     17       CHL1     C24      CTL2    -0.180000       12.0110           0
      1247 MEMB     17       CHL1     H24A     HAL2     0.900000E-01   1.00800           0
      1248 MEMB     17       CHL1     H24B     HAL2     0.900000E-01   1.00800           0
      1249 MEMB     17       CHL1     C25      CTL1    -0.900000E-01   12.0110           0
      1250 MEMB     17       CHL1     H25      HAL1     0.900000E-01   1.00800           0
      1251 MEMB     17       CHL1     C26      CTL3    -0.270000       12.0110           0
      1252 MEMB     17       CHL1     H26A     HAL3     0.900000E-01   1.00800           0
      1253 MEMB     17       CHL1     H26B     HAL3     0.900000E-01   1.00800           0
      1254 MEMB     17       CHL1     H26C     HAL3     0.900000E-01   1.00800           0
      1255 MEMB     17       CHL1     C27      CTL3    -0.270000       12.0110           0
      1256 MEMB     17       CHL1     H27A     HAL3     0.900000E-01   1.00800           0
      1257 MEMB     17       CHL1     H27B     HAL3     0.900000E-01   1.00800           0
      1258 MEMB     17       CHL1     H27C     HAL3     0.900000E-01   1.00800           0
      1259 MEMB     18       CHL1     C3       CRL1     0.140000       12.0110           0
      1260 MEMB     18       CHL1     H3       HGA1     0.900000E-01   1.00800           0
      1261 MEMB     18       CHL1     O3       OHL     -0.660000       15.9994           0
      1262 MEMB     18       CHL1     H3'      HOL      0.430000       1.00800           0
      1263 MEMB     18       CHL1     C4       CRL2    -0.180000       12.0110           0
      1264 MEMB     18       CHL1     H4A      HGA2     0.900000E-01   1.00800           0
      1265 MEMB     18       CHL1     H4B      HGA2     0.900000E-01   1.00800           0
      1266 MEMB     18       CHL1     C5       CEL1      0.00000       12.0110           0
      1267 MEMB     18       CHL1     C6       CEL1    -0.150000       12.0110           0
      1268 MEMB     18       CHL1     H6       HEL1     0.150000       1.00800           0
      1269 MEMB     18       CHL1     C7       CRL2    -0.180000       12.0110           0
      1270 MEMB     18       CHL1     H7A      HGA2     0.900000E-01   1.00800           0
      1271 MEMB     18       CHL1     H7B      HGA2     0.900000E-01   1.00800           0
      1272 MEMB     18       CHL1     C8       CRL1    -0.900000E-01   12.0110           0
      1273 MEMB     18       CHL1     H8       HGA1     0.900000E-01   1.00800           0
      1274 MEMB     18       CHL1     C14      CRL1    -0.900000E-01   12.0110           0
      1275 MEMB     18       CHL1     H14      HGA1     0.900000E-01   1.00800           0
      1276 MEMB     18       CHL1     C15      CRL2    -0.180000       12.0110           0
      1277 MEMB     18       CHL1     H15A     HGA2     0.900000E-01   1.00800           0
      1278 MEMB     18       CHL1     H15B     HGA2     0.900000E-01   1.00800           0
      1279 MEMB     18       CHL1     C16      CRL2    -0.180000       12.0110           0
      1280 MEMB     18       CHL1     H16A     HGA2     0.900000E-01   1.00800           0
      1281 MEMB     18       CHL1     H16B     HGA2     0.900000E-01   1.00800           0
      1282 MEMB     18       CHL1     C17      CRL1    -0.900000E-01   12.0110           0
      1283 MEMB     18       CHL1     H17      HGA1     0.900000E-01   1.00800           0
      1284 MEMB     18       CHL1     C13      CRL1      0.00000       12.0110           0
      1285 MEMB     18       CHL1     C18      CTL3    -0.270000       12.0110           0
      1286 MEMB     18       CHL1     H18A     HAL3     0.900000E-01   1.00800           0
      1287 MEMB     18       CHL1     H18B     HAL3     0.900000E-01   1.00800           0
      1288 MEMB     18       CHL1     H18C     HAL3     0.900000E-01   1.00800           0
      1289 MEMB     18       CHL1     C12      CRL2    -0.180000       12.0110           0
      1290 MEMB     18       CHL1     H12A     HGA2     0.900000E-01   1.00800           0
      1291 MEMB     18       CHL1     H12B     HGA2     0.900000E-01   1.00800           0
      1292 MEMB     18       CHL1     C11      CRL2    -0.180000       12.0110           0
      1293 MEMB     18       CHL1     H11A     HGA2     0.900000E-01   1.00800           0
      1294 MEMB     18       CHL1     H11B     HGA2     0.900000E-01   1.00800           0
      1295 MEMB     18       CHL1     C9       CRL1    -0.900000E-01   12.0110           0
      1296 MEMB     18       CHL1     H9       HGA1     0.900000E-01   1.00800           0
      1297 MEMB     18       CHL1     C10      CRL1      0.00000       12.0110           0
      1298 MEMB     18       CHL1     C19      CTL3    -0.270000       12.0110           0
      1299 MEMB     18       CHL1     H19A     HAL3     0.900000E-01   1.00800           0
      1300 MEMB     18       CHL1     H19B     HAL3     0.900000E-01   1.00800           0
      1301 MEMB     18       CHL1     H19C     HAL3     0.900000E-01   1.00800           0
      1302 MEMB     18       CHL1     C1       CRL2    -0.180000       12.0110           0
      1303 MEMB     18       CHL1     H1A      HGA2     0.900000E-01   1.00800           0
      1304 MEMB     18       CHL1     H1B      HGA2     0.900000E-01   1.00800           0
      1305 MEMB     18       CHL1     C2       CRL2    -0.180000       12.0110           0
      1306 MEMB     18       CHL1     H2A      HGA2     0.900000E-01   1.00800           0
      1307 MEMB     18       CHL1     H2B      HGA2     0.900000E-01   1.00800           0
      1308 MEMB     18       CHL1     C20      CTL1    -0.900000E-01   12.0110           0
      1309 MEMB     18       CHL1     H20      HAL1     0.900000E-01   1.00800           0
      1310 MEMB     18       CHL1     C21      CTL3    -0.270000       12.0110           0
      1311 MEMB     18       CHL1     H21A     HAL3     0.900000E-01   1.00800           0
      1312 MEMB     18       CHL1     H21B     HAL3     0.900000E-01   1.00800           0
      1313 MEMB     18       CHL1     H21C     HAL3     0.900000E-01   1.00800           0
      1314 MEMB     18       CHL1     C22      CTL2    -0.180000       12.0110           0
      1315 MEMB     18       CHL1     H22A     HAL2     0.900000E-01   1.00800           0
      1316 MEMB     18       CHL1     H22B     HAL2     0.900000E-01   1.00800           0
      1317 MEMB     18       CHL1     C23      CTL2    -0.180000       12.0110           0
      1318 MEMB     18       CHL1     H23A     HAL2     0.900000E-01   1.00800           0
      1319 MEMB     18       CHL1     H23B     HAL2     0.900000E-01   1.00800           0
      1320 MEMB     18       CHL1     C24      CTL2    -0.180000       12.0110           0
      1321 MEMB     18       CHL1     H24A     HAL2     0.900000E-01   1.00800           0
      1322 MEMB     18       CHL1     H24B     HAL2     0.900000E-01   1.00800           0
      1323 MEMB     18       CHL1     C25      CTL1    -0.900000E-01   12.0110           0
      1324 MEMB     18       CHL1     H25      HAL1     0.900000E-01   1.00800           0
      1325 MEMB     18       CHL1     C26      CTL3    -0.270000       12.0110           0
      1326 MEMB     18       CHL1     H26A     HAL3     0.900000E-01   1.00800           0
      1327 MEMB     18       CHL1     H26B     HAL3     0.900000E-01   1.00800           0
      1328 MEMB     18       CHL1     H26C     HAL3     0.900000E-01   1.00800           0
      1329 MEMB     18       CHL1     C27      CTL3    -0.270000       12.0110           0
      1330 MEMB     18       CHL1     H27A     HAL3     0.900000E-01   1.00800           0
      1331 MEMB     18       CHL1     H27B     HAL3     0.900000E-01   1.00800           0
      1332 MEMB     18       CHL1     H27C     HAL3     0.900000E-01   1.00800           0
      1333 MEMB     19       CHL1     C3       CRL1     0.140000       12.0110           0
      1334 MEMB     19       CHL1     H3       HGA1     0.900000E-01   1.00800           0
      1335 MEMB     19       CHL1     O3       OHL     -0.660000       15.9994           0
      1336 MEMB     19       CHL1     H3'      HOL      0.430000       1.00800           0
      1337 MEMB     19       CHL1     C4       CRL2    -0.180000       12.0110           0
      1338 MEMB     19       CHL1     H4A      HGA2     0.900000E-01   1.00800           0
      1339 MEMB     19       CHL1     H4B      HGA2     0.900000E-01   1.00800           0
      1340 MEMB     19       CHL1     C5       CEL1      0.00000       12.0110           0
      1341 MEMB     19       CHL1     C6       CEL1    -0.150000       12.0110           0
      1342 MEMB     19       CHL1     H6       HEL1     0.150000       1.00800           0
      1343 MEMB     19       CHL1     C7       CRL2    -0.180000       12.0110           0
      1344 MEMB     19       CHL1     H7A      HGA2     0.900000E-01   1.00800           0
      1345 MEMB     19       CHL1     H7B      HGA2     0.900000E-01   1.00800           0
      1346 MEMB     19       CHL1     C8       CRL1    -0.900000E-01   12.0110           0
      1347 MEMB     19       CHL1     H8       HGA1     0.900000E-01   1.00800           0
      1348 MEMB     19       CHL1     C14      CRL1    -0.900000E-01   12.0110           0
      1349 MEMB     19       CHL1     H14      HGA1     0.900000E-01   1.00800           0
      1350 MEMB     19       CHL1     C15      CRL2    -0.180000       12.0110           0
      1351 MEMB     19       CHL1     H15A     HGA2     0.900000E-01   1.00800           0
      1352 MEMB     19       CHL1     H15B     HGA2     0.900000E-01   1.00800           0
      1353 MEMB     19       CHL1     C16      CRL2    -0.180000       12.0110           0
      1354 MEMB     19       CHL1     H16A     HGA2     0.900000E-01   1.00800           0
      1355 MEMB     19       CHL1     H16B     HGA2     0.900000E-01   1.00800           0
      1356 MEMB     19       CHL1     C17      CRL1    -0.900000E-01   12.0110           0
      1357 MEMB     19       CHL1     H17      HGA1     0.900000E-01   1.00800           0
      1358 MEMB     19       CHL1     C13      CRL1      0.00000       12.0110           0
      1359 MEMB     19       CHL1     C18      CTL3    -0.270000       12.0110           0
      1360 MEMB     19       CHL1     H18A     HAL3     0.900000E-01   1.00800           0
      1361 MEMB     19       CHL1     H18B     HAL3     0.900000E-01   1.00800           0
      1362 MEMB     19       CHL1     H18C     HAL3     0.900000E-01   1.00800           0
      1363 MEMB     19       CHL1     C12      CRL2    -0.180000       12.0110           0
      1364 MEMB     19       CHL1     H12A     HGA2     0.900000E-01   1.00800           0
      1365 MEMB     19       CHL1     H12B     HGA2     0.900000E-01   1.00800           0
      1366 MEMB     19       CHL1     C11      CRL2    -0.180000       12.0110           0
      1367 MEMB     19       CHL1     H11A     HGA2     0.900000E-01   1.00800           0
      1368 MEMB     19       CHL1     H11B     HGA2     0.900000E-01   1.00800           0
      1369 MEMB     19       CHL1     C9       CRL1    -0.900000E-01   12.0110           0
      1370 MEMB     19       CHL1     H9       HGA1     0.900000E-01   1.00800           0
      1371 MEMB     19       CHL1     C10      CRL1      0.00000       12.0110           0
      1372 MEMB     19       CHL1     C19      CTL3    -0.270000       12.0110           0
      1373 MEMB     19       CHL1     H19A     HAL3     0.900000E-01   1.00800           0
      1374 MEMB     19       CHL1     H19B     HAL3     0.900000E-01   1.00800           0
      1375 MEMB     19       CHL1     H19C     HAL3     0.900000E-01   1.00800           0
      1376 MEMB     19       CHL1     C1       CRL2    -0.180000       12.0110           0
      1377 MEMB     19       CHL1     H1A      HGA2     0.900000E-01   1.00800           0
      1378 MEMB     19       CHL1     H1B      HGA2     0.900000E-01   1.00800           0
      1379 MEMB     19       CHL1     C2       CRL2    -0.180000       12.0110           0
      1380 MEMB     19       CHL1     H2A      HGA2     0.900000E-01   1.00800           0
      1381 MEMB     19       CHL1     H2B      HGA2     0.900000E-01   1.00800           0
      1382 MEMB     19       CHL1     C20      CTL1    -0.900000E-01   12.0110           0
      1383 MEMB     19       CHL1     H20      HAL1     0.900000E-01   1.00800           0
      1384 MEMB     19       CHL1     C21      CTL3    -0.270000       12.0110           0
      1385 MEMB     19       CHL1     H21A     HAL3     0.900000E-01   1.00800           0
      1386 MEMB     19       CHL1     H21B     HAL3     0.900000E-01   1.00800           0
      1387 MEMB     19       CHL1     H21C     HAL3     0.900000E-01   1.00800           0
      1388 MEMB     19       CHL1     C22      CTL2    -0.180000       12.0110           0
      1389 MEMB     19       CHL1     H22A     HAL2     0.900000E-01   1.00800           0
      1390 MEMB     19       CHL1     H22B     HAL2     0.900000E-01   1.00800           0
      1391 MEMB     19       CHL1     C23      CTL2    -0.180000       12.0110           0
      1392 MEMB     19       CHL1     H23A     HAL2     0.900000E-01   1.00800           0
      1393 MEMB     19       CHL1     H23B     HAL2     0.900000E-01   1.00800           0
      1394 MEMB     19       CHL1     C24      CTL2    -0.180000       12.0110           0
      1395 MEMB     19       CHL1     H24A     HAL2     0.900000E-01   1.00800           0
      1396 MEMB     19       CHL1     H24B     HAL2     0.900000E-01   1.00800           0
      1397 MEMB     19       CHL1     C25      CTL1    -0.900000E-01   12.0110           0
      1398 MEMB     19       CHL1     H25      HAL1     0.900000E-01   1.00800           0
      1399 MEMB     19       CHL1     C26      CTL3    -0.270000       12.0110           0
      1400 MEMB     19       CHL1     H26A     HAL3     0.900000E-01   1.00800           0
      1401 MEMB     19       CHL1     H26B     HAL3     0.900000E-01   1.00800           0
      1402 MEMB     19       CHL1     H26C     HAL3     0.900000E-01   1.00800           0
      1403 MEMB     19       CHL1     C27      CTL3    -0.270000       12.0110           0
      1404 MEMB     19       CHL1     H27A     HAL3     0.900000E-01   1.00800           0
      1405 MEMB     19       CHL1     H27B     HAL3     0.900000E-01   1.00800           0
      1406 MEMB     19       CHL1     H27C     HAL3     0.900000E-01   1.00800           0
      1407 MEMB     20       CHL1     C3       CRL1     0.140000       12.0110           0
      1408 MEMB     20       CHL1     H3       HGA1     0.900000E-01   1.00800           0
      1409 MEMB     20       CHL1     O3       OHL     -0.660000       15.9994           0
      1410 MEMB     20       CHL1     H3'      HOL      0.430000       1.00800           0
      1411 MEMB     20       CHL1     C4       CRL2    -0.180000       12.0110           0
      1412 MEMB     20       CHL1     H4A      HGA2     0.900000E-01   1.00800           0
      1413 MEMB     20       CHL1     H4B      HGA2     0.900000E-01   1.00800           0
      1414 MEMB     20       CHL1     C5       CEL1      0.00000       12.0110           0
      1415 MEMB     20       CHL1     C6       CEL1    -0.150000       12.0110           0
      1416 MEMB     20       CHL1     H6       HEL1     0.150000       1.00800           0
      1417 MEMB     20       CHL1     C7       CRL2    -0.180000       12.0110           0
      1418 MEMB     20       CHL1     H7A      HGA2     0.900000E-01   1.00800           0
      1419 MEMB     20       CHL1     H7B      HGA2     0.900000E-01   1.00800           0
      1420 MEMB     20       CHL1     C8       CRL1    -0.900000E-01   12.0110           0
      1421 MEMB     20       CHL1     H8       HGA1     0.900000E-01   1.00800           0
      1422 MEMB     20       CHL1     C14      CRL1    -0.900000E-01   12.0110           0
      1423 MEMB     20       CHL1     H14      HGA1     0.900000E-01   1.00800           0
      1424 MEMB     20       CHL1     C15      CRL2    -0.180000       12.0110           0
      1425 MEMB     20       CHL1     H15A     HGA2     0.900000E-01   1.00800           0
      1426 MEMB     20       CHL1     H15B     HGA2     0.900000E-01   1.00800           0
      1427 MEMB     20       CHL1     C16      CRL2    -0.180000       12.0110           0
      1428 MEMB     20       CHL1     H16A     HGA2     0.900000E-01   1.00800           0
      1429 MEMB     20       CHL1     H16B     HGA2     0.900000E-01   1.00800           0
      1430 MEMB     20       CHL1     C17      CRL1    -0.900000E-01   12.0110           0
      1431 MEMB     20       CHL1     H17      HGA1     0.900000E-01   1.00800           0
      1432 MEMB     20       CHL1     C13      CRL1      0.00000       12.0110           0
      1433 MEMB     20       CHL1     C18      CTL3    -0.270000       12.0110           0
      1434 MEMB     20       CHL1     H18A     HAL3     0.900000E-01   1.00800           0
      1435 MEMB     20       CHL1     H18B     HAL3     0.900000E-01   1.00800           0
      1436 MEMB     20       CHL1     H18C     HAL3     0.900000E-01   1.00800           0
      1437 MEMB     20       CHL1     C12      CRL2    -0.180000       12.0110           0
      1438 MEMB     20       CHL1     H12A     HGA2     0.900000E-01   1.00800           0
      1439 MEMB     20       CHL1     H12B     HGA2     0.900000E-01   1.00800           0
      1440 MEMB     20       CHL1     C11      CRL2    -0.180000       12.0110           0
      1441 MEMB     20       CHL1     H11A     HGA2     0.900000E-01   1.00800           0
      1442 MEMB     20       CHL1     H11B     HGA2     0.900000E-01   1.00800           0
      1443 MEMB     20       CHL1     C9       CRL1    -0.900000E-01   12.0110           0
      1444 MEMB     20       CHL1     H9       HGA1     0.900000E-01   1.00800           0
      1445 MEMB     20       CHL1     C10      CRL1      0.00000       12.0110           0
      1446 MEMB     20       CHL1     C19      CTL3    -0.270000       12.0110           0
      1447 MEMB     20       CHL1     H19A     HAL3     0.900000E-01   1.00800           0
      1448 MEMB     20       CHL1     H19B     HAL3     0.900000E-01   1.00800           0
      1449 MEMB     20       CHL1     H19C     HAL3     0.900000E-01   1.00800           0
      1450 MEMB     20       CHL1     C1       CRL2    -0.180000       12.0110           0
      1451 MEMB     20       CHL1     H1A      HGA2     0.900000E-01   1.00800           0
      1452 MEMB     20       CHL1     H1B      HGA2     0.900000E-01   1.00800           0
      1453 MEMB     20       CHL1     C2       CRL2    -0.180000       12.0110           0
      1454 MEMB     20       CHL1     H2A      HGA2     0.900000E-01   1.00800           0
      1455 MEMB     20       CHL1     H2B      HGA2     0.900000E-01   1.00800           0
      1456 MEMB     20       CHL1     C20      CTL1    -0.900000E-01   12.0110           0
      1457 MEMB     20       CHL1     H20      HAL1     0.900000E-01   1.00800           0
      1458 MEMB     20       CHL1     C21      CTL3    -0.270000       12.0110           0
      1459 MEMB     20       CHL1     H21A     HAL3     0.900000E-01   1.00800           0
      1460 MEMB     20       CHL1     H21B     HAL3     0.900000E-01   1.00800           0
      1461 MEMB     20       CHL1     H21C     HAL3     0.900000E-01   1.00800           0
      1462 MEMB     20       CHL1     C22      CTL2    -0.180000       12.0110           0
      1463 MEMB     20       CHL1     H22A     HAL2     0.900000E-01   1.00800           0
      1464 MEMB     20       CHL1     H22B     HAL2     0.900000E-01   1.00800           0
      1465 MEMB     20       CHL1     C23      CTL2    -0.180000       12.0110           0
      1466 MEMB     20       CHL1     H23A     HAL2     0.900000E-01   1.00800           0
      1467 MEMB     20       CHL1     H23B     HAL2     0.900000E-01   1.00800           0
      1468 MEMB     20       CHL1     C24      CTL2    -0.180000       12.0110           0
      1469 MEMB     20       CHL1     H24A     HAL2     0.900000E-01   1.00800           0
      1470 MEMB     20       CHL1     H24B     HAL2     0.900000E-01   1.00800           0
      1471 MEMB     20       CHL1     C25      CTL1    -0.900000E-01   12.0110           0
      1472 MEMB     20       CHL1     H25      HAL1     0.900000E-01   1.00800           0
      1473 MEMB     20       CHL1     C26      CTL3    -0.270000       12.0110           0
      1474 MEMB     20       CHL1     H26A     HAL3     0.900000E-01   1.00800           0
      1475 MEMB     20       CHL1     H26B     HAL3     0.900000E-01   1.00800           0
      1476 MEMB     20       CHL1     H26C     HAL3     0.900000E-01   1.00800           0
      1477 MEMB     20       CHL1     C27      CTL3    -0.270000       12.0110           0
      1478 MEMB     20       CHL1     H27A     HAL3     0.900000E-01   1.00800           0
      1479 MEMB     20       CHL1     H27B     HAL3     0.900000E-01   1.00800           0
      1480 MEMB     20       CHL1     H27C     HAL3     0.900000E-01   1.00800           0
      1481 MEMB     21       CHL1     C3       CRL1     0.140000       12.0110           0
      1482 MEMB     21       CHL1     H3       HGA1     0.900000E-01   1.00800           0
      1483 MEMB     21       CHL1     O3       OHL     -0.660000       15.9994           0
      1484 MEMB     21       CHL1     H3'      HOL      0.430000       1.00800           0
      1485 MEMB     21       CHL1     C4       CRL2    -0.180000       12.0110           0
      1486 MEMB     21       CHL1     H4A      HGA2     0.900000E-01   1.00800           0
      1487 MEMB     21       CHL1     H4B      HGA2     0.900000E-01   1.00800           0
      1488 MEMB     21       CHL1     C5       CEL1      0.00000       12.0110           0
      1489 MEMB     21       CHL1     C6       CEL1    -0.150000       12.0110           0
      1490 MEMB     21       CHL1     H6       HEL1     0.150000       1.00800           0
      1491 MEMB     21       CHL1     C7       CRL2    -0.180000       12.0110           0
      1492 MEMB     21       CHL1     H7A      HGA2     0.900000E-01   1.00800           0
      1493 MEMB     21       CHL1     H7B      HGA2     0.900000E-01   1.00800           0
      1494 MEMB     21       CHL1     C8       CRL1    -0.900000E-01   12.0110           0
      1495 MEMB     21       CHL1     H8       HGA1     0.900000E-01   1.00800           0
      1496 MEMB     21       CHL1     C14      CRL1    -0.900000E-01   12.0110           0
      1497 MEMB     21       CHL1     H14      HGA1     0.900000E-01   1.00800           0
      1498 MEMB     21       CHL1     C15      CRL2    -0.180000       12.0110           0
      1499 MEMB     21       CHL1     H15A     HGA2     0.900000E-01   1.00800           0
      1500 MEMB     21       CHL1     H15B     HGA2     0.900000E-01   1.00800           0
      1501 MEMB     21       CHL1     C16      CRL2    -0.180000       12.0110           0
      1502 MEMB     21       CHL1     H16A     HGA2     0.900000E-01   1.00800           0
      1503 MEMB     21       CHL1     H16B     HGA2     0.900000E-01   1.00800           0
      1504 MEMB     21       CHL1     C17      CRL1    -0.900000E-01   12.0110           0
      1505 MEMB     21       CHL1     H17      HGA1     0.900000E-01   1.00800           0
      1506 MEMB     21       CHL1     C13      CRL1      0.00000       12.0110           0
      1507 MEMB     21       CHL1     C18      CTL3    -0.270000       12.0110           0
      1508 MEMB     21       CHL1     H18A     HAL3     0.900000E-01   1.00800           0
      1509 MEMB     21       CHL1     H18B     HAL3     0.900000E-01   1.00800           0
      1510 MEMB     21       CHL1     H18C     HAL3     0.900000E-01   1.00800           0
      1511 MEMB     21       CHL1     C12      CRL2    -0.180000       12.0110           0
      1512 MEMB     21       CHL1     H12A     HGA2     0.900000E-01   1.00800           0
      1513 MEMB     21       CHL1     H12B     HGA2     0.900000E-01   1.00800           0
      1514 MEMB     21       CHL1     C11      CRL2    -0.180000       12.0110           0
      1515 MEMB     21       CHL1     H11A     HGA2     0.900000E-01   1.00800           0
      1516 MEMB     21       CHL1     H11B     HGA2     0.900000E-01   1.00800           0
      1517 MEMB     21       CHL1     C9       CRL1    -0.900000E-01   12.0110           0
      1518 MEMB     21       CHL1     H9       HGA1     0.900000E-01   1.00800           0
      1519 MEMB     21       CHL1     C10      CRL1      0.00000       12.0110           0
      1520 MEMB     21       CHL1     C19      CTL3    -0.270000       12.0110           0
      1521 MEMB     21       CHL1     H19A     HAL3     0.900000E-01   1.00800           0
      1522 MEMB     21       CHL1     H19B     HAL3     0.900000E-01   1.00800           0
      1523 MEMB     21       CHL1     H19C     HAL3     0.900000E-01   1.00800           0
      1524 MEMB     21       CHL1     C1       CRL2    -0.180000       12.0110           0
      1525 MEMB     21       CHL1     H1A      HGA2     0.900000E-01   1.00800           0
      1526 MEMB     21       CHL1     H1B      HGA2     0.900000E-01   1.00800           0
      1527 MEMB     21       CHL1     C2       CRL2    -0.180000       12.0110           0
      1528 MEMB     21       CHL1     H2A      HGA2     0.900000E-01   1.00800           0
      1529 MEMB     21       CHL1     H2B      HGA2     0.900000E-01   1.00800           0
      1530 MEMB     21       CHL1     C20      CTL1    -0.900000E-01   12.0110           0
      1531 MEMB     21       CHL1     H20      HAL1     0.900000E-01   1.00800           0
      1532 MEMB     21       CHL1     C21      CTL3    -0.270000       12.0110           0
      1533 MEMB     21       CHL1     H21A     HAL3     0.900000E-01   1.00800           0
      1534 MEMB     21       CHL1     H21B     HAL3     0.900000E-01   1.00800           0
      1535 MEMB     21       CHL1     H21C     HAL3     0.900000E-01   1.00800           0
      1536 MEMB     21       CHL1     C22      CTL2    -0.180000       12.0110           0
      1537 MEMB     21       CHL1     H22A     HAL2     0.900000E-01   1.00800           0
      1538 MEMB     21       CHL1     H22B     HAL2     0.900000E-01   1.00800           0
      1539 MEMB     21       CHL1     C23      CTL2    -0.180000       12.0110           0
      1540 MEMB     21       CHL1     H23A     HAL2     0.900000E-01   1.00800           0
      1541 MEMB     21       CHL1     H23B     HAL2     0.900000E-01   1.00800           0
      1542 MEMB     21       CHL1     C24      CTL2    -0.180000       12.0110           0
      1543 MEMB     21       CHL1     H24A     HAL2     0.900000E-01   1.00800           0
      1544 MEMB     21       CHL1     H24B     HAL2     0.900000E-01   1.00800           0
      1545 MEMB     21       CHL1     C25      CTL1    -0.900000E-01   12.0110           0
      1546 MEMB     21       CHL1     H25      HAL1     0.900000E-01   1.00800           0
      1547 MEMB     21       CHL1     C26      CTL3    -0.270000       12.0110           0
      1548 MEMB     21       CHL1     H26A     HAL3     0.900000E-01   1.00800           0
      1549 MEMB     21       CHL1     H26B     HAL3     0.900000E-01   1.00800           0
      1550 MEMB     21       CHL1     H26C     HAL3     0.900000E-01   1.00800           0
      1551 MEMB     21       CHL1     C27      CTL3    -0.270000       12.0110           0
      1552 MEMB     21       CHL1     H27A     HAL3     0.900000E-01   1.00800           0
      1553 MEMB     21       CHL1     H27B     HAL3     0.900000E-01   1.00800           0
      1554 MEMB     21       CHL1     H27C     HAL3     0.900000E-01   1.00800           0
      1555 MEMB     22       CHL1     C3       CRL1     0.140000       12.0110           0
      1556 MEMB     22       CHL1     H3       HGA1     0.900000E-01   1.00800           0
      1557 MEMB     22       CHL1     O3       OHL     -0.660000       15.9994           0
      1558 MEMB     22       CHL1     H3'      HOL      0.430000       1.00800           0
      1559 MEMB     22       CHL1     C4       CRL2    -0.180000       12.0110           0
      1560 MEMB     22       CHL1     H4A      HGA2     0.900000E-01   1.00800           0
      1561 MEMB     22       CHL1     H4B      HGA2     0.900000E-01   1.00800           0
      1562 MEMB     22       CHL1     C5       CEL1      0.00000       12.0110           0
      1563 MEMB     22       CHL1     C6       CEL1    -0.150000       12.0110           0
      1564 MEMB     22       CHL1     H6       HEL1     0.150000       1.00800           0
      1565 MEMB     22       CHL1     C7       CRL2    -0.180000       12.0110           0
      1566 MEMB     22       CHL1     H7A      HGA2     0.900000E-01   1.00800           0
      1567 MEMB     22       CHL1     H7B      HGA2     0.900000E-01   1.00800           0
      1568 MEMB     22       CHL1     C8       CRL1    -0.900000E-01   12.0110           0
      1569 MEMB     22       CHL1     H8       HGA1     0.900000E-01   1.00800           0
      1570 MEMB     22       CHL1     C14      CRL1    -0.900000E-01   12.0110           0
      1571 MEMB     22       CHL1     H14      HGA1     0.900000E-01   1.00800           0
      1572 MEMB     22       CHL1     C15      CRL2    -0.180000       12.0110           0
      1573 MEMB     22       CHL1     H15A     HGA2     0.900000E-01   1.00800           0
      1574 MEMB     22       CHL1     H15B     HGA2     0.900000E-01   1.00800           0
      1575 MEMB     22       CHL1     C16      CRL2    -0.180000       12.0110           0
      1576 MEMB     22       CHL1     H16A     HGA2     0.900000E-01   1.00800           0
      1577 MEMB     22       CHL1     H16B     HGA2     0.900000E-01   1.00800           0
      1578 MEMB     22       CHL1     C17      CRL1    -0.900000E-01   12.0110           0
      1579 MEMB     22       CHL1     H17      HGA1     0.900000E-01   1.00800           0
      1580 MEMB     22       CHL1     C13      CRL1      0.00000       12.0110           0
      1581 MEMB     22       CHL1     C18      CTL3    -0.270000       12.0110           0
      1582 MEMB     22       CHL1     H18A     HAL3     0.900000E-01   1.00800           0
      1583 MEMB     22       CHL1     H18B     HAL3     0.900000E-01   1.00800           0
      1584 MEMB     22       CHL1     H18C     HAL3     0.900000E-01   1.00800           0
      1585 MEMB     22       CHL1     C12      CRL2    -0.180000       12.0110           0
      1586 MEMB     22       CHL1     H12A     HGA2     0.900000E-01   1.00800           0
      1587 MEMB     22       CHL1     H12B     HGA2     0.900000E-01   1.00800           0
      1588 MEMB     22       CHL1     C11      CRL2    -0.180000       12.0110           0
      1589 MEMB     22       CHL1     H11A     HGA2     0.900000E-01   1.00800           0
      1590 MEMB     22       CHL1     H11B     HGA2     0.900000E-01   1.00800           0
      1591 MEMB     22       CHL1     C9       CRL1    -0.900000E-01   12.0110           0
      1592 MEMB     22       CHL1     H9       HGA1     0.900000E-01   1.00800           0
      1593 MEMB     22       CHL1     C10      CRL1      0.00000       12.0110           0
      1594 MEMB     22       CHL1     C19      CTL3    -0.270000       12.0110           0
      1595 MEMB     22       CHL1     H19A     HAL3     0.900000E-01   1.00800           0
      1596 MEMB     22       CHL1     H19B     HAL3     0.900000E-01   1.00800           0
      1597 MEMB     22       CHL1     H19C     HAL3     0.900000E-01   1.00800           0
      1598 MEMB     22       CHL1     C1       CRL2    -0.180000       12.0110           0
      1599 MEMB     22       CHL1     H1A      HGA2     0.900000E-01   1.00800           0
      1600 MEMB     22       CHL1     H1B      HGA2     0.900000E-01   1.00800           0
      1601 MEMB     22       CHL1     C2       CRL2    -0.180000       12.0110           0
      1602 MEMB     22       CHL1     H2A      HGA2     0.900000E-01   1.00800           0
      1603 MEMB     22       CHL1     H2B      HGA2     0.900000E-01   1.00800           0
      1604 MEMB     22       CHL1     C20      CTL1    -0.900000E-01   12.0110           0
      1605 MEMB     22       CHL1     H20      HAL1     0.900000E-01   1.00800           0
      1606 MEMB     22       CHL1     C21      CTL3    -0.270000       12.0110           0
      1607 MEMB     22       CHL1     H21A     HAL3     0.900000E-01   1.00800           0
      1608 MEMB     22       CHL1     H21B     HAL3     0.900000E-01   1.00800           0
      1609 MEMB     22       CHL1     H21C     HAL3     0.900000E-01   1.00800           0
      1610 MEMB     22       CHL1     C22      CTL2    -0.180000       12.0110           0
      1611 MEMB     22       CHL1     H22A     HAL2     0.900000E-01   1.00800           0
      1612 MEMB     22       CHL1     H22B     HAL2     0.900000E-01   1.00800           0
      1613 MEMB     22       CHL1     C23      CTL2    -0.180000       12.0110           0
      1614 MEMB     22       CHL1     H23A     HAL2     0.900000E-01   1.00800           0
      1615 MEMB     22       CHL1     H23B     HAL2     0.900000E-01   1.00800           0
      1616 MEMB     22       CHL1     C24      CTL2    -0.180000       12.0110           0
      1617 MEMB     22       CHL1     H24A     HAL2     0.900000E-01   1.00800           0
      1618 MEMB     22       CHL1     H24B     HAL2     0.900000E-01   1.00800           0
      1619 MEMB     22       CHL1     C25      CTL1    -0.900000E-01   12.0110           0
      1620 MEMB     22       CHL1     H25      HAL1     0.900000E-01   1.00800           0
      1621 MEMB     22       CHL1     C26      CTL3    -0.270000       12.0110           0
      1622 MEMB     22       CHL1     H26A     HAL3     0.900000E-01   1.00800           0
      1623 MEMB     22       CHL1     H26B     HAL3     0.900000E-01   1.00800           0
      1624 MEMB     22       CHL1     H26C     HAL3     0.900000E-01   1.00800           0
      1625 MEMB     22       CHL1     C27      CTL3    -0.270000       12.0110           0
      1626 MEMB     22       CHL1     H27A     HAL3     0.900000E-01   1.00800           0
      1627 MEMB     22       CHL1     H27B     HAL3     0.900000E-01   1.00800           0
      1628 MEMB     22       CHL1     H27C     HAL3     0.900000E-01   1.00800           0
      1629 MEMB     23       CHL1     C3       CRL1     0.140000       12.0110           0
      1630 MEMB     23       CHL1     H3       HGA1     0.900000E-01   1.00800           0
      1631 MEMB     23       CHL1     O3       OHL     -0.660000       15.9994           0
      1632 MEMB     23       CHL1     H3'      HOL      0.430000       1.00800           0
      1633 MEMB     23       CHL1     C4       CRL2    -0.180000       12.0110           0
      1634 MEMB     23       CHL1     H4A      HGA2     0.900000E-01   1.00800           0
      1635 MEMB     23       CHL1     H4B      HGA2     0.900000E-01   1.00800           0
      1636 MEMB     23       CHL1     C5       CEL1      0.00000       12.0110           0
      1637 MEMB     23       CHL1     C6       CEL1    -0.150000       12.0110           0
      1638 MEMB     23       CHL1     H6       HEL1     0.150000       1.00800           0
      1639 MEMB     23       CHL1     C7       CRL2    -0.180000       12.0110           0
      1640 MEMB     23       CHL1     H7A      HGA2     0.900000E-01   1.00800           0
      1641 MEMB     23       CHL1     H7B      HGA2     0.900000E-01   1.00800           0
      1642 MEMB     23       CHL1     C8       CRL1    -0.900000E-01   12.0110           0
      1643 MEMB     23       CHL1     H8       HGA1     0.900000E-01   1.00800           0
      1644 MEMB     23       CHL1     C14      CRL1    -0.900000E-01   12.0110           0
      1645 MEMB     23       CHL1     H14      HGA1     0.900000E-01   1.00800           0
      1646 MEMB     23       CHL1     C15      CRL2    -0.180000       12.0110           0
      1647 MEMB     23       CHL1     H15A     HGA2     0.900000E-01   1.00800           0
      1648 MEMB     23       CHL1     H15B     HGA2     0.900000E-01   1.00800           0
      1649 MEMB     23       CHL1     C16      CRL2    -0.180000       12.0110           0
      1650 MEMB     23       CHL1     H16A     HGA2     0.900000E-01   1.00800           0
      1651 MEMB     23       CHL1     H16B     HGA2     0.900000E-01   1.00800           0
      1652 MEMB     23       CHL1     C17      CRL1    -0.900000E-01   12.0110           0
      1653 MEMB     23       CHL1     H17      HGA1     0.900000E-01   1.00800           0
      1654 MEMB     23       CHL1     C13      CRL1      0.00000       12.0110           0
      1655 MEMB     23       CHL1     C18      CTL3    -0.270000       12.0110           0
      1656 MEMB     23       CHL1     H18A     HAL3     0.900000E-01   1.00800           0
      1657 MEMB     23       CHL1     H18B     HAL3     0.900000E-01   1.00800           0
      1658 MEMB     23       CHL1     H18C     HAL3     0.900000E-01   1.00800           0
      1659 MEMB     23       CHL1     C12      CRL2    -0.180000       12.0110           0
      1660 MEMB     23       CHL1     H12A     HGA2     0.900000E-01   1.00800           0
      1661 MEMB     23       CHL1     H12B     HGA2     0.900000E-01   1.00800           0
      1662 MEMB     23       CHL1     C11      CRL2    -0.180000       12.0110           0
      1663 MEMB     23       CHL1     H11A     HGA2     0.900000E-01   1.00800           0
      1664 MEMB     23       CHL1     H11B     HGA2     0.900000E-01   1.00800           0
      1665 MEMB     23       CHL1     C9       CRL1    -0.900000E-01   12.0110           0
      1666 MEMB     23       CHL1     H9       HGA1     0.900000E-01   1.00800           0
      1667 MEMB     23       CHL1     C10      CRL1      0.00000       12.0110           0
      1668 MEMB     23       CHL1     C19      CTL3    -0.270000       12.0110           0
      1669 MEMB     23       CHL1     H19A     HAL3     0.900000E-01   1.00800           0
      1670 MEMB     23       CHL1     H19B     HAL3     0.900000E-01   1.00800           0
      1671 MEMB     23       CHL1     H19C     HAL3     0.900000E-01   1.00800           0
      1672 MEMB     23       CHL1     C1       CRL2    -0.180000       12.0110           0
      1673 MEMB     23       CHL1     H1A      HGA2     0.900000E-01   1.00800           0
      1674 MEMB     23       CHL1     H1B      HGA2     0.900000E-01   1.00800           0
      1675 MEMB     23       CHL1     C2       CRL2    -0.180000       12.0110           0
      1676 MEMB     23       CHL1     H2A      HGA2     0.900000E-01   1.00800           0
      1677 MEMB     23       CHL1     H2B      HGA2     0.900000E-01   1.00800           0
      1678 MEMB     23       CHL1     C20      CTL1    -0.900000E-01   12.0110           0
      1679 MEMB     23       CHL1     H20      HAL1     0.900000E-01   1.00800           0
      1680 MEMB     23       CHL1     C21      CTL3    -0.270000       12.0110           0
      1681 MEMB     23       CHL1     H21A     HAL3     0.900000E-01   1.00800           0
      1682 MEMB     23       CHL1     H21B     HAL3     0.900000E-01   1.00800           0
      1683 MEMB     23       CHL1     H21C     HAL3     0.900000E-01   1.00800           0
      1684 MEMB     23       CHL1     C22      CTL2    -0.180000       12.0110           0
      1685 MEMB     23       CHL1     H22A     HAL2     0.900000E-01   1.00800           0
      1686 MEMB     23       CHL1     H22B     HAL2     0.900000E-01   1.00800           0
      1687 MEMB     23       CHL1     C23      CTL2    -0.180000       12.0110           0
      1688 MEMB     23       CHL1     H23A     HAL2     0.900000E-01   1.00800           0
      1689 MEMB     23       CHL1     H23B     HAL2     0.900000E-01   1.00800           0
      1690 MEMB     23       CHL1     C24      CTL2    -0.180000       12.0110           0
      1691 MEMB     23       CHL1     H24A     HAL2     0.900000E-01   1.00800           0
      1692 MEMB     23       CHL1     H24B     HAL2     0.900000E-01   1.00800           0
      1693 MEMB     23       CHL1     C25      CTL1    -0.900000E-01   12.0110           0
      1694 MEMB     23       CHL1     H25      HAL1     0.900000E-01   1.00800           0
      1695 MEMB     23       CHL1     C26      CTL3    -0.270000       12.0110           0
      1696 MEMB     23       CHL1     H26A     HAL3     0.900000E-01   1.00800           0
      1697 MEMB     23       CHL1     H26B     HAL3     0.900000E-01   1.00800           0
      1698 MEMB     23       CHL1     H26C     HAL3     0.900000E-01   1.00800           0
      1699 MEMB     23       CHL1     C27      CTL3    -0.270000       12.0110           0
      1700 MEMB     23       CHL1     H27A     HAL3     0.900000E-01   1.00800           0
      1701 MEMB     23       CHL1     H27B     HAL3     0.900000E-01   1.00800           0
      1702 MEMB     23       CHL1     H27C     HAL3     0.900000E-01   1.00800           0
      1703 MEMB     24       CHL1     C3       CRL1     0.140000       12.0110           0
      1704 MEMB     24       CHL1     H3       HGA1     0.900000E-01   1.00800           0
      1705 MEMB     24       CHL1     O3       OHL     -0.660000       15.9994           0
      1706 MEMB     24       CHL1     H3'      HOL      0.430000       1.00800           0
      1707 MEMB     24       CHL1     C4       CRL2    -0.180000       12.0110           0
      1708 MEMB     24       CHL1     H4A      HGA2     0.900000E-01   1.00800           0
      1709 MEMB     24       CHL1     H4B      HGA2     0.900000E-01   1.00800           0
      1710 MEMB     24       CHL1     C5       CEL1      0.00000       12.0110           0
      1711 MEMB     24       CHL1     C6       CEL1    -0.150000       12.0110           0
      1712 MEMB     24       CHL1     H6       HEL1     0.150000       1.00800           0
      1713 MEMB     24       CHL1     C7       CRL2    -0.180000       12.0110           0
      1714 MEMB     24       CHL1     H7A      HGA2     0.900000E-01   1.00800           0
      1715 MEMB     24       CHL1     H7B      HGA2     0.900000E-01   1.00800           0
      1716 MEMB     24       CHL1     C8       CRL1    -0.900000E-01   12.0110           0
      1717 MEMB     24       CHL1     H8       HGA1     0.900000E-01   1.00800           0
      1718 MEMB     24       CHL1     C14      CRL1    -0.900000E-01   12.0110           0
      1719 MEMB     24       CHL1     H14      HGA1     0.900000E-01   1.00800           0
      1720 MEMB     24       CHL1     C15      CRL2    -0.180000       12.0110           0
      1721 MEMB     24       CHL1     H15A     HGA2     0.900000E-01   1.00800           0
      1722 MEMB     24       CHL1     H15B     HGA2     0.900000E-01   1.00800           0
      1723 MEMB     24       CHL1     C16      CRL2    -0.180000       12.0110           0
      1724 MEMB     24       CHL1     H16A     HGA2     0.900000E-01   1.00800           0
      1725 MEMB     24       CHL1     H16B     HGA2     0.900000E-01   1.00800           0
      1726 MEMB     24       CHL1     C17      CRL1    -0.900000E-01   12.0110           0
      1727 MEMB     24       CHL1     H17      HGA1     0.900000E-01   1.00800           0
      1728 MEMB     24       CHL1     C13      CRL1      0.00000       12.0110           0
      1729 MEMB     24       CHL1     C18      CTL3    -0.270000       12.0110           0
      1730 MEMB     24       CHL1     H18A     HAL3     0.900000E-01   1.00800           0
      1731 MEMB     24       CHL1     H18B     HAL3     0.900000E-01   1.00800           0
      1732 MEMB     24       CHL1     H18C     HAL3     0.900000E-01   1.00800           0
      1733 MEMB     24       CHL1     C12      CRL2    -0.180000       12.0110           0
      1734 MEMB     24       CHL1     H12A     HGA2     0.900000E-01   1.00800           0
      1735 MEMB     24       CHL1     H12B     HGA2     0.900000E-01   1.00800           0
      1736 MEMB     24       CHL1     C11      CRL2    -0.180000       12.0110           0
      1737 MEMB     24       CHL1     H11A     HGA2     0.900000E-01   1.00800           0
      1738 MEMB     24       CHL1     H11B     HGA2     0.900000E-01   1.00800           0
      1739 MEMB     24       CHL1     C9       CRL1    -0.900000E-01   12.0110           0
      1740 MEMB     24       CHL1     H9       HGA1     0.900000E-01   1.00800           0
      1741 MEMB     24       CHL1     C10      CRL1      0.00000       12.0110           0
      1742 MEMB     24       CHL1     C19      CTL3    -0.270000       12.0110           0
      1743 MEMB     24       CHL1     H19A     HAL3     0.900000E-01   1.00800           0
      1744 MEMB     24       CHL1     H19B     HAL3     0.900000E-01   1.00800           0
      1745 MEMB     24       CHL1     H19C     HAL3     0.900000E-01   1.00800           0
      1746 MEMB     24       CHL1     C1       CRL2    -0.180000       12.0110           0
      1747 MEMB     24       CHL1     H1A      HGA2     0.900000E-01   1.00800           0
      1748 MEMB     24       CHL1     H1B      HGA2     0.900000E-01   1.00800           0
      1749 MEMB     24       CHL1     C2       CRL2    -0.180000       12.0110           0
      1750 MEMB     24       CHL1     H2A      HGA2     0.900000E-01   1.00800           0
      1751 MEMB     24       CHL1     H2B      HGA2     0.900000E-01   1.00800           0
      1752 MEMB     24       CHL1     C20      CTL1    -0.900000E-01   12.0110           0
      1753 MEMB     24       CHL1     H20      HAL1     0.900000E-01   1.00800           0
      1754 MEMB     24       CHL1     C21      CTL3    -0.270000       12.0110           0
      1755 MEMB     24       CHL1     H21A     HAL3     0.900000E-01   1.00800           0
      1756 MEMB     24       CHL1     H21B     HAL3     0.900000E-01   1.00800           0
      1757 MEMB     24       CHL1     H21C     HAL3     0.900000E-01   1.00800           0
      1758 MEMB     24       CHL1     C22      CTL2    -0.180000       12.0110           0
      1759 MEMB     24       CHL1     H22A     HAL2     0.900000E-01   1.00800           0
      1760 MEMB     24       CHL1     H22B     HAL2     0.900000E-01   1.00800           0
      1761 MEMB     24       CHL1     C23      CTL2    -0.180000       12.0110           0
      1762 MEMB     24       CHL1     H23A     HAL2     0.900000E-01   1.00800           0
      1763 MEMB     24       CHL1     H23B     HAL2     0.900000E-01   1.00800           0
      1764 MEMB     24       CHL1     C24      CTL2    -0.180000       12.0110           0
      1765 MEMB     24       CHL1     H24A     HAL2     0.900000E-01   1.00800           0
      1766 MEMB     24       CHL1     H24B     HAL2     0.900000E-01   1.00800           0
      1767 MEMB     24       CHL1     C25      CTL1    -0.900000E-01   12.0110           0
      1768 MEMB     24       CHL1     H25      HAL1     0.900000E-01   1.00800           0
      1769 MEMB     24       CHL1     C26      CTL3    -0.270000       12.0110           0
      1770 MEMB     24       CHL1     H26A     HAL3     0.900000E-01   1.00800           0
      1771 MEMB     24       CHL1     H26B     HAL3     0.900000E-01   1.00800           0
      1772 MEMB     24       CHL1     H26C     HAL3     0.900000E-01   1.00800           0
      1773 MEMB     24       CHL1     C27      CTL3    -0.270000       12.0110           0
      1774 MEMB     24       CHL1     H27A     HAL3     0.900000E-01   1.00800           0
      1775 MEMB     24       CHL1     H27B     HAL3     0.900000E-01   1.00800           0
      1776 MEMB     24       CHL1     H27C     HAL3     0.900000E-01   1.00800           0
      1777 MEMB     25       CHL1     C3       CRL1     0.140000       12.0110           0
      1778 MEMB     25       CHL1     H3       HGA1     0.900000E-01   1.00800           0
      1779 MEMB     25       CHL1     O3       OHL     -0.660000       15.9994           0
      1780 MEMB     25       CHL1     H3'      HOL      0.430000       1.00800           0
      1781 MEMB     25       CHL1     C4       CRL2    -0.180000       12.0110           0
      1782 MEMB     25       CHL1     H4A      HGA2     0.900000E-01   1.00800           0
      1783 MEMB     25       CHL1     H4B      HGA2     0.900000E-01   1.00800           0
      1784 MEMB     25       CHL1     C5       CEL1      0.00000       12.0110           0
      1785 MEMB     25       CHL1     C6       CEL1    -0.150000       12.0110           0
      1786 MEMB     25       CHL1     H6       HEL1     0.150000       1.00800           0
      1787 MEMB     25       CHL1     C7       CRL2    -0.180000       12.0110           0
      1788 MEMB     25       CHL1     H7A      HGA2     0.900000E-01   1.00800           0
      1789 MEMB     25       CHL1     H7B      HGA2     0.900000E-01   1.00800           0
      1790 MEMB     25       CHL1     C8       CRL1    -0.900000E-01   12.0110           0
      1791 MEMB     25       CHL1     H8       HGA1     0.900000E-01   1.00800           0
      1792 MEMB     25       CHL1     C14      CRL1    -0.900000E-01   12.0110           0
      1793 MEMB     25       CHL1     H14      HGA1     0.900000E-01   1.00800           0
      1794 MEMB     25       CHL1     C15      CRL2    -0.180000       12.0110           0
      1795 MEMB     25       CHL1     H15A     HGA2     0.900000E-01   1.00800           0
      1796 MEMB     25       CHL1     H15B     HGA2     0.900000E-01   1.00800           0
      1797 MEMB     25       CHL1     C16      CRL2    -0.180000       12.0110           0
      1798 MEMB     25       CHL1     H16A     HGA2     0.900000E-01   1.00800           0
      1799 MEMB     25       CHL1     H16B     HGA2     0.900000E-01   1.00800           0
      1800 MEMB     25       CHL1     C17      CRL1    -0.900000E-01   12.0110           0
      1801 MEMB     25       CHL1     H17      HGA1     0.900000E-01   1.00800           0
      1802 MEMB     25       CHL1     C13      CRL1      0.00000       12.0110           0
      1803 MEMB     25       CHL1     C18      CTL3    -0.270000       12.0110           0
      1804 MEMB     25       CHL1     H18A     HAL3     0.900000E-01   1.00800           0
      1805 MEMB     25       CHL1     H18B     HAL3     0.900000E-01   1.00800           0
      1806 MEMB     25       CHL1     H18C     HAL3     0.900000E-01   1.00800           0
      1807 MEMB     25       CHL1     C12      CRL2    -0.180000       12.0110           0
      1808 MEMB     25       CHL1     H12A     HGA2     0.900000E-01   1.00800           0
      1809 MEMB     25       CHL1     H12B     HGA2     0.900000E-01   1.00800           0
      1810 MEMB     25       CHL1     C11      CRL2    -0.180000       12.0110           0
      1811 MEMB     25       CHL1     H11A     HGA2     0.900000E-01   1.00800           0
      1812 MEMB     25       CHL1     H11B     HGA2     0.900000E-01   1.00800           0
      1813 MEMB     25       CHL1     C9       CRL1    -0.900000E-01   12.0110           0
      1814 MEMB     25       CHL1     H9       HGA1     0.900000E-01   1.00800           0
      1815 MEMB     25       CHL1     C10      CRL1      0.00000       12.0110           0
      1816 MEMB     25       CHL1     C19      CTL3    -0.270000       12.0110           0
      1817 MEMB     25       CHL1     H19A     HAL3     0.900000E-01   1.00800           0
      1818 MEMB     25       CHL1     H19B     HAL3     0.900000E-01   1.00800           0
      1819 MEMB     25       CHL1     H19C     HAL3     0.900000E-01   1.00800           0
      1820 MEMB     25       CHL1     C1       CRL2    -0.180000       12.0110           0
      1821 MEMB     25       CHL1     H1A      HGA2     0.900000E-01   1.00800           0
      1822 MEMB     25       CHL1     H1B      HGA2     0.900000E-01   1.00800           0
      1823 MEMB     25       CHL1     C2       CRL2    -0.180000       12.0110           0
      1824 MEMB     25       CHL1     H2A      HGA2     0.900000E-01   1.00800           0
      1825 MEMB     25       CHL1     H2B      HGA2     0.900000E-01   1.00800           0
      1826 MEMB     25       CHL1     C20      CTL1    -0.900000E-01   12.0110           0
      1827 MEMB     25       CHL1     H20      HAL1     0.900000E-01   1.00800           0
      1828 MEMB     25       CHL1     C21      CTL3    -0.270000       12.0110           0
      1829 MEMB     25       CHL1     H21A     HAL3     0.900000E-01   1.00800           0
      1830 MEMB     25       CHL1     H21B     HAL3     0.900000E-01   1.00800           0
      1831 MEMB     25       CHL1     H21C     HAL3     0.900000E-01   1.00800           0
      1832 MEMB     25       CHL1     C22      CTL2    -0.180000       12.0110           0
      1833 MEMB     25       CHL1     H22A     HAL2     0.900000E-01   1.00800           0
      1834 MEMB     25       CHL1     H22B     HAL2     0.900000E-01   1.00800           0
      1835 MEMB     25       CHL1     C23      CTL2    -0.180000       12.0110           0
      1836 MEMB     25       CHL1     H23A     HAL2     0.900000E-01   1.00800           0
      1837 MEMB     25       CHL1     H23B     HAL2     0.900000E-01   1.00800           0
      1838 MEMB     25       CHL1     C24      CTL2    -0.180000       12.0110           0
      1839 MEMB     25       CHL1     H24A     HAL2     0.900000E-01   1.00800           0
      1840 MEMB     25       CHL1     H24B     HAL2     0.900000E-01   1.00800           0
      1841 MEMB     25       CHL1     C25      CTL1    -0.900000E-01   12.0110           0
      1842 MEMB     25       CHL1     H25      HAL1     0.900000E-01   1.00800           0
      1843 MEMB     25       CHL1     C26      CTL3    -0.270000       12.0110           0
      1844 MEMB     25       CHL1     H26A     HAL3     0.900000E-01   1.00800           0
      1845 MEMB     25       CHL1     H26B     HAL3     0.900000E-01   1.00800           0
      1846 MEMB     25       CHL1     H26C     HAL3     0.900000E-01   1.00800           0
      1847 MEMB     25       CHL1     C27      CTL3    -0.270000       12.0110           0
      1848 MEMB     25       CHL1     H27A     HAL3     0.900000E-01   1.00800           0
      1849 MEMB     25       CHL1     H27B     HAL3     0.900000E-01   1.00800           0
      1850 MEMB     25       CHL1     H27C     HAL3     0.900000E-01   1.00800           0
      1851 MEMB     26       CHL1     C3       CRL1     0.140000       12.0110           0
      1852 MEMB     26       CHL1     H3       HGA1     0.900000E-01   1.00800           0
      1853 MEMB     26       CHL1     O3       OHL     -0.660000       15.9994           0
      1854 MEMB     26       CHL1     H3'      HOL      0.430000       1.00800           0
      1855 MEMB     26       CHL1     C4       CRL2    -0.180000       12.0110           0
      1856 MEMB     26       CHL1     H4A      HGA2     0.900000E-01   1.00800           0
      1857 MEMB     26       CHL1     H4B      HGA2     0.900000E-01   1.00800           0
      1858 MEMB     26       CHL1     C5       CEL1      0.00000       12.0110           0
      1859 MEMB     26       CHL1     C6       CEL1    -0.150000       12.0110           0
      1860 MEMB     26       CHL1     H6       HEL1     0.150000       1.00800           0
      1861 MEMB     26       CHL1     C7       CRL2    -0.180000       12.0110           0
      1862 MEMB     26       CHL1     H7A      HGA2     0.900000E-01   1.00800           0
      1863 MEMB     26       CHL1     H7B      HGA2     0.900000E-01   1.00800           0
      1864 MEMB     26       CHL1     C8       CRL1    -0.900000E-01   12.0110           0
      1865 MEMB     26       CHL1     H8       HGA1     0.900000E-01   1.00800           0
      1866 MEMB     26       CHL1     C14      CRL1    -0.900000E-01   12.0110           0
      1867 MEMB     26       CHL1     H14      HGA1     0.900000E-01   1.00800           0
      1868 MEMB     26       CHL1     C15      CRL2    -0.180000       12.0110           0
      1869 MEMB     26       CHL1     H15A     HGA2     0.900000E-01   1.00800           0
      1870 MEMB     26       CHL1     H15B     HGA2     0.900000E-01   1.00800           0
      1871 MEMB     26       CHL1     C16      CRL2    -0.180000       12.0110           0
      1872 MEMB     26       CHL1     H16A     HGA2     0.900000E-01   1.00800           0
      1873 MEMB     26       CHL1     H16B     HGA2     0.900000E-01   1.00800           0
      1874 MEMB     26       CHL1     C17      CRL1    -0.900000E-01   12.0110           0
      1875 MEMB     26       CHL1     H17      HGA1     0.900000E-01   1.00800           0
      1876 MEMB     26       CHL1     C13      CRL1      0.00000       12.0110           0
      1877 MEMB     26       CHL1     C18      CTL3    -0.270000       12.0110           0
      1878 MEMB     26       CHL1     H18A     HAL3     0.900000E-01   1.00800           0
      1879 MEMB     26       CHL1     H18B     HAL3     0.900000E-01   1.00800           0
      1880 MEMB     26       CHL1     H18C     HAL3     0.900000E-01   1.00800           0
      1881 MEMB     26       CHL1     C12      CRL2    -0.180000       12.0110           0
      1882 MEMB     26       CHL1     H12A     HGA2     0.900000E-01   1.00800           0
      1883 MEMB     26       CHL1     H12B     HGA2     0.900000E-01   1.00800           0
      1884 MEMB     26       CHL1     C11      CRL2    -0.180000       12.0110           0
      1885 MEMB     26       CHL1     H11A     HGA2     0.900000E-01   1.00800           0
      1886 MEMB     26       CHL1     H11B     HGA2     0.900000E-01   1.00800           0
      1887 MEMB     26       CHL1     C9       CRL1    -0.900000E-01   12.0110           0
      1888 MEMB     26       CHL1     H9       HGA1     0.900000E-01   1.00800           0
      1889 MEMB     26       CHL1     C10      CRL1      0.00000       12.0110           0
      1890 MEMB     26       CHL1     C19      CTL3    -0.270000       12.0110           0
      1891 MEMB     26       CHL1     H19A     HAL3     0.900000E-01   1.00800           0
      1892 MEMB     26       CHL1     H19B     HAL3     0.900000E-01   1.00800           0
      1893 MEMB     26       CHL1     H19C     HAL3     0.900000E-01   1.00800           0
      1894 MEMB     26       CHL1     C1       CRL2    -0.180000       12.0110           0
      1895 MEMB     26       CHL1     H1A      HGA2     0.900000E-01   1.00800           0
      1896 MEMB     26       CHL1     H1B      HGA2     0.900000E-01   1.00800           0
      1897 MEMB     26       CHL1     C2       CRL2    -0.180000       12.0110           0
      1898 MEMB     26       CHL1     H2A      HGA2     0.900000E-01   1.00800           0
      1899 MEMB     26       CHL1     H2B      HGA2     0.900000E-01   1.00800           0
      1900 MEMB     26       CHL1     C20      CTL1    -0.900000E-01   12.0110           0
      1901 MEMB     26       CHL1     H20      HAL1     0.900000E-01   1.00800           0
      1902 MEMB     26       CHL1     C21      CTL3    -0.270000       12.0110           0
      1903 MEMB     26       CHL1     H21A     HAL3     0.900000E-01   1.00800           0
      1904 MEMB     26       CHL1     H21B     HAL3     0.900000E-01   1.00800           0
      1905 MEMB     26       CHL1     H21C     HAL3     0.900000E-01   1.00800           0
      1906 MEMB     26       CHL1     C22      CTL2    -0.180000       12.0110           0
      1907 MEMB     26       CHL1     H22A     HAL2     0.900000E-01   1.00800           0
      1908 MEMB     26       CHL1     H22B     HAL2     0.900000E-01   1.00800           0
      1909 MEMB     26       CHL1     C23      CTL2    -0.180000       12.0110           0
      1910 MEMB     26       CHL1     H23A     HAL2     0.900000E-01   1.00800           0
      1911 MEMB     26       CHL1     H23B     HAL2     0.900000E-01   1.00800           0
      1912 MEMB     26       CHL1     C24      CTL2    -0.180000       12.0110           0
      1913 MEMB     26       CHL1     H24A     HAL2     0.900000E-01   1.00800           0
      1914 MEMB     26       CHL1     H24B     HAL2     0.900000E-01   1.00800           0
      1915 MEMB     26       CHL1     C25      CTL1    -0.900000E-01   12.0110           0
      1916 MEMB     26       CHL1     H25      HAL1     0.900000E-01   1.00800           0
      1917 MEMB     26       CHL1     C26      CTL3    -0.270000       12.0110           0
      1918 MEMB     26       CHL1     H26A     HAL3     0.900000E-01   1.00800           0
      1919 MEMB     26       CHL1     H26B     HAL3     0.900000E-01   1.00800           0
      1920 MEMB     26       CHL1     H26C     HAL3     0.900000E-01   1.00800           0
      1921 MEMB     26       CHL1     C27      CTL3    -0.270000       12.0110           0
      1922 MEMB     26       CHL1     H27A     HAL3     0.900000E-01   1.00800           0
      1923 MEMB     26       CHL1     H27B     HAL3     0.900000E-01   1.00800           0
      1924 MEMB     26       CHL1     H27C     HAL3     0.900000E-01   1.00800           0
      1925 MEMB     27       CHL1     C3       CRL1     0.140000       12.0110           0
      1926 MEMB     27       CHL1     H3       HGA1     0.900000E-01   1.00800           0
      1927 MEMB     27       CHL1     O3       OHL     -0.660000       15.9994           0
      1928 MEMB     27       CHL1     H3'      HOL      0.430000       1.00800           0
      1929 MEMB     27       CHL1     C4       CRL2    -0.180000       12.0110           0
      1930 MEMB     27       CHL1     H4A      HGA2     0.900000E-01   1.00800           0
      1931 MEMB     27       CHL1     H4B      HGA2     0.900000E-01   1.00800           0
      1932 MEMB     27       CHL1     C5       CEL1      0.00000       12.0110           0
      1933 MEMB     27       CHL1     C6       CEL1    -0.150000       12.0110           0
      1934 MEMB     27       CHL1     H6       HEL1     0.150000       1.00800           0
      1935 MEMB     27       CHL1     C7       CRL2    -0.180000       12.0110           0
      1936 MEMB     27       CHL1     H7A      HGA2     0.900000E-01   1.00800           0
      1937 MEMB     27       CHL1     H7B      HGA2     0.900000E-01   1.00800           0
      1938 MEMB     27       CHL1     C8       CRL1    -0.900000E-01   12.0110           0
      1939 MEMB     27       CHL1     H8       HGA1     0.900000E-01   1.00800           0
      1940 MEMB     27       CHL1     C14      CRL1    -0.900000E-01   12.0110           0
      1941 MEMB     27       CHL1     H14      HGA1     0.900000E-01   1.00800           0
      1942 MEMB     27       CHL1     C15      CRL2    -0.180000       12.0110           0
      1943 MEMB     27       CHL1     H15A     HGA2     0.900000E-01   1.00800           0
      1944 MEMB     27       CHL1     H15B     HGA2     0.900000E-01   1.00800           0
      1945 MEMB     27       CHL1     C16      CRL2    -0.180000       12.0110           0
      1946 MEMB     27       CHL1     H16A     HGA2     0.900000E-01   1.00800           0
      1947 MEMB     27       CHL1     H16B     HGA2     0.900000E-01   1.00800           0
      1948 MEMB     27       CHL1     C17      CRL1    -0.900000E-01   12.0110           0
      1949 MEMB     27       CHL1     H17      HGA1     0.900000E-01   1.00800           0
      1950 MEMB     27       CHL1     C13      CRL1      0.00000       12.0110           0
      1951 MEMB     27       CHL1     C18      CTL3    -0.270000       12.0110           0
      1952 MEMB     27       CHL1     H18A     HAL3     0.900000E-01   1.00800           0
      1953 MEMB     27       CHL1     H18B     HAL3     0.900000E-01   1.00800           0
      1954 MEMB     27       CHL1     H18C     HAL3     0.900000E-01   1.00800           0
      1955 MEMB     27       CHL1     C12      CRL2    -0.180000       12.0110           0
      1956 MEMB     27       CHL1     H12A     HGA2     0.900000E-01   1.00800           0
      1957 MEMB     27       CHL1     H12B     HGA2     0.900000E-01   1.00800           0
      1958 MEMB     27       CHL1     C11      CRL2    -0.180000       12.0110           0
      1959 MEMB     27       CHL1     H11A     HGA2     0.900000E-01   1.00800           0
      1960 MEMB     27       CHL1     H11B     HGA2     0.900000E-01   1.00800           0
      1961 MEMB     27       CHL1     C9       CRL1    -0.900000E-01   12.0110           0
      1962 MEMB     27       CHL1     H9       HGA1     0.900000E-01   1.00800           0
      1963 MEMB     27       CHL1     C10      CRL1      0.00000       12.0110           0
      1964 MEMB     27       CHL1     C19      CTL3    -0.270000       12.0110           0
      1965 MEMB     27       CHL1     H19A     HAL3     0.900000E-01   1.00800           0
      1966 MEMB     27       CHL1     H19B     HAL3     0.900000E-01   1.00800           0
      1967 MEMB     27       CHL1     H19C     HAL3     0.900000E-01   1.00800           0
      1968 MEMB     27       CHL1     C1       CRL2    -0.180000       12.0110           0
      1969 MEMB     27       CHL1     H1A      HGA2     0.900000E-01   1.00800           0
      1970 MEMB     27       CHL1     H1B      HGA2     0.900000E-01   1.00800           0
      1971 MEMB     27       CHL1     C2       CRL2    -0.180000       12.0110           0
      1972 MEMB     27       CHL1     H2A      HGA2     0.900000E-01   1.00800           0
      1973 MEMB     27       CHL1     H2B      HGA2     0.900000E-01   1.00800           0
      1974 MEMB     27       CHL1     C20      CTL1    -0.900000E-01   12.0110           0
      1975 MEMB     27       CHL1     H20      HAL1     0.900000E-01   1.00800           0
      1976 MEMB     27       CHL1     C21      CTL3    -0.270000       12.0110           0
      1977 MEMB     27       CHL1     H21A     HAL3     0.900000E-01   1.00800           0
      1978 MEMB     27       CHL1     H21B     HAL3     0.900000E-01   1.00800           0
      1979 MEMB     27       CHL1     H21C     HAL3     0.900000E-01   1.00800           0
      1980 MEMB     27       CHL1     C22      CTL2    -0.180000       12.0110           0
      1981 MEMB     27       CHL1     H22A     HAL2     0.900000E-01   1.00800           0
      1982 MEMB     27       CHL1     H22B     HAL2     0.900000E-01   1.00800           0
      1983 MEMB     27       CHL1     C23      CTL2    -0.180000       12.0110           0
      1984 MEMB     27       CHL1     H23A     HAL2     0.900000E-01   1.00800           0
      1985 MEMB     27       CHL1     H23B     HAL2     0.900000E-01   1.00800           0
      1986 MEMB     27       CHL1     C24      CTL2    -0.180000       12.0110           0
      1987 MEMB     27       CHL1     H24A     HAL2     0.900000E-01   1.00800           0
      1988 MEMB     27       CHL1     H24B     HAL2     0.900000E-01   1.00800           0
      1989 MEMB     27       CHL1     C25      CTL1    -0.900000E-01   12.0110           0
      1990 MEMB     27       CHL1     H25      HAL1     0.900000E-01   1.00800           0
      1991 MEMB     27       CHL1     C26      CTL3    -0.270000       12.0110           0
      1992 MEMB     27       CHL1     H26A     HAL3     0.900000E-01   1.00800           0
      1993 MEMB     27       CHL1     H26B     HAL3     0.900000E-01   1.00800           0
      1994 MEMB     27       CHL1     H26C     HAL3     0.900000E-01   1.00800           0
      1995 MEMB     27       CHL1     C27      CTL3    -0.270000       12.0110           0
      1996 MEMB     27       CHL1     H27A     HAL3     0.900000E-01   1.00800           0
      1997 MEMB     27       CHL1     H27B     HAL3     0.900000E-01   1.00800           0
      1998 MEMB     27       CHL1     H27C     HAL3     0.900000E-01   1.00800           0
      1999 MEMB     28       CHL1     C3       CRL1     0.140000       12.0110           0
      2000 MEMB     28       CHL1     H3       HGA1     0.900000E-01   1.00800           0
      2001 MEMB     28       CHL1     O3       OHL     -0.660000       15.9994           0
      2002 MEMB     28       CHL1     H3'      HOL      0.430000       1.00800           0
      2003 MEMB     28       CHL1     C4       CRL2    -0.180000       12.0110           0
      2004 MEMB     28       CHL1     H4A      HGA2     0.900000E-01   1.00800           0
      2005 MEMB     28       CHL1     H4B      HGA2     0.900000E-01   1.00800           0
      2006 MEMB     28       CHL1     C5       CEL1      0.00000       12.0110           0
      2007 MEMB     28       CHL1     C6       CEL1    -0.150000       12.0110           0
      2008 MEMB     28       CHL1     H6       HEL1     0.150000       1.00800           0
      2009 MEMB     28       CHL1     C7       CRL2    -0.180000       12.0110           0
      2010 MEMB     28       CHL1     H7A      HGA2     0.900000E-01   1.00800           0
      2011 MEMB     28       CHL1     H7B      HGA2     0.900000E-01   1.00800           0
      2012 MEMB     28       CHL1     C8       CRL1    -0.900000E-01   12.0110           0
      2013 MEMB     28       CHL1     H8       HGA1     0.900000E-01   1.00800           0
      2014 MEMB     28       CHL1     C14      CRL1    -0.900000E-01   12.0110           0
      2015 MEMB     28       CHL1     H14      HGA1     0.900000E-01   1.00800           0
      2016 MEMB     28       CHL1     C15      CRL2    -0.180000       12.0110           0
      2017 MEMB     28       CHL1     H15A     HGA2     0.900000E-01   1.00800           0
      2018 MEMB     28       CHL1     H15B     HGA2     0.900000E-01   1.00800           0
      2019 MEMB     28       CHL1     C16      CRL2    -0.180000       12.0110           0
      2020 MEMB     28       CHL1     H16A     HGA2     0.900000E-01   1.00800           0
      2021 MEMB     28       CHL1     H16B     HGA2     0.900000E-01   1.00800           0
      2022 MEMB     28       CHL1     C17      CRL1    -0.900000E-01   12.0110           0
      2023 MEMB     28       CHL1     H17      HGA1     0.900000E-01   1.00800           0
      2024 MEMB     28       CHL1     C13      CRL1      0.00000       12.0110           0
      2025 MEMB     28       CHL1     C18      CTL3    -0.270000       12.0110           0
      2026 MEMB     28       CHL1     H18A     HAL3     0.900000E-01   1.00800           0
      2027 MEMB     28       CHL1     H18B     HAL3     0.900000E-01   1.00800           0
      2028 MEMB     28       CHL1     H18C     HAL3     0.900000E-01   1.00800           0
      2029 MEMB     28       CHL1     C12      CRL2    -0.180000       12.0110           0
      2030 MEMB     28       CHL1     H12A     HGA2     0.900000E-01   1.00800           0
      2031 MEMB     28       CHL1     H12B     HGA2     0.900000E-01   1.00800           0
      2032 MEMB     28       CHL1     C11      CRL2    -0.180000       12.0110           0
      2033 MEMB     28       CHL1     H11A     HGA2     0.900000E-01   1.00800           0
      2034 MEMB     28       CHL1     H11B     HGA2     0.900000E-01   1.00800           0
      2035 MEMB     28       CHL1     C9       CRL1    -0.900000E-01   12.0110           0
      2036 MEMB     28       CHL1     H9       HGA1     0.900000E-01   1.00800           0
      2037 MEMB     28       CHL1     C10      CRL1      0.00000       12.0110           0
      2038 MEMB     28       CHL1     C19      CTL3    -0.270000       12.0110           0
      2039 MEMB     28       CHL1     H19A     HAL3     0.900000E-01   1.00800           0
      2040 MEMB     28       CHL1     H19B     HAL3     0.900000E-01   1.00800           0
      2041 MEMB     28       CHL1     H19C     HAL3     0.900000E-01   1.00800           0
      2042 MEMB     28       CHL1     C1       CRL2    -0.180000       12.0110           0
      2043 MEMB     28       CHL1     H1A      HGA2     0.900000E-01   1.00800           0
      2044 MEMB     28       CHL1     H1B      HGA2     0.900000E-01   1.00800           0
      2045 MEMB     28       CHL1     C2       CRL2    -0.180000       12.0110           0
      2046 MEMB     28       CHL1     H2A      HGA2     0.900000E-01   1.00800           0
      2047 MEMB     28       CHL1     H2B      HGA2     0.900000E-01   1.00800           0
      2048 MEMB     28       CHL1     C20      CTL1    -0.900000E-01   12.0110           0
      2049 MEMB     28       CHL1     H20      HAL1     0.900000E-01   1.00800           0
      2050 MEMB     28       CHL1     C21      CTL3    -0.270000       12.0110           0
      2051 MEMB     28       CHL1     H21A     HAL3     0.900000E-01   1.00800           0
      2052 MEMB     28       CHL1     H21B     HAL3     0.900000E-01   1.00800           0
      2053 MEMB     28       CHL1     H21C     HAL3     0.900000E-01   1.00800           0
      2054 MEMB     28       CHL1     C22      CTL2    -0.180000       12.0110           0
      2055 MEMB     28       CHL1     H22A     HAL2     0.900000E-01   1.00800           0
      2056 MEMB     28       CHL1     H22B     HAL2     0.900000E-01   1.00800           0
      2057 MEMB     28       CHL1     C23      CTL2    -0.180000       12.0110           0
      2058 MEMB     28       CHL1     H23A     HAL2     0.900000E-01   1.00800           0
      2059 MEMB     28       CHL1     H23B     HAL2     0.900000E-01   1.00800           0
      2060 MEMB     28       CHL1     C24      CTL2    -0.180000       12.0110           0
      2061 MEMB     28       CHL1     H24A     HAL2     0.900000E-01   1.00800           0
      2062 MEMB     28       CHL1     H24B     HAL2     0.900000E-01   1.00800           0
      2063 MEMB     28       CHL1     C25      CTL1    -0.900000E-01   12.0110           0
      2064 MEMB     28       CHL1     H25      HAL1     0.900000E-01   1.00800           0
      2065 MEMB     28       CHL1     C26      CTL3    -0.270000       12.0110           0
      2066 MEMB     28       CHL1     H26A     HAL3     0.900000E-01   1.00800           0
      2067 MEMB     28       CHL1     H26B     HAL3     0.900000E-01   1.00800           0
      2068 MEMB     28       CHL1     H26C     HAL3     0.900000E-01   1.00800           0
      2069 MEMB     28       CHL1     C27      CTL3    -0.270000       12.0110           0
      2070 MEMB     28       CHL1     H27A     HAL3     0.900000E-01   1.00800           0
      2071 MEMB     28       CHL1     H27B     HAL3     0.900000E-01   1.00800           0
      2072 MEMB     28       CHL1     H27C     HAL3     0.900000E-01   1.00800           0
      2073 MEMB     29       CHL1     C3       CRL1     0.140000       12.0110           0
      2074 MEMB     29       CHL1     H3       HGA1     0.900000E-01   1.00800           0
      2075 MEMB     29       CHL1     O3       OHL     -0.660000       15.9994           0
      2076 MEMB     29       CHL1     H3'      HOL      0.430000       1.00800           0
      2077 MEMB     29       CHL1     C4       CRL2    -0.180000       12.0110           0
      2078 MEMB     29       CHL1     H4A      HGA2     0.900000E-01   1.00800           0
      2079 MEMB     29       CHL1     H4B      HGA2     0.900000E-01   1.00800           0
      2080 MEMB     29       CHL1     C5       CEL1      0.00000       12.0110           0
      2081 MEMB     29       CHL1     C6       CEL1    -0.150000       12.0110           0
      2082 MEMB     29       CHL1     H6       HEL1     0.150000       1.00800           0
      2083 MEMB     29       CHL1     C7       CRL2    -0.180000       12.0110           0
      2084 MEMB     29       CHL1     H7A      HGA2     0.900000E-01   1.00800           0
      2085 MEMB     29       CHL1     H7B      HGA2     0.900000E-01   1.00800           0
      2086 MEMB     29       CHL1     C8       CRL1    -0.900000E-01   12.0110           0
      2087 MEMB     29       CHL1     H8       HGA1     0.900000E-01   1.00800           0
      2088 MEMB     29       CHL1     C14      CRL1    -0.900000E-01   12.0110           0
      2089 MEMB     29       CHL1     H14      HGA1     0.900000E-01   1.00800           0
      2090 MEMB     29       CHL1     C15      CRL2    -0.180000       12.0110           0
      2091 MEMB     29       CHL1     H15A     HGA2     0.900000E-01   1.00800           0
      2092 MEMB     29       CHL1     H15B     HGA2     0.900000E-01   1.00800           0
      2093 MEMB     29       CHL1     C16      CRL2    -0.180000       12.0110           0
      2094 MEMB     29       CHL1     H16A     HGA2     0.900000E-01   1.00800           0
      2095 MEMB     29       CHL1     H16B     HGA2     0.900000E-01   1.00800           0
      2096 MEMB     29       CHL1     C17      CRL1    -0.900000E-01   12.0110           0
      2097 MEMB     29       CHL1     H17      HGA1     0.900000E-01   1.00800           0
      2098 MEMB     29       CHL1     C13      CRL1      0.00000       12.0110           0
      2099 MEMB     29       CHL1     C18      CTL3    -0.270000       12.0110           0
      2100 MEMB     29       CHL1     H18A     HAL3     0.900000E-01   1.00800           0
      2101 MEMB     29       CHL1     H18B     HAL3     0.900000E-01   1.00800           0
      2102 MEMB     29       CHL1     H18C     HAL3     0.900000E-01   1.00800           0
      2103 MEMB     29       CHL1     C12      CRL2    -0.180000       12.0110           0
      2104 MEMB     29       CHL1     H12A     HGA2     0.900000E-01   1.00800           0
      2105 MEMB     29       CHL1     H12B     HGA2     0.900000E-01   1.00800           0
      2106 MEMB     29       CHL1     C11      CRL2    -0.180000       12.0110           0
      2107 MEMB     29       CHL1     H11A     HGA2     0.900000E-01   1.00800           0
      2108 MEMB     29       CHL1     H11B     HGA2     0.900000E-01   1.00800           0
      2109 MEMB     29       CHL1     C9       CRL1    -0.900000E-01   12.0110           0
      2110 MEMB     29       CHL1     H9       HGA1     0.900000E-01   1.00800           0
      2111 MEMB     29       CHL1     C10      CRL1      0.00000       12.0110           0
      2112 MEMB     29       CHL1     C19      CTL3    -0.270000       12.0110           0
      2113 MEMB     29       CHL1     H19A     HAL3     0.900000E-01   1.00800           0
      2114 MEMB     29       CHL1     H19B     HAL3     0.900000E-01   1.00800           0
      2115 MEMB     29       CHL1     H19C     HAL3     0.900000E-01   1.00800           0
      2116 MEMB     29       CHL1     C1       CRL2    -0.180000       12.0110           0
      2117 MEMB     29       CHL1     H1A      HGA2     0.900000E-01   1.00800           0
      2118 MEMB     29       CHL1     H1B      HGA2     0.900000E-01   1.00800           0
      2119 MEMB     29       CHL1     C2       CRL2    -0.180000       12.0110           0
      2120 MEMB     29       CHL1     H2A      HGA2     0.900000E-01   1.00800           0
      2121 MEMB     29       CHL1     H2B      HGA2     0.900000E-01   1.00800           0
      2122 MEMB     29       CHL1     C20      CTL1    -0.900000E-01   12.0110           0
      2123 MEMB     29       CHL1     H20      HAL1     0.900000E-01   1.00800           0
      2124 MEMB     29       CHL1     C21      CTL3    -0.270000       12.0110           0
      2125 MEMB     29       CHL1     H21A     HAL3     0.900000E-01   1.00800           0
      2126 MEMB     29       CHL1     H21B     HAL3     0.900000E-01   1.00800           0
      2127 MEMB     29       CHL1     H21C     HAL3     0.900000E-01   1.00800           0
      2128 MEMB     29       CHL1     C22      CTL2    -0.180000       12.0110           0
      2129 MEMB     29       CHL1     H22A     HAL2     0.900000E-01   1.00800           0
      2130 MEMB     29       CHL1     H22B     HAL2     0.900000E-01   1.00800           0
      2131 MEMB     29       CHL1     C23      CTL2    -0.180000       12.0110           0
      2132 MEMB     29       CHL1     H23A     HAL2     0.900000E-01   1.00800           0
      2133 MEMB     29       CHL1     H23B     HAL2     0.900000E-01   1.00800           0
      2134 MEMB     29       CHL1     C24      CTL2    -0.180000       12.0110           0
      2135 MEMB     29       CHL1     H24A     HAL2     0.900000E-01   1.00800           0
      2136 MEMB     29       CHL1     H24B     HAL2     0.900000E-01   1.00800           0
      2137 MEMB     29       CHL1     C25      CTL1    -0.900000E-01   12.0110           0
      2138 MEMB     29       CHL1     H25      HAL1     0.900000E-01   1.00800           0
      2139 MEMB     29       CHL1     C26      CTL3    -0.270000       12.0110           0
      2140 MEMB     29       CHL1     H26A     HAL3     0.900000E-01   1.00800           0
      2141 MEMB     29       CHL1     H26B     HAL3     0.900000E-01   1.00800           0
      2142 MEMB     29       CHL1     H26C     HAL3     0.900000E-01   1.00800           0
      2143 MEMB     29       CHL1     C27      CTL3    -0.270000       12.0110           0
      2144 MEMB     29       CHL1     H27A     HAL3     0.900000E-01   1.00800           0
      2145 MEMB     29       CHL1     H27B     HAL3     0.900000E-01   1.00800           0
      2146 MEMB     29       CHL1     H27C     HAL3     0.900000E-01   1.00800           0
      2147 MEMB     30       CHL1     C3       CRL1     0.140000       12.0110           0
      2148 MEMB     30       CHL1     H3       HGA1     0.900000E-01   1.00800           0
      2149 MEMB     30       CHL1     O3       OHL     -0.660000       15.9994           0
      2150 MEMB     30       CHL1     H3'      HOL      0.430000       1.00800           0
      2151 MEMB     30       CHL1     C4       CRL2    -0.180000       12.0110           0
      2152 MEMB     30       CHL1     H4A      HGA2     0.900000E-01   1.00800           0
      2153 MEMB     30       CHL1     H4B      HGA2     0.900000E-01   1.00800           0
      2154 MEMB     30       CHL1     C5       CEL1      0.00000       12.0110           0
      2155 MEMB     30       CHL1     C6       CEL1    -0.150000       12.0110           0
      2156 MEMB     30       CHL1     H6       HEL1     0.150000       1.00800           0
      2157 MEMB     30       CHL1     C7       CRL2    -0.180000       12.0110           0
      2158 MEMB     30       CHL1     H7A      HGA2     0.900000E-01   1.00800           0
      2159 MEMB     30       CHL1     H7B      HGA2     0.900000E-01   1.00800           0
      2160 MEMB     30       CHL1     C8       CRL1    -0.900000E-01   12.0110           0
      2161 MEMB     30       CHL1     H8       HGA1     0.900000E-01   1.00800           0
      2162 MEMB     30       CHL1     C14      CRL1    -0.900000E-01   12.0110           0
      2163 MEMB     30       CHL1     H14      HGA1     0.900000E-01   1.00800           0
      2164 MEMB     30       CHL1     C15      CRL2    -0.180000       12.0110           0
      2165 MEMB     30       CHL1     H15A     HGA2     0.900000E-01   1.00800           0
      2166 MEMB     30       CHL1     H15B     HGA2     0.900000E-01   1.00800           0
      2167 MEMB     30       CHL1     C16      CRL2    -0.180000       12.0110           0
      2168 MEMB     30       CHL1     H16A     HGA2     0.900000E-01   1.00800           0
      2169 MEMB     30       CHL1     H16B     HGA2     0.900000E-01   1.00800           0
      2170 MEMB     30       CHL1     C17      CRL1    -0.900000E-01   12.0110           0
      2171 MEMB     30       CHL1     H17      HGA1     0.900000E-01   1.00800           0
      2172 MEMB     30       CHL1     C13      CRL1      0.00000       12.0110           0
      2173 MEMB     30       CHL1     C18      CTL3    -0.270000       12.0110           0
      2174 MEMB     30       CHL1     H18A     HAL3     0.900000E-01   1.00800           0
      2175 MEMB     30       CHL1     H18B     HAL3     0.900000E-01   1.00800           0
      2176 MEMB     30       CHL1     H18C     HAL3     0.900000E-01   1.00800           0
      2177 MEMB     30       CHL1     C12      CRL2    -0.180000       12.0110           0
      2178 MEMB     30       CHL1     H12A     HGA2     0.900000E-01   1.00800           0
      2179 MEMB     30       CHL1     H12B     HGA2     0.900000E-01   1.00800           0
      2180 MEMB     30       CHL1     C11      CRL2    -0.180000       12.0110           0
      2181 MEMB     30       CHL1     H11A     HGA2     0.900000E-01   1.00800           0
      2182 MEMB     30       CHL1     H11B     HGA2     0.900000E-01   1.00800           0
      2183 MEMB     30       CHL1     C9       CRL1    -0.900000E-01   12.0110           0
      2184 MEMB     30       CHL1     H9       HGA1     0.900000E-01   1.00800           0
      2185 MEMB     30       CHL1     C10      CRL1      0.00000       12.0110           0
      2186 MEMB     30       CHL1     C19      CTL3    -0.270000       12.0110           0
      2187 MEMB     30       CHL1     H19A     HAL3     0.900000E-01   1.00800           0
      2188 MEMB     30       CHL1     H19B     HAL3     0.900000E-01   1.00800           0
      2189 MEMB     30       CHL1     H19C     HAL3     0.900000E-01   1.00800           0
      2190 MEMB     30       CHL1     C1       CRL2    -0.180000       12.0110           0
      2191 MEMB     30       CHL1     H1A      HGA2     0.900000E-01   1.00800           0
      2192 MEMB     30       CHL1     H1B      HGA2     0.900000E-01   1.00800           0
      2193 MEMB     30       CHL1     C2       CRL2    -0.180000       12.0110           0
      2194 MEMB     30       CHL1     H2A      HGA2     0.900000E-01   1.00800           0
      2195 MEMB     30       CHL1     H2B      HGA2     0.900000E-01   1.00800           0
      2196 MEMB     30       CHL1     C20      CTL1    -0.900000E-01   12.0110           0
      2197 MEMB     30       CHL1     H20      HAL1     0.900000E-01   1.00800           0
      2198 MEMB     30       CHL1     C21      CTL3    -0.270000       12.0110           0
      2199 MEMB     30       CHL1     H21A     HAL3     0.900000E-01   1.00800           0
      2200 MEMB     30       CHL1     H21B     HAL3     0.900000E-01   1.00800           0
      2201 MEMB     30       CHL1     H21C     HAL3     0.900000E-01   1.00800           0
      2202 MEMB     30       CHL1     C22      CTL2    -0.180000       12.0110           0
      2203 MEMB     30       CHL1     H22A     HAL2     0.900000E-01   1.00800           0
      2204 MEMB     30       CHL1     H22B     HAL2     0.900000E-01   1.00800           0
      2205 MEMB     30       CHL1     C23      CTL2    -0.180000       12.0110           0
      2206 MEMB     30       CHL1     H23A     HAL2     0.900000E-01   1.00800           0
      2207 MEMB     30       CHL1     H23B     HAL2     0.900000E-01   1.00800           0
      2208 MEMB     30       CHL1     C24      CTL2    -0.180000       12.0110           0
      2209 MEMB     30       CHL1     H24A     HAL2     0.900000E-01   1.00800           0
      2210 MEMB     30       CHL1     H24B     HAL2     0.900000E-01   1.00800           0
      2211 MEMB     30       CHL1     C25      CTL1    -0.900000E-01   12.0110           0
      2212 MEMB     30       CHL1     H25      HAL1     0.900000E-01   1.00800           0
      2213 MEMB     30       CHL1     C26      CTL3    -0.270000       12.0110           0
      2214 MEMB     30       CHL1     H26A     HAL3     0.900000E-01   1.00800           0
      2215 MEMB     30       CHL1     H26B     HAL3     0.900000E-01   1.00800           0
      2216 MEMB     30       CHL1     H26C     HAL3     0.900000E-01   1.00800           0
      2217 MEMB     30       CHL1     C27      CTL3    -0.270000       12.0110           0
      2218 MEMB     30       CHL1     H27A     HAL3     0.900000E-01   1.00800           0
      2219 MEMB     30       CHL1     H27B     HAL3     0.900000E-01   1.00800           0
      2220 MEMB     30       CHL1     H27C     HAL3     0.900000E-01   1.00800           0
      2221 MEMB     31       CHL1     C3       CRL1     0.140000       12.0110           0
      2222 MEMB     31       CHL1     H3       HGA1     0.900000E-01   1.00800           0
      2223 MEMB     31       CHL1     O3       OHL     -0.660000       15.9994           0
      2224 MEMB     31       CHL1     H3'      HOL      0.430000       1.00800           0
      2225 MEMB     31       CHL1     C4       CRL2    -0.180000       12.0110           0
      2226 MEMB     31       CHL1     H4A      HGA2     0.900000E-01   1.00800           0
      2227 MEMB     31       CHL1     H4B      HGA2     0.900000E-01   1.00800           0
      2228 MEMB     31       CHL1     C5       CEL1      0.00000       12.0110           0
      2229 MEMB     31       CHL1     C6       CEL1    -0.150000       12.0110           0
      2230 MEMB     31       CHL1     H6       HEL1     0.150000       1.00800           0
      2231 MEMB     31       CHL1     C7       CRL2    -0.180000       12.0110           0
      2232 MEMB     31       CHL1     H7A      HGA2     0.900000E-01   1.00800           0
      2233 MEMB     31       CHL1     H7B      HGA2     0.900000E-01   1.00800           0
      2234 MEMB     31       CHL1     C8       CRL1    -0.900000E-01   12.0110           0
      2235 MEMB     31       CHL1     H8       HGA1     0.900000E-01   1.00800           0
      2236 MEMB     31       CHL1     C14      CRL1    -0.900000E-01   12.0110           0
      2237 MEMB     31       CHL1     H14      HGA1     0.900000E-01   1.00800           0
      2238 MEMB     31       CHL1     C15      CRL2    -0.180000       12.0110           0
      2239 MEMB     31       CHL1     H15A     HGA2     0.900000E-01   1.00800           0
      2240 MEMB     31       CHL1     H15B     HGA2     0.900000E-01   1.00800           0
      2241 MEMB     31       CHL1     C16      CRL2    -0.180000       12.0110           0
      2242 MEMB     31       CHL1     H16A     HGA2     0.900000E-01   1.00800           0
      2243 MEMB     31       CHL1     H16B     HGA2     0.900000E-01   1.00800           0
      2244 MEMB     31       CHL1     C17      CRL1    -0.900000E-01   12.0110           0
      2245 MEMB     31       CHL1     H17      HGA1     0.900000E-01   1.00800           0
      2246 MEMB     31       CHL1     C13      CRL1      0.00000       12.0110           0
      2247 MEMB     31       CHL1     C18      CTL3    -0.270000       12.0110           0
      2248 MEMB     31       CHL1     H18A     HAL3     0.900000E-01   1.00800           0
      2249 MEMB     31       CHL1     H18B     HAL3     0.900000E-01   1.00800           0
      2250 MEMB     31       CHL1     H18C     HAL3     0.900000E-01   1.00800           0
      2251 MEMB     31       CHL1     C12      CRL2    -0.180000       12.0110           0
      2252 MEMB     31       CHL1     H12A     HGA2     0.900000E-01   1.00800           0
      2253 MEMB     31       CHL1     H12B     HGA2     0.900000E-01   1.00800           0
      2254 MEMB     31       CHL1     C11      CRL2    -0.180000       12.0110           0
      2255 MEMB     31       CHL1     H11A     HGA2     0.900000E-01   1.00800           0
      2256 MEMB     31       CHL1     H11B     HGA2     0.900000E-01   1.00800           0
      2257 MEMB     31       CHL1     C9       CRL1    -0.900000E-01   12.0110           0
      2258 MEMB     31       CHL1     H9       HGA1     0.900000E-01   1.00800           0
      2259 MEMB     31       CHL1     C10      CRL1      0.00000       12.0110           0
      2260 MEMB     31       CHL1     C19      CTL3    -0.270000       12.0110           0
      2261 MEMB     31       CHL1     H19A     HAL3     0.900000E-01   1.00800           0
      2262 MEMB     31       CHL1     H19B     HAL3     0.900000E-01   1.00800           0
      2263 MEMB     31       CHL1     H19C     HAL3     0.900000E-01   1.00800           0
      2264 MEMB     31       CHL1     C1       CRL2    -0.180000       12.0110           0
      2265 MEMB     31       CHL1     H1A      HGA2     0.900000E-01   1.00800           0
      2266 MEMB     31       CHL1     H1B      HGA2     0.900000E-01   1.00800           0
      2267 MEMB     31       CHL1     C2       CRL2    -0.180000       12.0110           0
      2268 MEMB     31       CHL1     H2A      HGA2     0.900000E-01   1.00800           0
      2269 MEMB     31       CHL1     H2B      HGA2     0.900000E-01   1.00800           0
      2270 MEMB     31       CHL1     C20      CTL1    -0.900000E-01   12.0110           0
      2271 MEMB     31       CHL1     H20      HAL1     0.900000E-01   1.00800           0
      2272 MEMB     31       CHL1     C21      CTL3    -0.270000       12.0110           0
      2273 MEMB     31       CHL1     H21A     HAL3     0.900000E-01   1.00800           0
      2274 MEMB     31       CHL1     H21B     HAL3     0.900000E-01   1.00800           0
      2275 MEMB     31       CHL1     H21C     HAL3     0.900000E-01   1.00800           0
      2276 MEMB     31       CHL1     C22      CTL2    -0.180000       12.0110           0
      2277 MEMB     31       CHL1     H22A     HAL2     0.900000E-01   1.00800           0
      2278 MEMB     31       CHL1     H22B     HAL2     0.900000E-01   1.00800           0
      2279 MEMB     31       CHL1     C23      CTL2    -0.180000       12.0110           0
      2280 MEMB     31       CHL1     H23A     HAL2     0.900000E-01   1.00800           0
      2281 MEMB     31       CHL1     H23B     HAL2     0.900000E-01   1.00800           0
      2282 MEMB     31       CHL1     C24      CTL2    -0.180000       12.0110           0
      2283 MEMB     31       CHL1     H24A     HAL2     0.900000E-01   1.00800           0
      2284 MEMB     31       CHL1     H24B     HAL2     0.900000E-01   1.00800           0
      2285 MEMB     31       CHL1     C25      CTL1    -0.900000E-01   12.0110           0
      2286 MEMB     31       CHL1     H25      HAL1     0.900000E-01   1.00800           0
      2287 MEMB     31       CHL1     C26      CTL3    -0.270000       12.0110           0
      2288 MEMB     31       CHL1     H26A     HAL3     0.900000E-01   1.00800           0
      2289 MEMB     31       CHL1     H26B     HAL3     0.900000E-01   1.00800           0
      2290 MEMB     31       CHL1     H26C     HAL3     0.900000E-01   1.00800           0
      2291 MEMB     31       CHL1     C27      CTL3    -0.270000       12.0110           0
      2292 MEMB     31       CHL1     H27A     HAL3     0.900000E-01   1.00800           0
      2293 MEMB     31       CHL1     H27B     HAL3     0.900000E-01   1.00800           0
      2294 MEMB     31       CHL1     H27C     HAL3     0.900000E-01   1.00800           0
      2295 MEMB     32       POPC     N        NTL     -0.600000       14.0070           0
      2296 MEMB     32       POPC     C12      CTL2    -0.100000       12.0110           0
      2297 MEMB     32       POPC     H12A     HL       0.250000       1.00800           0
      2298 MEMB     32       POPC     H12B     HL       0.250000       1.00800           0
      2299 MEMB     32       POPC     C13      CTL5    -0.350000       12.0110           0
      2300 MEMB     32       POPC     H13A     HL       0.250000       1.00800           0
      2301 MEMB     32       POPC     H13B     HL       0.250000       1.00800           0
      2302 MEMB     32       POPC     H13C     HL       0.250000       1.00800           0
      2303 MEMB     32       POPC     C14      CTL5    -0.350000       12.0110           0
      2304 MEMB     32       POPC     H14A     HL       0.250000       1.00800           0
      2305 MEMB     32       POPC     H14B     HL       0.250000       1.00800           0
      2306 MEMB     32       POPC     H14C     HL       0.250000       1.00800           0
      2307 MEMB     32       POPC     C15      CTL5    -0.350000       12.0110           0
      2308 MEMB     32       POPC     H15A     HL       0.250000       1.00800           0
      2309 MEMB     32       POPC     H15B     HL       0.250000       1.00800           0
      2310 MEMB     32       POPC     H15C     HL       0.250000       1.00800           0
      2311 MEMB     32       POPC     C11      CTL2    -0.800000E-01   12.0110           0
      2312 MEMB     32       POPC     H11A     HAL2     0.900000E-01   1.00800           0
      2313 MEMB     32       POPC     H11B     HAL2     0.900000E-01   1.00800           0
      2314 MEMB     32       POPC     P        PL        1.50000       30.9740           0
      2315 MEMB     32       POPC     O13      O2L     -0.780000       15.9994           0
      2316 MEMB     32       POPC     O14      O2L     -0.780000       15.9994           0
      2317 MEMB     32       POPC     O12      OSLP    -0.570000       15.9994           0
      2318 MEMB     32       POPC     O11      OSLP    -0.570000       15.9994           0
      2319 MEMB     32       POPC     C1       CTL2    -0.800000E-01   12.0110           0
      2320 MEMB     32       POPC     HA       HAL2     0.900000E-01   1.00800           0
      2321 MEMB     32       POPC     HB       HAL2     0.900000E-01   1.00800           0
      2322 MEMB     32       POPC     C2       CTL1     0.170000       12.0110           0
      2323 MEMB     32       POPC     HS       HAL1     0.900000E-01   1.00800           0
      2324 MEMB     32       POPC     O21      OSL     -0.490000       15.9994           0
      2325 MEMB     32       POPC     C21      CL       0.900000       12.0110           0
      2326 MEMB     32       POPC     O22      OBL     -0.630000       15.9994           0
      2327 MEMB     32       POPC     C22      CTL2    -0.220000       12.0110           0
      2328 MEMB     32       POPC     H2R      HAL2     0.900000E-01   1.00800           0
      2329 MEMB     32       POPC     H2S      HAL2     0.900000E-01   1.00800           0
      2330 MEMB     32       POPC     C3       CTL2     0.800000E-01   12.0110           0
      2331 MEMB     32       POPC     HX       HAL2     0.900000E-01   1.00800           0
      2332 MEMB     32       POPC     HY       HAL2     0.900000E-01   1.00800           0
      2333 MEMB     32       POPC     O31      OSL     -0.490000       15.9994           0
      2334 MEMB     32       POPC     C31      CL       0.900000       12.0110           0
      2335 MEMB     32       POPC     O32      OBL     -0.630000       15.9994           0
      2336 MEMB     32       POPC     C32      CTL2    -0.220000       12.0110           0
      2337 MEMB     32       POPC     H2X      HAL2     0.900000E-01   1.00800           0
      2338 MEMB     32       POPC     H2Y      HAL2     0.900000E-01   1.00800           0
      2339 MEMB     32       POPC     C23      CTL2    -0.180000       12.0110           0
      2340 MEMB     32       POPC     H3R      HAL2     0.900000E-01   1.00800           0
      2341 MEMB     32       POPC     H3S      HAL2     0.900000E-01   1.00800           0
      2342 MEMB     32       POPC     C24      CTL2    -0.180000       12.0110           0
      2343 MEMB     32       POPC     H4R      HAL2     0.900000E-01   1.00800           0
      2344 MEMB     32       POPC     H4S      HAL2     0.900000E-01   1.00800           0
      2345 MEMB     32       POPC     C25      CTL2    -0.180000       12.0110           0
      2346 MEMB     32       POPC     H5R      HAL2     0.900000E-01   1.00800           0
      2347 MEMB     32       POPC     H5S      HAL2     0.900000E-01   1.00800           0
      2348 MEMB     32       POPC     C26      CTL2    -0.180000       12.0110           0
      2349 MEMB     32       POPC     H6R      HAL2     0.900000E-01   1.00800           0
      2350 MEMB     32       POPC     H6S      HAL2     0.900000E-01   1.00800           0
      2351 MEMB     32       POPC     C27      CTL2    -0.180000       12.0110           0
      2352 MEMB     32       POPC     H7R      HAL2     0.900000E-01   1.00800           0
      2353 MEMB     32       POPC     H7S      HAL2     0.900000E-01   1.00800           0
      2354 MEMB     32       POPC     C28      CTL2    -0.180000       12.0110           0
      2355 MEMB     32       POPC     H8R      HAL2     0.900000E-01   1.00800           0
      2356 MEMB     32       POPC     H8S      HAL2     0.900000E-01   1.00800           0
      2357 MEMB     32       POPC     C29      CEL1    -0.150000       12.0110           0
      2358 MEMB     32       POPC     H91      HEL1     0.150000       1.00800           0
      2359 MEMB     32       POPC     C210     CEL1    -0.150000       12.0110           0
      2360 MEMB     32       POPC     H101     HEL1     0.150000       1.00800           0
      2361 MEMB     32       POPC     C211     CTL2    -0.180000       12.0110           0
      2362 MEMB     32       POPC     H11R     HAL2     0.900000E-01   1.00800           0
      2363 MEMB     32       POPC     H11S     HAL2     0.900000E-01   1.00800           0
      2364 MEMB     32       POPC     C212     CTL2    -0.180000       12.0110           0
      2365 MEMB     32       POPC     H12R     HAL2     0.900000E-01   1.00800           0
      2366 MEMB     32       POPC     H12S     HAL2     0.900000E-01   1.00800           0
      2367 MEMB     32       POPC     C213     CTL2    -0.180000       12.0110           0
      2368 MEMB     32       POPC     H13R     HAL2     0.900000E-01   1.00800           0
      2369 MEMB     32       POPC     H13S     HAL2     0.900000E-01   1.00800           0
      2370 MEMB     32       POPC     C214     CTL2    -0.180000       12.0110           0
      2371 MEMB     32       POPC     H14R     HAL2     0.900000E-01   1.00800           0
      2372 MEMB     32       POPC     H14S     HAL2     0.900000E-01   1.00800           0
      2373 MEMB     32       POPC     C215     CTL2    -0.180000       12.0110           0
      2374 MEMB     32       POPC     H15R     HAL2     0.900000E-01   1.00800           0
      2375 MEMB     32       POPC     H15S     HAL2     0.900000E-01   1.00800           0
      2376 MEMB     32       POPC     C216     CTL2    -0.180000       12.0110           0
      2377 MEMB     32       POPC     H16R     HAL2     0.900000E-01   1.00800           0
      2378 MEMB     32       POPC     H16S     HAL2     0.900000E-01   1.00800           0
      2379 MEMB     32       POPC     C217     CTL2    -0.180000       12.0110           0
      2380 MEMB     32       POPC     H17R     HAL2     0.900000E-01   1.00800           0
      2381 MEMB     32       POPC     H17S     HAL2     0.900000E-01   1.00800           0
      2382 MEMB     32       POPC     C218     CTL3    -0.270000       12.0110           0
      2383 MEMB     32       POPC     H18R     HAL3     0.900000E-01   1.00800           0
      2384 MEMB     32       POPC     H18S     HAL3     0.900000E-01   1.00800           0
      2385 MEMB     32       POPC     H18T     HAL3     0.900000E-01   1.00800           0
      2386 MEMB     32       POPC     C33      CTL2    -0.180000       12.0110           0
      2387 MEMB     32       POPC     H3X      HAL2     0.900000E-01   1.00800           0
      2388 MEMB     32       POPC     H3Y      HAL2     0.900000E-01   1.00800           0
      2389 MEMB     32       POPC     C34      CTL2    -0.180000       12.0110           0
      2390 MEMB     32       POPC     H4X      HAL2     0.900000E-01   1.00800           0
      2391 MEMB     32       POPC     H4Y      HAL2     0.900000E-01   1.00800           0
      2392 MEMB     32       POPC     C35      CTL2    -0.180000       12.0110           0
      2393 MEMB     32       POPC     H5X      HAL2     0.900000E-01   1.00800           0
      2394 MEMB     32       POPC     H5Y      HAL2     0.900000E-01   1.00800           0
      2395 MEMB     32       POPC     C36      CTL2    -0.180000       12.0110           0
      2396 MEMB     32       POPC     H6X      HAL2     0.900000E-01   1.00800           0
      2397 MEMB     32       POPC     H6Y      HAL2     0.900000E-01   1.00800           0
      2398 MEMB     32       POPC     C37      CTL2    -0.180000       12.0110           0
      2399 MEMB     32       POPC     H7X      HAL2     0.900000E-01   1.00800           0
      2400 MEMB     32       POPC     H7Y      HAL2     0.900000E-01   1.00800           0
      2401 MEMB     32       POPC     C38      CTL2    -0.180000       12.0110           0
      2402 MEMB     32       POPC     H8X      HAL2     0.900000E-01   1.00800           0
      2403 MEMB     32       POPC     H8Y      HAL2     0.900000E-01   1.00800           0
      2404 MEMB     32       POPC     C39      CTL2    -0.180000       12.0110           0
      2405 MEMB     32       POPC     H9X      HAL2     0.900000E-01   1.00800           0
      2406 MEMB     32       POPC     H9Y      HAL2     0.900000E-01   1.00800           0
      2407 MEMB     32       POPC     C310     CTL2    -0.180000       12.0110           0
      2408 MEMB     32       POPC     H10X     HAL2     0.900000E-01   1.00800           0
      2409 MEMB     32       POPC     H10Y     HAL2     0.900000E-01   1.00800           0
      2410 MEMB     32       POPC     C311     CTL2    -0.180000       12.0110           0
      2411 MEMB     32       POPC     H11X     HAL2     0.900000E-01   1.00800           0
      2412 MEMB     32       POPC     H11Y     HAL2     0.900000E-01   1.00800           0
      2413 MEMB     32       POPC     C312     CTL2    -0.180000       12.0110           0
      2414 MEMB     32       POPC     H12X     HAL2     0.900000E-01   1.00800           0
      2415 MEMB     32       POPC     H12Y     HAL2     0.900000E-01   1.00800           0
      2416 MEMB     32       POPC     C313     CTL2    -0.180000       12.0110           0
      2417 MEMB     32       POPC     H13X     HAL2     0.900000E-01   1.00800           0
      2418 MEMB     32       POPC     H13Y     HAL2     0.900000E-01   1.00800           0
      2419 MEMB     32       POPC     C314     CTL2    -0.180000       12.0110           0
      2420 MEMB     32       POPC     H14X     HAL2     0.900000E-01   1.00800           0
      2421 MEMB     32       POPC     H14Y     HAL2     0.900000E-01   1.00800           0
      2422 MEMB     32       POPC     C315     CTL2    -0.180000       12.0110           0
      2423 MEMB     32       POPC     H15X     HAL2     0.900000E-01   1.00800           0
      2424 MEMB     32       POPC     H15Y     HAL2     0.900000E-01   1.00800           0
      2425 MEMB     32       POPC     C316     CTL3    -0.270000       12.0110           0
      2426 MEMB     32       POPC     H16X     HAL3     0.900000E-01   1.00800           0
      2427 MEMB     32       POPC     H16Y     HAL3     0.900000E-01   1.00800           0
      2428 MEMB     32       POPC     H16Z     HAL3     0.900000E-01   1.00800           0
      2429 MEMB     33       POPC     N        NTL     -0.600000       14.0070           0
      2430 MEMB     33       POPC     C12      CTL2    -0.100000       12.0110           0
      2431 MEMB     33       POPC     H12A     HL       0.250000       1.00800           0
      2432 MEMB     33       POPC     H12B     HL       0.250000       1.00800           0
      2433 MEMB     33       POPC     C13      CTL5    -0.350000       12.0110           0
      2434 MEMB     33       POPC     H13A     HL       0.250000       1.00800           0
      2435 MEMB     33       POPC     H13B     HL       0.250000       1.00800           0
      2436 MEMB     33       POPC     H13C     HL       0.250000       1.00800           0
      2437 MEMB     33       POPC     C14      CTL5    -0.350000       12.0110           0
      2438 MEMB     33       POPC     H14A     HL       0.250000       1.00800           0
      2439 MEMB     33       POPC     H14B     HL       0.250000       1.00800           0
      2440 MEMB     33       POPC     H14C     HL       0.250000       1.00800           0
      2441 MEMB     33       POPC     C15      CTL5    -0.350000       12.0110           0
      2442 MEMB     33       POPC     H15A     HL       0.250000       1.00800           0
      2443 MEMB     33       POPC     H15B     HL       0.250000       1.00800           0
      2444 MEMB     33       POPC     H15C     HL       0.250000       1.00800           0
      2445 MEMB     33       POPC     C11      CTL2    -0.800000E-01   12.0110           0
      2446 MEMB     33       POPC     H11A     HAL2     0.900000E-01   1.00800           0
      2447 MEMB     33       POPC     H11B     HAL2     0.900000E-01   1.00800           0
      2448 MEMB     33       POPC     P        PL        1.50000       30.9740           0
      2449 MEMB     33       POPC     O13      O2L     -0.780000       15.9994           0
      2450 MEMB     33       POPC     O14      O2L     -0.780000       15.9994           0
      2451 MEMB     33       POPC     O12      OSLP    -0.570000       15.9994           0
      2452 MEMB     33       POPC     O11      OSLP    -0.570000       15.9994           0
      2453 MEMB     33       POPC     C1       CTL2    -0.800000E-01   12.0110           0
      2454 MEMB     33       POPC     HA       HAL2     0.900000E-01   1.00800           0
      2455 MEMB     33       POPC     HB       HAL2     0.900000E-01   1.00800           0
      2456 MEMB     33       POPC     C2       CTL1     0.170000       12.0110           0
      2457 MEMB     33       POPC     HS       HAL1     0.900000E-01   1.00800           0
      2458 MEMB     33       POPC     O21      OSL     -0.490000       15.9994           0
      2459 MEMB     33       POPC     C21      CL       0.900000       12.0110           0
      2460 MEMB     33       POPC     O22      OBL     -0.630000       15.9994           0
      2461 MEMB     33       POPC     C22      CTL2    -0.220000       12.0110           0
      2462 MEMB     33       POPC     H2R      HAL2     0.900000E-01   1.00800           0
      2463 MEMB     33       POPC     H2S      HAL2     0.900000E-01   1.00800           0
      2464 MEMB     33       POPC     C3       CTL2     0.800000E-01   12.0110           0
      2465 MEMB     33       POPC     HX       HAL2     0.900000E-01   1.00800           0
      2466 MEMB     33       POPC     HY       HAL2     0.900000E-01   1.00800           0
      2467 MEMB     33       POPC     O31      OSL     -0.490000       15.9994           0
      2468 MEMB     33       POPC     C31      CL       0.900000       12.0110           0
      2469 MEMB     33       POPC     O32      OBL     -0.630000       15.9994           0
      2470 MEMB     33       POPC     C32      CTL2    -0.220000       12.0110           0
      2471 MEMB     33       POPC     H2X      HAL2     0.900000E-01   1.00800           0
      2472 MEMB     33       POPC     H2Y      HAL2     0.900000E-01   1.00800           0
      2473 MEMB     33       POPC     C23      CTL2    -0.180000       12.0110           0
      2474 MEMB     33       POPC     H3R      HAL2     0.900000E-01   1.00800           0
      2475 MEMB     33       POPC     H3S      HAL2     0.900000E-01   1.00800           0
      2476 MEMB     33       POPC     C24      CTL2    -0.180000       12.0110           0
      2477 MEMB     33       POPC     H4R      HAL2     0.900000E-01   1.00800           0
      2478 MEMB     33       POPC     H4S      HAL2     0.900000E-01   1.00800           0
      2479 MEMB     33       POPC     C25      CTL2    -0.180000       12.0110           0
      2480 MEMB     33       POPC     H5R      HAL2     0.900000E-01   1.00800           0
      2481 MEMB     33       POPC     H5S      HAL2     0.900000E-01   1.00800           0
      2482 MEMB     33       POPC     C26      CTL2    -0.180000       12.0110           0
      2483 MEMB     33       POPC     H6R      HAL2     0.900000E-01   1.00800           0
      2484 MEMB     33       POPC     H6S      HAL2     0.900000E-01   1.00800           0
      2485 MEMB     33       POPC     C27      CTL2    -0.180000       12.0110           0
      2486 MEMB     33       POPC     H7R      HAL2     0.900000E-01   1.00800           0
      2487 MEMB     33       POPC     H7S      HAL2     0.900000E-01   1.00800           0
      2488 MEMB     33       POPC     C28      CTL2    -0.180000       12.0110           0
      2489 MEMB     33       POPC     H8R      HAL2     0.900000E-01   1.00800           0
      2490 MEMB     33       POPC     H8S      HAL2     0.900000E-01   1.00800           0
      2491 MEMB     33       POPC     C29      CEL1    -0.150000       12.0110           0
      2492 MEMB     33       POPC     H91      HEL1     0.150000       1.00800           0
      2493 MEMB     33       POPC     C210     CEL1    -0.150000       12.0110           0
      2494 MEMB     33       POPC     H101     HEL1     0.150000       1.00800           0
      2495 MEMB     33       POPC     C211     CTL2    -0.180000       12.0110           0
      2496 MEMB     33       POPC     H11R     HAL2     0.900000E-01   1.00800           0
      2497 MEMB     33       POPC     H11S     HAL2     0.900000E-01   1.00800           0
      2498 MEMB     33       POPC     C212     CTL2    -0.180000       12.0110           0
      2499 MEMB     33       POPC     H12R     HAL2     0.900000E-01   1.00800           0
      2500 MEMB     33       POPC     H12S     HAL2     0.900000E-01   1.00800           0
      2501 MEMB     33       POPC     C213     CTL2    -0.180000       12.0110           0
      2502 MEMB     33       POPC     H13R     HAL2     0.900000E-01   1.00800           0
      2503 MEMB     33       POPC     H13S     HAL2     0.900000E-01   1.00800           0
      2504 MEMB     33       POPC     C214     CTL2    -0.180000       12.0110           0
      2505 MEMB     33       POPC     H14R     HAL2     0.900000E-01   1.00800           0
      2506 MEMB     33       POPC     H14S     HAL2     0.900000E-01   1.00800           0
      2507 MEMB     33       POPC     C215     CTL2    -0.180000       12.0110           0
      2508 MEMB     33       POPC     H15R     HAL2     0.900000E-01   1.00800           0
      2509 MEMB     33       POPC     H15S     HAL2     0.900000E-01   1.00800           0
      2510 MEMB     33       POPC     C216     CTL2    -0.180000       12.0110           0
      2511 MEMB     33       POPC     H16R     HAL2     0.900000E-01   1.00800           0
      2512 MEMB     33       POPC     H16S     HAL2     0.900000E-01   1.00800           0
      2513 MEMB     33       POPC     C217     CTL2    -0.180000       12.0110           0
      2514 MEMB     33       POPC     H17R     HAL2     0.900000E-01   1.00800           0
      2515 MEMB     33       POPC     H17S     HAL2     0.900000E-01   1.00800           0
      2516 MEMB     33       POPC     C218     CTL3    -0.270000       12.0110           0
      2517 MEMB     33       POPC     H18R     HAL3     0.900000E-01   1.00800           0
      2518 MEMB     33       POPC     H18S     HAL3     0.900000E-01   1.00800           0
      2519 MEMB     33       POPC     H18T     HAL3     0.900000E-01   1.00800           0
      2520 MEMB     33       POPC     C33      CTL2    -0.180000       12.0110           0
      2521 MEMB     33       POPC     H3X      HAL2     0.900000E-01   1.00800           0
      2522 MEMB     33       POPC     H3Y      HAL2     0.900000E-01   1.00800           0
      2523 MEMB     33       POPC     C34      CTL2    -0.180000       12.0110           0
      2524 MEMB     33       POPC     H4X      HAL2     0.900000E-01   1.00800           0
      2525 MEMB     33       POPC     H4Y      HAL2     0.900000E-01   1.00800           0
      2526 MEMB     33       POPC     C35      CTL2    -0.180000       12.0110           0
      2527 MEMB     33       POPC     H5X      HAL2     0.900000E-01   1.00800           0
      2528 MEMB     33       POPC     H5Y      HAL2     0.900000E-01   1.00800           0
      2529 MEMB     33       POPC     C36      CTL2    -0.180000       12.0110           0
      2530 MEMB     33       POPC     H6X      HAL2     0.900000E-01   1.00800           0
      2531 MEMB     33       POPC     H6Y      HAL2     0.900000E-01   1.00800           0
      2532 MEMB     33       POPC     C37      CTL2    -0.180000       12.0110           0
      2533 MEMB     33       POPC     H7X      HAL2     0.900000E-01   1.00800           0
      2534 MEMB     33       POPC     H7Y      HAL2     0.900000E-01   1.00800           0
      2535 MEMB     33       POPC     C38      CTL2    -0.180000       12.0110           0
      2536 MEMB     33       POPC     H8X      HAL2     0.900000E-01   1.00800           0
      2537 MEMB     33       POPC     H8Y      HAL2     0.900000E-01   1.00800           0
      2538 MEMB     33       POPC     C39      CTL2    -0.180000       12.0110           0
      2539 MEMB     33       POPC     H9X      HAL2     0.900000E-01   1.00800           0
      2540 MEMB     33       POPC     H9Y      HAL2     0.900000E-01   1.00800           0
      2541 MEMB     33       POPC     C310     CTL2    -0.180000       12.0110           0
      2542 MEMB     33       POPC     H10X     HAL2     0.900000E-01   1.00800           0
      2543 MEMB     33       POPC     H10Y     HAL2     0.900000E-01   1.00800           0
      2544 MEMB     33       POPC     C311     CTL2    -0.180000       12.0110           0
      2545 MEMB     33       POPC     H11X     HAL2     0.900000E-01   1.00800           0
      2546 MEMB     33       POPC     H11Y     HAL2     0.900000E-01   1.00800           0
      2547 MEMB     33       POPC     C312     CTL2    -0.180000       12.0110           0
      2548 MEMB     33       POPC     H12X     HAL2     0.900000E-01   1.00800           0
      2549 MEMB     33       POPC     H12Y     HAL2     0.900000E-01   1.00800           0
      2550 MEMB     33       POPC     C313     CTL2    -0.180000       12.0110           0
      2551 MEMB     33       POPC     H13X     HAL2     0.900000E-01   1.00800           0
      2552 MEMB     33       POPC     H13Y     HAL2     0.900000E-01   1.00800           0
      2553 MEMB     33       POPC     C314     CTL2    -0.180000       12.0110           0
      2554 MEMB     33       POPC     H14X     HAL2     0.900000E-01   1.00800           0
      2555 MEMB     33       POPC     H14Y     HAL2     0.900000E-01   1.00800           0
      2556 MEMB     33       POPC     C315     CTL2    -0.180000       12.0110           0
      2557 MEMB     33       POPC     H15X     HAL2     0.900000E-01   1.00800           0
      2558 MEMB     33       POPC     H15Y     HAL2     0.900000E-01   1.00800           0
      2559 MEMB     33       POPC     C316     CTL3    -0.270000       12.0110           0
      2560 MEMB     33       POPC     H16X     HAL3     0.900000E-01   1.00800           0
      2561 MEMB     33       POPC     H16Y     HAL3     0.900000E-01   1.00800           0
      2562 MEMB     33       POPC     H16Z     HAL3     0.900000E-01   1.00800           0
      2563 MEMB     34       POPC     N        NTL     -0.600000       14.0070           0
      2564 MEMB     34       POPC     C12      CTL2    -0.100000       12.0110           0
      2565 MEMB     34       POPC     H12A     HL       0.250000       1.00800           0
      2566 MEMB     34       POPC     H12B     HL       0.250000       1.00800           0
      2567 MEMB     34       POPC     C13      CTL5    -0.350000       12.0110           0
      2568 MEMB     34       POPC     H13A     HL       0.250000       1.00800           0
      2569 MEMB     34       POPC     H13B     HL       0.250000       1.00800           0
      2570 MEMB     34       POPC     H13C     HL       0.250000       1.00800           0
      2571 MEMB     34       POPC     C14      CTL5    -0.350000       12.0110           0
      2572 MEMB     34       POPC     H14A     HL       0.250000       1.00800           0
      2573 MEMB     34       POPC     H14B     HL       0.250000       1.00800           0
      2574 MEMB     34       POPC     H14C     HL       0.250000       1.00800           0
      2575 MEMB     34       POPC     C15      CTL5    -0.350000       12.0110           0
      2576 MEMB     34       POPC     H15A     HL       0.250000       1.00800           0
      2577 MEMB     34       POPC     H15B     HL       0.250000       1.00800           0
      2578 MEMB     34       POPC     H15C     HL       0.250000       1.00800           0
      2579 MEMB     34       POPC     C11      CTL2    -0.800000E-01   12.0110           0
      2580 MEMB     34       POPC     H11A     HAL2     0.900000E-01   1.00800           0
      2581 MEMB     34       POPC     H11B     HAL2     0.900000E-01   1.00800           0
      2582 MEMB     34       POPC     P        PL        1.50000       30.9740           0
      2583 MEMB     34       POPC     O13      O2L     -0.780000       15.9994           0
      2584 MEMB     34       POPC     O14      O2L     -0.780000       15.9994           0
      2585 MEMB     34       POPC     O12      OSLP    -0.570000       15.9994           0
      2586 MEMB     34       POPC     O11      OSLP    -0.570000       15.9994           0
      2587 MEMB     34       POPC     C1       CTL2    -0.800000E-01   12.0110           0
      2588 MEMB     34       POPC     HA       HAL2     0.900000E-01   1.00800           0
      2589 MEMB     34       POPC     HB       HAL2     0.900000E-01   1.00800           0
      2590 MEMB     34       POPC     C2       CTL1     0.170000       12.0110           0
      2591 MEMB     34       POPC     HS       HAL1     0.900000E-01   1.00800           0
      2592 MEMB     34       POPC     O21      OSL     -0.490000       15.9994           0
      2593 MEMB     34       POPC     C21      CL       0.900000       12.0110           0
      2594 MEMB     34       POPC     O22      OBL     -0.630000       15.9994           0
      2595 MEMB     34       POPC     C22      CTL2    -0.220000       12.0110           0
      2596 MEMB     34       POPC     H2R      HAL2     0.900000E-01   1.00800           0
      2597 MEMB     34       POPC     H2S      HAL2     0.900000E-01   1.00800           0
      2598 MEMB     34       POPC     C3       CTL2     0.800000E-01   12.0110           0
      2599 MEMB     34       POPC     HX       HAL2     0.900000E-01   1.00800           0
      2600 MEMB     34       POPC     HY       HAL2     0.900000E-01   1.00800           0
      2601 MEMB     34       POPC     O31      OSL     -0.490000       15.9994           0
      2602 MEMB     34       POPC     C31      CL       0.900000       12.0110           0
      2603 MEMB     34       POPC     O32      OBL     -0.630000       15.9994           0
      2604 MEMB     34       POPC     C32      CTL2    -0.220000       12.0110           0
      2605 MEMB     34       POPC     H2X      HAL2     0.900000E-01   1.00800           0
      2606 MEMB     34       POPC     H2Y      HAL2     0.900000E-01   1.00800           0
      2607 MEMB     34       POPC     C23      CTL2    -0.180000       12.0110           0
      2608 MEMB     34       POPC     H3R      HAL2     0.900000E-01   1.00800           0
      2609 MEMB     34       POPC     H3S      HAL2     0.900000E-01   1.00800           0
      2610 MEMB     34       POPC     C24      CTL2    -0.180000       12.0110           0
      2611 MEMB     34       POPC     H4R      HAL2     0.900000E-01   1.00800           0
      2612 MEMB     34       POPC     H4S      HAL2     0.900000E-01   1.00800           0
      2613 MEMB     34       POPC     C25      CTL2    -0.180000       12.0110           0
      2614 MEMB     34       POPC     H5R      HAL2     0.900000E-01   1.00800           0
      2615 MEMB     34       POPC     H5S      HAL2     0.900000E-01   1.00800           0
      2616 MEMB     34       POPC     C26      CTL2    -0.180000       12.0110           0
      2617 MEMB     34       POPC     H6R      HAL2     0.900000E-01   1.00800           0
      2618 MEMB     34       POPC     H6S      HAL2     0.900000E-01   1.00800           0
      2619 MEMB     34       POPC     C27      CTL2    -0.180000       12.0110           0
      2620 MEMB     34       POPC     H7R      HAL2     0.900000E-01   1.00800           0
      2621 MEMB     34       POPC     H7S      HAL2     0.900000E-01   1.00800           0
      2622 MEMB     34       POPC     C28      CTL2    -0.180000       12.0110           0
      2623 MEMB     34       POPC     H8R      HAL2     0.900000E-01   1.00800           0
      2624 MEMB     34       POPC     H8S      HAL2     0.900000E-01   1.00800           0
      2625 MEMB     34       POPC     C29      CEL1    -0.150000       12.0110           0
      2626 MEMB     34       POPC     H91      HEL1     0.150000       1.00800           0
      2627 MEMB     34       POPC     C210     CEL1    -0.150000       12.0110           0
      2628 MEMB     34       POPC     H101     HEL1     0.150000       1.00800           0
      2629 MEMB     34       POPC     C211     CTL2    -0.180000       12.0110           0
      2630 MEMB     34       POPC     H11R     HAL2     0.900000E-01   1.00800           0
      2631 MEMB     34       POPC     H11S     HAL2     0.900000E-01   1.00800           0
      2632 MEMB     34       POPC     C212     CTL2    -0.180000       12.0110           0
      2633 MEMB     34       POPC     H12R     HAL2     0.900000E-01   1.00800           0
      2634 MEMB     34       POPC     H12S     HAL2     0.900000E-01   1.00800           0
      2635 MEMB     34       POPC     C213     CTL2    -0.180000       12.0110           0
      2636 MEMB     34       POPC     H13R     HAL2     0.900000E-01   1.00800           0
      2637 MEMB     34       POPC     H13S     HAL2     0.900000E-01   1.00800           0
      2638 MEMB     34       POPC     C214     CTL2    -0.180000       12.0110           0
      2639 MEMB     34       POPC     H14R     HAL2     0.900000E-01   1.00800           0
      2640 MEMB     34       POPC     H14S     HAL2     0.900000E-01   1.00800           0
      2641 MEMB     34       POPC     C215     CTL2    -0.180000       12.0110           0
      2642 MEMB     34       POPC     H15R     HAL2     0.900000E-01   1.00800           0
      2643 MEMB     34       POPC     H15S     HAL2     0.900000E-01   1.00800           0
      2644 MEMB     34       POPC     C216     CTL2    -0.180000       12.0110           0
      2645 MEMB     34       POPC     H16R     HAL2     0.900000E-01   1.00800           0
      2646 MEMB     34       POPC     H16S     HAL2     0.900000E-01   1.00800           0
      2647 MEMB     34       POPC     C217     CTL2    -0.180000       12.0110           0
      2648 MEMB     34       POPC     H17R     HAL2     0.900000E-01   1.00800           0
      2649 MEMB     34       POPC     H17S     HAL2     0.900000E-01   1.00800           0
      2650 MEMB     34       POPC     C218     CTL3    -0.270000       12.0110           0
      2651 MEMB     34       POPC     H18R     HAL3     0.900000E-01   1.00800           0
      2652 MEMB     34       POPC     H18S     HAL3     0.900000E-01   1.00800           0
      2653 MEMB     34       POPC     H18T     HAL3     0.900000E-01   1.00800           0
      2654 MEMB     34       POPC     C33      CTL2    -0.180000       12.0110           0
      2655 MEMB     34       POPC     H3X      HAL2     0.900000E-01   1.00800           0
      2656 MEMB     34       POPC     H3Y      HAL2     0.900000E-01   1.00800           0
      2657 MEMB     34       POPC     C34      CTL2    -0.180000       12.0110           0
      2658 MEMB     34       POPC     H4X      HAL2     0.900000E-01   1.00800           0
      2659 MEMB     34       POPC     H4Y      HAL2     0.900000E-01   1.00800           0
      2660 MEMB     34       POPC     C35      CTL2    -0.180000       12.0110           0
      2661 MEMB     34       POPC     H5X      HAL2     0.900000E-01   1.00800           0
      2662 MEMB     34       POPC     H5Y      HAL2     0.900000E-01   1.00800           0
      2663 MEMB     34       POPC     C36      CTL2    -0.180000       12.0110           0
      2664 MEMB     34       POPC     H6X      HAL2     0.900000E-01   1.00800           0
      2665 MEMB     34       POPC     H6Y      HAL2     0.900000E-01   1.00800           0
      2666 MEMB     34       POPC     C37      CTL2    -0.180000       12.0110           0
      2667 MEMB     34       POPC     H7X      HAL2     0.900000E-01   1.00800           0
      2668 MEMB     34       POPC     H7Y      HAL2     0.900000E-01   1.00800           0
      2669 MEMB     34       POPC     C38      CTL2    -0.180000       12.0110           0
      2670 MEMB     34       POPC     H8X      HAL2     0.900000E-01   1.00800           0
      2671 MEMB     34       POPC     H8Y      HAL2     0.900000E-01   1.00800           0
      2672 MEMB     34       POPC     C39      CTL2    -0.180000       12.0110           0
      2673 MEMB     34       POPC     H9X      HAL2     0.900000E-01   1.00800           0
      2674 MEMB     34       POPC     H9Y      HAL2     0.900000E-01   1.00800           0
      2675 MEMB     34       POPC     C310     CTL2    -0.180000       12.0110           0
      2676 MEMB     34       POPC     H10X     HAL2     0.900000E-01   1.00800           0
      2677 MEMB     34       POPC     H10Y     HAL2     0.900000E-01   1.00800           0
      2678 MEMB     34       POPC     C311     CTL2    -0.180000       12.0110           0
      2679 MEMB     34       POPC     H11X     HAL2     0.900000E-01   1.00800           0
      2680 MEMB     34       POPC     H11Y     HAL2     0.900000E-01   1.00800           0
      2681 MEMB     34       POPC     C312     CTL2    -0.180000       12.0110           0
      2682 MEMB     34       POPC     H12X     HAL2     0.900000E-01   1.00800           0
      2683 MEMB     34       POPC     H12Y     HAL2     0.900000E-01   1.00800           0
      2684 MEMB     34       POPC     C313     CTL2    -0.180000       12.0110           0
      2685 MEMB     34       POPC     H13X     HAL2     0.900000E-01   1.00800           0
      2686 MEMB     34       POPC     H13Y     HAL2     0.900000E-01   1.00800           0
      2687 MEMB     34       POPC     C314     CTL2    -0.180000       12.0110           0
      2688 MEMB     34       POPC     H14X     HAL2     0.900000E-01   1.00800           0
      2689 MEMB     34       POPC     H14Y     HAL2     0.900000E-01   1.00800           0
      2690 MEMB     34       POPC     C315     CTL2    -0.180000       12.0110           0
      2691 MEMB     34       POPC     H15X     HAL2     0.900000E-01   1.00800           0
      2692 MEMB     34       POPC     H15Y     HAL2     0.900000E-01   1.00800           0
      2693 MEMB     34       POPC     C316     CTL3    -0.270000       12.0110           0
      2694 MEMB     34       POPC     H16X     HAL3     0.900000E-01   1.00800           0
      2695 MEMB     34       POPC     H16Y     HAL3     0.900000E-01   1.00800           0
      2696 MEMB     34       POPC     H16Z     HAL3     0.900000E-01   1.00800           0
      2697 MEMB     35       POPC     N        NTL     -0.600000       14.0070           0
      2698 MEMB     35       POPC     C12      CTL2    -0.100000       12.0110           0
      2699 MEMB     35       POPC     H12A     HL       0.250000       1.00800           0
      2700 MEMB     35       POPC     H12B     HL       0.250000       1.00800           0
      2701 MEMB     35       POPC     C13      CTL5    -0.350000       12.0110           0
      2702 MEMB     35       POPC     H13A     HL       0.250000       1.00800           0
      2703 MEMB     35       POPC     H13B     HL       0.250000       1.00800           0
      2704 MEMB     35       POPC     H13C     HL       0.250000       1.00800           0
      2705 MEMB     35       POPC     C14      CTL5    -0.350000       12.0110           0
      2706 MEMB     35       POPC     H14A     HL       0.250000       1.00800           0
      2707 MEMB     35       POPC     H14B     HL       0.250000       1.00800           0
      2708 MEMB     35       POPC     H14C     HL       0.250000       1.00800           0
      2709 MEMB     35       POPC     C15      CTL5    -0.350000       12.0110           0
      2710 MEMB     35       POPC     H15A     HL       0.250000       1.00800           0
      2711 MEMB     35       POPC     H15B     HL       0.250000       1.00800           0
      2712 MEMB     35       POPC     H15C     HL       0.250000       1.00800           0
      2713 MEMB     35       POPC     C11      CTL2    -0.800000E-01   12.0110           0
      2714 MEMB     35       POPC     H11A     HAL2     0.900000E-01   1.00800           0
      2715 MEMB     35       POPC     H11B     HAL2     0.900000E-01   1.00800           0
      2716 MEMB     35       POPC     P        PL        1.50000       30.9740           0
      2717 MEMB     35       POPC     O13      O2L     -0.780000       15.9994           0
      2718 MEMB     35       POPC     O14      O2L     -0.780000       15.9994           0
      2719 MEMB     35       POPC     O12      OSLP    -0.570000       15.9994           0
      2720 MEMB     35       POPC     O11      OSLP    -0.570000       15.9994           0
      2721 MEMB     35       POPC     C1       CTL2    -0.800000E-01   12.0110           0
      2722 MEMB     35       POPC     HA       HAL2     0.900000E-01   1.00800           0
      2723 MEMB     35       POPC     HB       HAL2     0.900000E-01   1.00800           0
      2724 MEMB     35       POPC     C2       CTL1     0.170000       12.0110           0
      2725 MEMB     35       POPC     HS       HAL1     0.900000E-01   1.00800           0
      2726 MEMB     35       POPC     O21      OSL     -0.490000       15.9994           0
      2727 MEMB     35       POPC     C21      CL       0.900000       12.0110           0
      2728 MEMB     35       POPC     O22      OBL     -0.630000       15.9994           0
      2729 MEMB     35       POPC     C22      CTL2    -0.220000       12.0110           0
      2730 MEMB     35       POPC     H2R      HAL2     0.900000E-01   1.00800           0
      2731 MEMB     35       POPC     H2S      HAL2     0.900000E-01   1.00800           0
      2732 MEMB     35       POPC     C3       CTL2     0.800000E-01   12.0110           0
      2733 MEMB     35       POPC     HX       HAL2     0.900000E-01   1.00800           0
      2734 MEMB     35       POPC     HY       HAL2     0.900000E-01   1.00800           0
      2735 MEMB     35       POPC     O31      OSL     -0.490000       15.9994           0
      2736 MEMB     35       POPC     C31      CL       0.900000       12.0110           0
      2737 MEMB     35       POPC     O32      OBL     -0.630000       15.9994           0
      2738 MEMB     35       POPC     C32      CTL2    -0.220000       12.0110           0
      2739 MEMB     35       POPC     H2X      HAL2     0.900000E-01   1.00800           0
      2740 MEMB     35       POPC     H2Y      HAL2     0.900000E-01   1.00800           0
      2741 MEMB     35       POPC     C23      CTL2    -0.180000       12.0110           0
      2742 MEMB     35       POPC     H3R      HAL2     0.900000E-01   1.00800           0
      2743 MEMB     35       POPC     H3S      HAL2     0.900000E-01   1.00800           0
      2744 MEMB     35       POPC     C24      CTL2    -0.180000       12.0110           0
      2745 MEMB     35       POPC     H4R      HAL2     0.900000E-01   1.00800           0
      2746 MEMB     35       POPC     H4S      HAL2     0.900000E-01   1.00800           0
      2747 MEMB     35       POPC     C25      CTL2    -0.180000       12.0110           0
      2748 MEMB     35       POPC     H5R      HAL2     0.900000E-01   1.00800           0
      2749 MEMB     35       POPC     H5S      HAL2     0.900000E-01   1.00800           0
      2750 MEMB     35       POPC     C26      CTL2    -0.180000       12.0110           0
      2751 MEMB     35       POPC     H6R      HAL2     0.900000E-01   1.00800           0
      2752 MEMB     35       POPC     H6S      HAL2     0.900000E-01   1.00800           0
      2753 MEMB     35       POPC     C27      CTL2    -0.180000       12.0110           0
      2754 MEMB     35       POPC     H7R      HAL2     0.900000E-01   1.00800           0
      2755 MEMB     35       POPC     H7S      HAL2     0.900000E-01   1.00800           0
      2756 MEMB     35       POPC     C28      CTL2    -0.180000       12.0110           0
      2757 MEMB     35       POPC     H8R      HAL2     0.900000E-01   1.00800           0
      2758 MEMB     35       POPC     H8S      HAL2     0.900000E-01   1.00800           0
      2759 MEMB     35       POPC     C29      CEL1    -0.150000       12.0110           0
      2760 MEMB     35       POPC     H91      HEL1     0.150000       1.00800           0
      2761 MEMB     35       POPC     C210     CEL1    -0.150000       12.0110           0
      2762 MEMB     35       POPC     H101     HEL1     0.150000       1.00800           0
      2763 MEMB     35       POPC     C211     CTL2    -0.180000       12.0110           0
      2764 MEMB     35       POPC     H11R     HAL2     0.900000E-01   1.00800           0
      2765 MEMB     35       POPC     H11S     HAL2     0.900000E-01   1.00800           0
      2766 MEMB     35       POPC     C212     CTL2    -0.180000       12.0110           0
      2767 MEMB     35       POPC     H12R     HAL2     0.900000E-01   1.00800           0
      2768 MEMB     35       POPC     H12S     HAL2     0.900000E-01   1.00800           0
      2769 MEMB     35       POPC     C213     CTL2    -0.180000       12.0110           0
      2770 MEMB     35       POPC     H13R     HAL2     0.900000E-01   1.00800           0
      2771 MEMB     35       POPC     H13S     HAL2     0.900000E-01   1.00800           0
      2772 MEMB     35       POPC     C214     CTL2    -0.180000       12.0110           0
      2773 MEMB     35       POPC     H14R     HAL2     0.900000E-01   1.00800           0
      2774 MEMB     35       POPC     H14S     HAL2     0.900000E-01   1.00800           0
      2775 MEMB     35       POPC     C215     CTL2    -0.180000       12.0110           0
      2776 MEMB     35       POPC     H15R     HAL2     0.900000E-01   1.00800           0
      2777 MEMB     35       POPC     H15S     HAL2     0.900000E-01   1.00800           0
      2778 MEMB     35       POPC     C216     CTL2    -0.180000       12.0110           0
      2779 MEMB     35       POPC     H16R     HAL2     0.900000E-01   1.00800           0
      2780 MEMB     35       POPC     H16S     HAL2     0.900000E-01   1.00800           0
      2781 MEMB     35       POPC     C217     CTL2    -0.180000       12.0110           0
      2782 MEMB     35       POPC     H17R     HAL2     0.900000E-01   1.00800           0
      2783 MEMB     35       POPC     H17S     HAL2     0.900000E-01   1.00800           0
      2784 MEMB     35       POPC     C218     CTL3    -0.270000       12.0110           0
      2785 MEMB     35       POPC     H18R     HAL3     0.900000E-01   1.00800           0
      2786 MEMB     35       POPC     H18S     HAL3     0.900000E-01   1.00800           0
      2787 MEMB     35       POPC     H18T     HAL3     0.900000E-01   1.00800           0
      2788 MEMB     35       POPC     C33      CTL2    -0.180000       12.0110           0
      2789 MEMB     35       POPC     H3X      HAL2     0.900000E-01   1.00800           0
      2790 MEMB     35       POPC     H3Y      HAL2     0.900000E-01   1.00800           0
      2791 MEMB     35       POPC     C34      CTL2    -0.180000       12.0110           0
      2792 MEMB     35       POPC     H4X      HAL2     0.900000E-01   1.00800           0
      2793 MEMB     35       POPC     H4Y      HAL2     0.900000E-01   1.00800           0
      2794 MEMB     35       POPC     C35      CTL2    -0.180000       12.0110           0
      2795 MEMB     35       POPC     H5X      HAL2     0.900000E-01   1.00800           0
      2796 MEMB     35       POPC     H5Y      HAL2     0.900000E-01   1.00800           0
      2797 MEMB     35       POPC     C36      CTL2    -0.180000       12.0110           0
      2798 MEMB     35       POPC     H6X      HAL2     0.900000E-01   1.00800           0
      2799 MEMB     35       POPC     H6Y      HAL2     0.900000E-01   1.00800           0
      2800 MEMB     35       POPC     C37      CTL2    -0.180000       12.0110           0
      2801 MEMB     35       POPC     H7X      HAL2     0.900000E-01   1.00800           0
      2802 MEMB     35       POPC     H7Y      HAL2     0.900000E-01   1.00800           0
      2803 MEMB     35       POPC     C38      CTL2    -0.180000       12.0110           0
      2804 MEMB     35       POPC     H8X      HAL2     0.900000E-01   1.00800           0
      2805 MEMB     35       POPC     H8Y      HAL2     0.900000E-01   1.00800           0
      2806 MEMB     35       POPC     C39      CTL2    -0.180000       12.0110           0
      2807 MEMB     35       POPC     H9X      HAL2     0.900000E-01   1.00800           0
      2808 MEMB     35       POPC     H9Y      HAL2     0.900000E-01   1.00800           0
      2809 MEMB     35       POPC     C310     CTL2    -0.180000       12.0110           0
      2810 MEMB     35       POPC     H10X     HAL2     0.900000E-01   1.00800           0
      2811 MEMB     35       POPC     H10Y     HAL2     0.900000E-01   1.00800           0
      2812 MEMB     35       POPC     C311     CTL2    -0.180000       12.0110           0
      2813 MEMB     35       POPC     H11X     HAL2     0.900000E-01   1.00800           0
      2814 MEMB     35       POPC     H11Y     HAL2     0.900000E-01   1.00800           0
      2815 MEMB     35       POPC     C312     CTL2    -0.180000       12.0110           0
      2816 MEMB     35       POPC     H12X     HAL2     0.900000E-01   1.00800           0
      2817 MEMB     35       POPC     H12Y     HAL2     0.900000E-01   1.00800           0
      2818 MEMB     35       POPC     C313     CTL2    -0.180000       12.0110           0
      2819 MEMB     35       POPC     H13X     HAL2     0.900000E-01   1.00800           0
      2820 MEMB     35       POPC     H13Y     HAL2     0.900000E-01   1.00800           0
      2821 MEMB     35       POPC     C314     CTL2    -0.180000       12.0110           0
      2822 MEMB     35       POPC     H14X     HAL2     0.900000E-01   1.00800           0
      2823 MEMB     35       POPC     H14Y     HAL2     0.900000E-01   1.00800           0
      2824 MEMB     35       POPC     C315     CTL2    -0.180000       12.0110           0
      2825 MEMB     35       POPC     H15X     HAL2     0.900000E-01   1.00800           0
      2826 MEMB     35       POPC     H15Y     HAL2     0.900000E-01   1.00800           0
      2827 MEMB     35       POPC     C316     CTL3    -0.270000       12.0110           0
      2828 MEMB     35       POPC     H16X     HAL3     0.900000E-01   1.00800           0
      2829 MEMB     35       POPC     H16Y     HAL3     0.900000E-01   1.00800           0
      2830 MEMB     35       POPC     H16Z     HAL3     0.900000E-01   1.00800           0
      2831 MEMB     36       POPC     N        NTL     -0.600000       14.0070           0
      2832 MEMB     36       POPC     C12      CTL2    -0.100000       12.0110           0
      2833 MEMB     36       POPC     H12A     HL       0.250000       1.00800           0
      2834 MEMB     36       POPC     H12B     HL       0.250000       1.00800           0
      2835 MEMB     36       POPC     C13      CTL5    -0.350000       12.0110           0
      2836 MEMB     36       POPC     H13A     HL       0.250000       1.00800           0
      2837 MEMB     36       POPC     H13B     HL       0.250000       1.00800           0
      2838 MEMB     36       POPC     H13C     HL       0.250000       1.00800           0
      2839 MEMB     36       POPC     C14      CTL5    -0.350000       12.0110           0
      2840 MEMB     36       POPC     H14A     HL       0.250000       1.00800           0
      2841 MEMB     36       POPC     H14B     HL       0.250000       1.00800           0
      2842 MEMB     36       POPC     H14C     HL       0.250000       1.00800           0
      2843 MEMB     36       POPC     C15      CTL5    -0.350000       12.0110           0
      2844 MEMB     36       POPC     H15A     HL       0.250000       1.00800           0
      2845 MEMB     36       POPC     H15B     HL       0.250000       1.00800           0
      2846 MEMB     36       POPC     H15C     HL       0.250000       1.00800           0
      2847 MEMB     36       POPC     C11      CTL2    -0.800000E-01   12.0110           0
      2848 MEMB     36       POPC     H11A     HAL2     0.900000E-01   1.00800           0
      2849 MEMB     36       POPC     H11B     HAL2     0.900000E-01   1.00800           0
      2850 MEMB     36       POPC     P        PL        1.50000       30.9740           0
      2851 MEMB     36       POPC     O13      O2L     -0.780000       15.9994           0
      2852 MEMB     36       POPC     O14      O2L     -0.780000       15.9994           0
      2853 MEMB     36       POPC     O12      OSLP    -0.570000       15.9994           0
      2854 MEMB     36       POPC     O11      OSLP    -0.570000       15.9994           0
      2855 MEMB     36       POPC     C1       CTL2    -0.800000E-01   12.0110           0
      2856 MEMB     36       POPC     HA       HAL2     0.900000E-01   1.00800           0
      2857 MEMB     36       POPC     HB       HAL2     0.900000E-01   1.00800           0
      2858 MEMB     36       POPC     C2       CTL1     0.170000       12.0110           0
      2859 MEMB     36       POPC     HS       HAL1     0.900000E-01   1.00800           0
      2860 MEMB     36       POPC     O21      OSL     -0.490000       15.9994           0
      2861 MEMB     36       POPC     C21      CL       0.900000       12.0110           0
      2862 MEMB     36       POPC     O22      OBL     -0.630000       15.9994           0
      2863 MEMB     36       POPC     C22      CTL2    -0.220000       12.0110           0
      2864 MEMB     36       POPC     H2R      HAL2     0.900000E-01   1.00800           0
      2865 MEMB     36       POPC     H2S      HAL2     0.900000E-01   1.00800           0
      2866 MEMB     36       POPC     C3       CTL2     0.800000E-01   12.0110           0
      2867 MEMB     36       POPC     HX       HAL2     0.900000E-01   1.00800           0
      2868 MEMB     36       POPC     HY       HAL2     0.900000E-01   1.00800           0
      2869 MEMB     36       POPC     O31      OSL     -0.490000       15.9994           0
      2870 MEMB     36       POPC     C31      CL       0.900000       12.0110           0
      2871 MEMB     36       POPC     O32      OBL     -0.630000       15.9994           0
      2872 MEMB     36       POPC     C32      CTL2    -0.220000       12.0110           0
      2873 MEMB     36       POPC     H2X      HAL2     0.900000E-01   1.00800           0
      2874 MEMB     36       POPC     H2Y      HAL2     0.900000E-01   1.00800           0
      2875 MEMB     36       POPC     C23      CTL2    -0.180000       12.0110           0
      2876 MEMB     36       POPC     H3R      HAL2     0.900000E-01   1.00800           0
      2877 MEMB     36       POPC     H3S      HAL2     0.900000E-01   1.00800           0
      2878 MEMB     36       POPC     C24      CTL2    -0.180000       12.0110           0
      2879 MEMB     36       POPC     H4R      HAL2     0.900000E-01   1.00800           0
      2880 MEMB     36       POPC     H4S      HAL2     0.900000E-01   1.00800           0
      2881 MEMB     36       POPC     C25      CTL2    -0.180000       12.0110           0
      2882 MEMB     36       POPC     H5R      HAL2     0.900000E-01   1.00800           0
      2883 MEMB     36       POPC     H5S      HAL2     0.900000E-01   1.00800           0
      2884 MEMB     36       POPC     C26      CTL2    -0.180000       12.0110           0
      2885 MEMB     36       POPC     H6R      HAL2     0.900000E-01   1.00800           0
      2886 MEMB     36       POPC     H6S      HAL2     0.900000E-01   1.00800           0
      2887 MEMB     36       POPC     C27      CTL2    -0.180000       12.0110           0
      2888 MEMB     36       POPC     H7R      HAL2     0.900000E-01   1.00800           0
      2889 MEMB     36       POPC     H7S      HAL2     0.900000E-01   1.00800           0
      2890 MEMB     36       POPC     C28      CTL2    -0.180000       12.0110           0
      2891 MEMB     36       POPC     H8R      HAL2     0.900000E-01   1.00800           0
      2892 MEMB     36       POPC     H8S      HAL2     0.900000E-01   1.00800           0
      2893 MEMB     36       POPC     C29      CEL1    -0.150000       12.0110           0
      2894 MEMB     36       POPC     H91      HEL1     0.150000       1.00800           0
      2895 MEMB     36       POPC     C210     CEL1    -0.150000       12.0110           0
      2896 MEMB     36       POPC     H101     HEL1     0.150000       1.00800           0
      2897 MEMB     36       POPC     C211     CTL2    -0.180000       12.0110           0
      2898 MEMB     36       POPC     H11R     HAL2     0.900000E-01   1.00800           0
      2899 MEMB     36       POPC     H11S     HAL2     0.900000E-01   1.00800           0
      2900 MEMB     36       POPC     C212     CTL2    -0.180000       12.0110           0
      2901 MEMB     36       POPC     H12R     HAL2     0.900000E-01   1.00800           0
      2902 MEMB     36       POPC     H12S     HAL2     0.900000E-01   1.00800           0
      2903 MEMB     36       POPC     C213     CTL2    -0.180000       12.0110           0
      2904 MEMB     36       POPC     H13R     HAL2     0.900000E-01   1.00800           0
      2905 MEMB     36       POPC     H13S     HAL2     0.900000E-01   1.00800           0
      2906 MEMB     36       POPC     C214     CTL2    -0.180000       12.0110           0
      2907 MEMB     36       POPC     H14R     HAL2     0.900000E-01   1.00800           0
      2908 MEMB     36       POPC     H14S     HAL2     0.900000E-01   1.00800           0
      2909 MEMB     36       POPC     C215     CTL2    -0.180000       12.0110           0
      2910 MEMB     36       POPC     H15R     HAL2     0.900000E-01   1.00800           0
      2911 MEMB     36       POPC     H15S     HAL2     0.900000E-01   1.00800           0
      2912 MEMB     36       POPC     C216     CTL2    -0.180000       12.0110           0
      2913 MEMB     36       POPC     H16R     HAL2     0.900000E-01   1.00800           0
      2914 MEMB     36       POPC     H16S     HAL2     0.900000E-01   1.00800           0
      2915 MEMB     36       POPC     C217     CTL2    -0.180000       12.0110           0
      2916 MEMB     36       POPC     H17R     HAL2     0.900000E-01   1.00800           0
      2917 MEMB     36       POPC     H17S     HAL2     0.900000E-01   1.00800           0
      2918 MEMB     36       POPC     C218     CTL3    -0.270000       12.0110           0
      2919 MEMB     36       POPC     H18R     HAL3     0.900000E-01   1.00800           0
      2920 MEMB     36       POPC     H18S     HAL3     0.900000E-01   1.00800           0
      2921 MEMB     36       POPC     H18T     HAL3     0.900000E-01   1.00800           0
      2922 MEMB     36       POPC     C33      CTL2    -0.180000       12.0110           0
      2923 MEMB     36       POPC     H3X      HAL2     0.900000E-01   1.00800           0
      2924 MEMB     36       POPC     H3Y      HAL2     0.900000E-01   1.00800           0
      2925 MEMB     36       POPC     C34      CTL2    -0.180000       12.0110           0
      2926 MEMB     36       POPC     H4X      HAL2     0.900000E-01   1.00800           0
      2927 MEMB     36       POPC     H4Y      HAL2     0.900000E-01   1.00800           0
      2928 MEMB     36       POPC     C35      CTL2    -0.180000       12.0110           0
      2929 MEMB     36       POPC     H5X      HAL2     0.900000E-01   1.00800           0
      2930 MEMB     36       POPC     H5Y      HAL2     0.900000E-01   1.00800           0
      2931 MEMB     36       POPC     C36      CTL2    -0.180000       12.0110           0
      2932 MEMB     36       POPC     H6X      HAL2     0.900000E-01   1.00800           0
      2933 MEMB     36       POPC     H6Y      HAL2     0.900000E-01   1.00800           0
      2934 MEMB     36       POPC     C37      CTL2    -0.180000       12.0110           0
      2935 MEMB     36       POPC     H7X      HAL2     0.900000E-01   1.00800           0
      2936 MEMB     36       POPC     H7Y      HAL2     0.900000E-01   1.00800           0
      2937 MEMB     36       POPC     C38      CTL2    -0.180000       12.0110           0
      2938 MEMB     36       POPC     H8X      HAL2     0.900000E-01   1.00800           0
      2939 MEMB     36       POPC     H8Y      HAL2     0.900000E-01   1.00800           0
      2940 MEMB     36       POPC     C39      CTL2    -0.180000       12.0110           0
      2941 MEMB     36       POPC     H9X      HAL2     0.900000E-01   1.00800           0
      2942 MEMB     36       POPC     H9Y      HAL2     0.900000E-01   1.00800           0
      2943 MEMB     36       POPC     C310     CTL2    -0.180000       12.0110           0
      2944 MEMB     36       POPC     H10X     HAL2     0.900000E-01   1.00800           0
      2945 MEMB     36       POPC     H10Y     HAL2     0.900000E-01   1.00800           0
      2946 MEMB     36       POPC     C311     CTL2    -0.180000       12.0110           0
      2947 MEMB     36       POPC     H11X     HAL2     0.900000E-01   1.00800           0
      2948 MEMB     36       POPC     H11Y     HAL2     0.900000E-01   1.00800           0
      2949 MEMB     36       POPC     C312     CTL2    -0.180000       12.0110           0
      2950 MEMB     36       POPC     H12X     HAL2     0.900000E-01   1.00800           0
      2951 MEMB     36       POPC     H12Y     HAL2     0.900000E-01   1.00800           0
      2952 MEMB     36       POPC     C313     CTL2    -0.180000       12.0110           0
      2953 MEMB     36       POPC     H13X     HAL2     0.900000E-01   1.00800           0
      2954 MEMB     36       POPC     H13Y     HAL2     0.900000E-01   1.00800           0
      2955 MEMB     36       POPC     C314     CTL2    -0.180000       12.0110           0
      2956 MEMB     36       POPC     H14X     HAL2     0.900000E-01   1.00800           0
      2957 MEMB     36       POPC     H14Y     HAL2     0.900000E-01   1.00800           0
      2958 MEMB     36       POPC     C315     CTL2    -0.180000       12.0110           0
      2959 MEMB     36       POPC     H15X     HAL2     0.900000E-01   1.00800           0
      2960 MEMB     36       POPC     H15Y     HAL2     0.900000E-01   1.00800           0
      2961 MEMB     36       POPC     C316     CTL3    -0.270000       12.0110           0
      2962 MEMB     36       POPC     H16X     HAL3     0.900000E-01   1.00800           0
      2963 MEMB     36       POPC     H16Y     HAL3     0.900000E-01   1.00800           0
      2964 MEMB     36       POPC     H16Z     HAL3     0.900000E-01   1.00800           0
      2965 MEMB     37       POPC     N        NTL     -0.600000       14.0070           0
      2966 MEMB     37       POPC     C12      CTL2    -0.100000       12.0110           0
      2967 MEMB     37       POPC     H12A     HL       0.250000       1.00800           0
      2968 MEMB     37       POPC     H12B     HL       0.250000       1.00800           0
      2969 MEMB     37       POPC     C13      CTL5    -0.350000       12.0110           0
      2970 MEMB     37       POPC     H13A     HL       0.250000       1.00800           0
      2971 MEMB     37       POPC     H13B     HL       0.250000       1.00800           0
      2972 MEMB     37       POPC     H13C     HL       0.250000       1.00800           0
      2973 MEMB     37       POPC     C14      CTL5    -0.350000       12.0110           0
      2974 MEMB     37       POPC     H14A     HL       0.250000       1.00800           0
      2975 MEMB     37       POPC     H14B     HL       0.250000       1.00800           0
      2976 MEMB     37       POPC     H14C     HL       0.250000       1.00800           0
      2977 MEMB     37       POPC     C15      CTL5    -0.350000       12.0110           0
      2978 MEMB     37       POPC     H15A     HL       0.250000       1.00800           0
      2979 MEMB     37       POPC     H15B     HL       0.250000       1.00800           0
      2980 MEMB     37       POPC     H15C     HL       0.250000       1.00800           0
      2981 MEMB     37       POPC     C11      CTL2    -0.800000E-01   12.0110           0
      2982 MEMB     37       POPC     H11A     HAL2     0.900000E-01   1.00800           0
      2983 MEMB     37       POPC     H11B     HAL2     0.900000E-01   1.00800           0
      2984 MEMB     37       POPC     P        PL        1.50000       30.9740           0
      2985 MEMB     37       POPC     O13      O2L     -0.780000       15.9994           0
      2986 MEMB     37       POPC     O14      O2L     -0.780000       15.9994           0
      2987 MEMB     37       POPC     O12      OSLP    -0.570000       15.9994           0
      2988 MEMB     37       POPC     O11      OSLP    -0.570000       15.9994           0
      2989 MEMB     37       POPC     C1       CTL2    -0.800000E-01   12.0110           0
      2990 MEMB     37       POPC     HA       HAL2     0.900000E-01   1.00800           0
      2991 MEMB     37       POPC     HB       HAL2     0.900000E-01   1.00800           0
      2992 MEMB     37       POPC     C2       CTL1     0.170000       12.0110           0
      2993 MEMB     37       POPC     HS       HAL1     0.900000E-01   1.00800           0
      2994 MEMB     37       POPC     O21      OSL     -0.490000       15.9994           0
      2995 MEMB     37       POPC     C21      CL       0.900000       12.0110           0
      2996 MEMB     37       POPC     O22      OBL     -0.630000       15.9994           0
      2997 MEMB     37       POPC     C22      CTL2    -0.220000       12.0110           0
      2998 MEMB     37       POPC     H2R      HAL2     0.900000E-01   1.00800           0
      2999 MEMB     37       POPC     H2S      HAL2     0.900000E-01   1.00800           0
      3000 MEMB     37       POPC     C3       CTL2     0.800000E-01   12.0110           0
      3001 MEMB     37       POPC     HX       HAL2     0.900000E-01   1.00800           0
      3002 MEMB     37       POPC     HY       HAL2     0.900000E-01   1.00800           0
      3003 MEMB     37       POPC     O31      OSL     -0.490000       15.9994           0
      3004 MEMB     37       POPC     C31      CL       0.900000       12.0110           0
      3005 MEMB     37       POPC     O32      OBL     -0.630000       15.9994           0
      3006 MEMB     37       POPC     C32      CTL2    -0.220000       12.0110           0
      3007 MEMB     37       POPC     H2X      HAL2     0.900000E-01   1.00800           0
      3008 MEMB     37       POPC     H2Y      HAL2     0.900000E-01   1.00800           0
      3009 MEMB     37       POPC     C23      CTL2    -0.180000       12.0110           0
      3010 MEMB     37       POPC     H3R      HAL2     0.900000E-01   1.00800           0
      3011 MEMB     37       POPC     H3S      HAL2     0.900000E-01   1.00800           0
      3012 MEMB     37       POPC     C24      CTL2    -0.180000       12.0110           0
      3013 MEMB     37       POPC     H4R      HAL2     0.900000E-01   1.00800           0
      3014 MEMB     37       POPC     H4S      HAL2     0.900000E-01   1.00800           0
      3015 MEMB     37       POPC     C25      CTL2    -0.180000       12.0110           0
      3016 MEMB     37       POPC     H5R      HAL2     0.900000E-01   1.00800           0
      3017 MEMB     37       POPC     H5S      HAL2     0.900000E-01   1.00800           0
      3018 MEMB     37       POPC     C26      CTL2    -0.180000       12.0110           0
      3019 MEMB     37       POPC     H6R      HAL2     0.900000E-01   1.00800           0
      3020 MEMB     37       POPC     H6S      HAL2     0.900000E-01   1.00800           0
      3021 MEMB     37       POPC     C27      CTL2    -0.180000       12.0110           0
      3022 MEMB     37       POPC     H7R      HAL2     0.900000E-01   1.00800           0
      3023 MEMB     37       POPC     H7S      HAL2     0.900000E-01   1.00800           0
      3024 MEMB     37       POPC     C28      CTL2    -0.180000       12.0110           0
      3025 MEMB     37       POPC     H8R      HAL2     0.900000E-01   1.00800           0
      3026 MEMB     37       POPC     H8S      HAL2     0.900000E-01   1.00800           0
      3027 MEMB     37       POPC     C29      CEL1    -0.150000       12.0110           0
      3028 MEMB     37       POPC     H91      HEL1     0.150000       1.00800           0
      3029 MEMB     37       POPC     C210     CEL1    -0.150000       12.0110           0
      3030 MEMB     37       POPC     H101     HEL1     0.150000       1.00800           0
      3031 MEMB     37       POPC     C211     CTL2    -0.180000       12.0110           0
      3032 MEMB     37       POPC     H11R     HAL2     0.900000E-01   1.00800           0
      3033 MEMB     37       POPC     H11S     HAL2     0.900000E-01   1.00800           0
      3034 MEMB     37       POPC     C212     CTL2    -0.180000       12.0110           0
      3035 MEMB     37       POPC     H12R     HAL2     0.900000E-01   1.00800           0
      3036 MEMB     37       POPC     H12S     HAL2     0.900000E-01   1.00800           0
      3037 MEMB     37       POPC     C213     CTL2    -0.180000       12.0110           0
      3038 MEMB     37       POPC     H13R     HAL2     0.900000E-01   1.00800           0
      3039 MEMB     37       POPC     H13S     HAL2     0.900000E-01   1.00800           0
      3040 MEMB     37       POPC     C214     CTL2    -0.180000       12.0110           0
      3041 MEMB     37       POPC     H14R     HAL2     0.900000E-01   1.00800           0
      3042 MEMB     37       POPC     H14S     HAL2     0.900000E-01   1.00800           0
      3043 MEMB     37       POPC     C215     CTL2    -0.180000       12.0110           0
      3044 MEMB     37       POPC     H15R     HAL2     0.900000E-01   1.00800           0
      3045 MEMB     37       POPC     H15S     HAL2     0.900000E-01   1.00800           0
      3046 MEMB     37       POPC     C216     CTL2    -0.180000       12.0110           0
      3047 MEMB     37       POPC     H16R     HAL2     0.900000E-01   1.00800           0
      3048 MEMB     37       POPC     H16S     HAL2     0.900000E-01   1.00800           0
      3049 MEMB     37       POPC     C217     CTL2    -0.180000       12.0110           0
      3050 MEMB     37       POPC     H17R     HAL2     0.900000E-01   1.00800           0
      3051 MEMB     37       POPC     H17S     HAL2     0.900000E-01   1.00800           0
      3052 MEMB     37       POPC     C218     CTL3    -0.270000       12.0110           0
      3053 MEMB     37       POPC     H18R     HAL3     0.900000E-01   1.00800           0
      3054 MEMB     37       POPC     H18S     HAL3     0.900000E-01   1.00800           0
      3055 MEMB     37       POPC     H18T     HAL3     0.900000E-01   1.00800           0
      3056 MEMB     37       POPC     C33      CTL2    -0.180000       12.0110           0
      3057 MEMB     37       POPC     H3X      HAL2     0.900000E-01   1.00800           0
      3058 MEMB     37       POPC     H3Y      HAL2     0.900000E-01   1.00800           0
      3059 MEMB     37       POPC     C34      CTL2    -0.180000       12.0110           0
      3060 MEMB     37       POPC     H4X      HAL2     0.900000E-01   1.00800           0
      3061 MEMB     37       POPC     H4Y      HAL2     0.900000E-01   1.00800           0
      3062 MEMB     37       POPC     C35      CTL2    -0.180000       12.0110           0
      3063 MEMB     37       POPC     H5X      HAL2     0.900000E-01   1.00800           0
      3064 MEMB     37       POPC     H5Y      HAL2     0.900000E-01   1.00800           0
      3065 MEMB     37       POPC     C36      CTL2    -0.180000       12.0110           0
      3066 MEMB     37       POPC     H6X      HAL2     0.900000E-01   1.00800           0
      3067 MEMB     37       POPC     H6Y      HAL2     0.900000E-01   1.00800           0
      3068 MEMB     37       POPC     C37      CTL2    -0.180000       12.0110           0
      3069 MEMB     37       POPC     H7X      HAL2     0.900000E-01   1.00800           0
      3070 MEMB     37       POPC     H7Y      HAL2     0.900000E-01   1.00800           0
      3071 MEMB     37       POPC     C38      CTL2    -0.180000       12.0110           0
      3072 MEMB     37       POPC     H8X      HAL2     0.900000E-01   1.00800           0
      3073 MEMB     37       POPC     H8Y      HAL2     0.900000E-01   1.00800           0
      3074 MEMB     37       POPC     C39      CTL2    -0.180000       12.0110           0
      3075 MEMB     37       POPC     H9X      HAL2     0.900000E-01   1.00800           0
      3076 MEMB     37       POPC     H9Y      HAL2     0.900000E-01   1.00800           0
      3077 MEMB     37       POPC     C310     CTL2    -0.180000       12.0110           0
      3078 MEMB     37       POPC     H10X     HAL2     0.900000E-01   1.00800           0
      3079 MEMB     37       POPC     H10Y     HAL2     0.900000E-01   1.00800           0
      3080 MEMB     37       POPC     C311     CTL2    -0.180000       12.0110           0
      3081 MEMB     37       POPC     H11X     HAL2     0.900000E-01   1.00800           0
      3082 MEMB     37       POPC     H11Y     HAL2     0.900000E-01   1.00800           0
      3083 MEMB     37       POPC     C312     CTL2    -0.180000       12.0110           0
      3084 MEMB     37       POPC     H12X     HAL2     0.900000E-01   1.00800           0
      3085 MEMB     37       POPC     H12Y     HAL2     0.900000E-01   1.00800           0
      3086 MEMB     37       POPC     C313     CTL2    -0.180000       12.0110           0
      3087 MEMB     37       POPC     H13X     HAL2     0.900000E-01   1.00800           0
      3088 MEMB     37       POPC     H13Y     HAL2     0.900000E-01   1.00800           0
      3089 MEMB     37       POPC     C314     CTL2    -0.180000       12.0110           0
      3090 MEMB     37       POPC     H14X     HAL2     0.900000E-01   1.00800           0
      3091 MEMB     37       POPC     H14Y     HAL2     0.900000E-01   1.00800           0
      3092 MEMB     37       POPC     C315     CTL2    -0.180000       12.0110           0
      3093 MEMB     37       POPC     H15X     HAL2     0.900000E-01   1.00800           0
      3094 MEMB     37       POPC     H15Y     HAL2     0.900000E-01   1.00800           0
      3095 MEMB     37       POPC     C316     CTL3    -0.270000       12.0110           0
      3096 MEMB     37       POPC     H16X     HAL3     0.900000E-01   1.00800           0
      3097 MEMB     37       POPC     H16Y     HAL3     0.900000E-01   1.00800           0
      3098 MEMB     37       POPC     H16Z     HAL3     0.900000E-01   1.00800           0
      3099 MEMB     38       POPC     N        NTL     -0.600000       14.0070           0
      3100 MEMB     38       POPC     C12      CTL2    -0.100000       12.0110           0
      3101 MEMB     38       POPC     H12A     HL       0.250000       1.00800           0
      3102 MEMB     38       POPC     H12B     HL       0.250000       1.00800           0
      3103 MEMB     38       POPC     C13      CTL5    -0.350000       12.0110           0
      3104 MEMB     38       POPC     H13A     HL       0.250000       1.00800           0
      3105 MEMB     38       POPC     H13B     HL       0.250000       1.00800           0
      3106 MEMB     38       POPC     H13C     HL       0.250000       1.00800           0
      3107 MEMB     38       POPC     C14      CTL5    -0.350000       12.0110           0
      3108 MEMB     38       POPC     H14A     HL       0.250000       1.00800           0
      3109 MEMB     38       POPC     H14B     HL       0.250000       1.00800           0
      3110 MEMB     38       POPC     H14C     HL       0.250000       1.00800           0
      3111 MEMB     38       POPC     C15      CTL5    -0.350000       12.0110           0
      3112 MEMB     38       POPC     H15A     HL       0.250000       1.00800           0
      3113 MEMB     38       POPC     H15B     HL       0.250000       1.00800           0
      3114 MEMB     38       POPC     H15C     HL       0.250000       1.00800           0
      3115 MEMB     38       POPC     C11      CTL2    -0.800000E-01   12.0110           0
      3116 MEMB     38       POPC     H11A     HAL2     0.900000E-01   1.00800           0
      3117 MEMB     38       POPC     H11B     HAL2     0.900000E-01   1.00800           0
      3118 MEMB     38       POPC     P        PL        1.50000       30.9740           0
      3119 MEMB     38       POPC     O13      O2L     -0.780000       15.9994           0
      3120 MEMB     38       POPC     O14      O2L     -0.780000       15.9994           0
      3121 MEMB     38       POPC     O12      OSLP    -0.570000       15.9994           0
      3122 MEMB     38       POPC     O11      OSLP    -0.570000       15.9994           0
      3123 MEMB     38       POPC     C1       CTL2    -0.800000E-01   12.0110           0
      3124 MEMB     38       POPC     HA       HAL2     0.900000E-01   1.00800           0
      3125 MEMB     38       POPC     HB       HAL2     0.900000E-01   1.00800           0
      3126 MEMB     38       POPC     C2       CTL1     0.170000       12.0110           0
      3127 MEMB     38       POPC     HS       HAL1     0.900000E-01   1.00800           0
      3128 MEMB     38       POPC     O21      OSL     -0.490000       15.9994           0
      3129 MEMB     38       POPC     C21      CL       0.900000       12.0110           0
      3130 MEMB     38       POPC     O22      OBL     -0.630000       15.9994           0
      3131 MEMB     38       POPC     C22      CTL2    -0.220000       12.0110           0
      3132 MEMB     38       POPC     H2R      HAL2     0.900000E-01   1.00800           0
      3133 MEMB     38       POPC     H2S      HAL2     0.900000E-01   1.00800           0
      3134 MEMB     38       POPC     C3       CTL2     0.800000E-01   12.0110           0
      3135 MEMB     38       POPC     HX       HAL2     0.900000E-01   1.00800           0
      3136 MEMB     38       POPC     HY       HAL2     0.900000E-01   1.00800           0
      3137 MEMB     38       POPC     O31      OSL     -0.490000       15.9994           0
      3138 MEMB     38       POPC     C31      CL       0.900000       12.0110           0
      3139 MEMB     38       POPC     O32      OBL     -0.630000       15.9994           0
      3140 MEMB     38       POPC     C32      CTL2    -0.220000       12.0110           0
      3141 MEMB     38       POPC     H2X      HAL2     0.900000E-01   1.00800           0
      3142 MEMB     38       POPC     H2Y      HAL2     0.900000E-01   1.00800           0
      3143 MEMB     38       POPC     C23      CTL2    -0.180000       12.0110           0
      3144 MEMB     38       POPC     H3R      HAL2     0.900000E-01   1.00800           0
      3145 MEMB     38       POPC     H3S      HAL2     0.900000E-01   1.00800           0
      3146 MEMB     38       POPC     C24      CTL2    -0.180000       12.0110           0
      3147 MEMB     38       POPC     H4R      HAL2     0.900000E-01   1.00800           0
      3148 MEMB     38       POPC     H4S      HAL2     0.900000E-01   1.00800           0
      3149 MEMB     38       POPC     C25      CTL2    -0.180000       12.0110           0
      3150 MEMB     38       POPC     H5R      HAL2     0.900000E-01   1.00800           0
      3151 MEMB     38       POPC     H5S      HAL2     0.900000E-01   1.00800           0
      3152 MEMB     38       POPC     C26      CTL2    -0.180000       12.0110           0
      3153 MEMB     38       POPC     H6R      HAL2     0.900000E-01   1.00800           0
      3154 MEMB     38       POPC     H6S      HAL2     0.900000E-01   1.00800           0
      3155 MEMB     38       POPC     C27      CTL2    -0.180000       12.0110           0
      3156 MEMB     38       POPC     H7R      HAL2     0.900000E-01   1.00800           0
      3157 MEMB     38       POPC     H7S      HAL2     0.900000E-01   1.00800           0
      3158 MEMB     38       POPC     C28      CTL2    -0.180000       12.0110           0
      3159 MEMB     38       POPC     H8R      HAL2     0.900000E-01   1.00800           0
      3160 MEMB     38       POPC     H8S      HAL2     0.900000E-01   1.00800           0
      3161 MEMB     38       POPC     C29      CEL1    -0.150000       12.0110           0
      3162 MEMB     38       POPC     H91      HEL1     0.150000       1.00800           0
      3163 MEMB     38       POPC     C210     CEL1    -0.150000       12.0110           0
      3164 MEMB     38       POPC     H101     HEL1     0.150000       1.00800           0
      3165 MEMB     38       POPC     C211     CTL2    -0.180000       12.0110           0
      3166 MEMB     38       POPC     H11R     HAL2     0.900000E-01   1.00800           0
      3167 MEMB     38       POPC     H11S     HAL2     0.900000E-01   1.00800           0
      3168 MEMB     38       POPC     C212     CTL2    -0.180000       12.0110           0
      3169 MEMB     38       POPC     H12R     HAL2     0.900000E-01   1.00800           0
      3170 MEMB     38       POPC     H12S     HAL2     0.900000E-01   1.00800           0
      3171 MEMB     38       POPC     C213     CTL2    -0.180000       12.0110           0
      3172 MEMB     38       POPC     H13R     HAL2     0.900000E-01   1.00800           0
      3173 MEMB     38       POPC     H13S     HAL2     0.900000E-01   1.00800           0
      3174 MEMB     38       POPC     C214     CTL2    -0.180000       12.0110           0
      3175 MEMB     38       POPC     H14R     HAL2     0.900000E-01   1.00800           0
      3176 MEMB     38       POPC     H14S     HAL2     0.900000E-01   1.00800           0
      3177 MEMB     38       POPC     C215     CTL2    -0.180000       12.0110           0
      3178 MEMB     38       POPC     H15R     HAL2     0.900000E-01   1.00800           0
      3179 MEMB     38       POPC     H15S     HAL2     0.900000E-01   1.00800           0
      3180 MEMB     38       POPC     C216     CTL2    -0.180000       12.0110           0
      3181 MEMB     38       POPC     H16R     HAL2     0.900000E-01   1.00800           0
      3182 MEMB     38       POPC     H16S     HAL2     0.900000E-01   1.00800           0
      3183 MEMB     38       POPC     C217     CTL2    -0.180000       12.0110           0
      3184 MEMB     38       POPC     H17R     HAL2     0.900000E-01   1.00800           0
      3185 MEMB     38       POPC     H17S     HAL2     0.900000E-01   1.00800           0
      3186 MEMB     38       POPC     C218     CTL3    -0.270000       12.0110           0
      3187 MEMB     38       POPC     H18R     HAL3     0.900000E-01   1.00800           0
      3188 MEMB     38       POPC     H18S     HAL3     0.900000E-01   1.00800           0
      3189 MEMB     38       POPC     H18T     HAL3     0.900000E-01   1.00800           0
      3190 MEMB     38       POPC     C33      CTL2    -0.180000       12.0110           0
      3191 MEMB     38       POPC     H3X      HAL2     0.900000E-01   1.00800           0
      3192 MEMB     38       POPC     H3Y      HAL2     0.900000E-01   1.00800           0
      3193 MEMB     38       POPC     C34      CTL2    -0.180000       12.0110           0
      3194 MEMB     38       POPC     H4X      HAL2     0.900000E-01   1.00800           0
      3195 MEMB     38       POPC     H4Y      HAL2     0.900000E-01   1.00800           0
      3196 MEMB     38       POPC     C35      CTL2    -0.180000       12.0110           0
      3197 MEMB     38       POPC     H5X      HAL2     0.900000E-01   1.00800           0
      3198 MEMB     38       POPC     H5Y      HAL2     0.900000E-01   1.00800           0
      3199 MEMB     38       POPC     C36      CTL2    -0.180000       12.0110           0
      3200 MEMB     38       POPC     H6X      HAL2     0.900000E-01   1.00800           0
      3201 MEMB     38       POPC     H6Y      HAL2     0.900000E-01   1.00800           0
      3202 MEMB     38       POPC     C37      CTL2    -0.180000       12.0110           0
      3203 MEMB     38       POPC     H7X      HAL2     0.900000E-01   1.00800           0
      3204 MEMB     38       POPC     H7Y      HAL2     0.900000E-01   1.00800           0
      3205 MEMB     38       POPC     C38      CTL2    -0.180000       12.0110           0
      3206 MEMB     38       POPC     H8X      HAL2     0.900000E-01   1.00800           0
      3207 MEMB     38       POPC     H8Y      HAL2     0.900000E-01   1.00800           0
      3208 MEMB     38       POPC     C39      CTL2    -0.180000       12.0110           0
      3209 MEMB     38       POPC     H9X      HAL2     0.900000E-01   1.00800           0
      3210 MEMB     38       POPC     H9Y      HAL2     0.900000E-01   1.00800           0
      3211 MEMB     38       POPC     C310     CTL2    -0.180000       12.0110           0
      3212 MEMB     38       POPC     H10X     HAL2     0.900000E-01   1.00800           0
      3213 MEMB     38       POPC     H10Y     HAL2     0.900000E-01   1.00800           0
      3214 MEMB     38       POPC     C311     CTL2    -0.180000       12.0110           0
      3215 MEMB     38       POPC     H11X     HAL2     0.900000E-01   1.00800           0
      3216 MEMB     38       POPC     H11Y     HAL2     0.900000E-01   1.00800           0
      3217 MEMB     38       POPC     C312     CTL2    -0.180000       12.0110           0
      3218 MEMB     38       POPC     H12X     HAL2     0.900000E-01   1.00800           0
      3219 MEMB     38       POPC     H12Y     HAL2     0.900000E-01   1.00800           0
      3220 MEMB     38       POPC     C313     CTL2    -0.180000       12.0110           0
      3221 MEMB     38       POPC     H13X     HAL2     0.900000E-01   1.00800           0
      3222 MEMB     38       POPC     H13Y     HAL2     0.900000E-01   1.00800           0
      3223 MEMB     38       POPC     C314     CTL2    -0.180000       12.0110           0
      3224 MEMB     38       POPC     H14X     HAL2     0.900000E-01   1.00800           0
      3225 MEMB     38       POPC     H14Y     HAL2     0.900000E-01   1.00800           0
      3226 MEMB     38       POPC     C315     CTL2    -0.180000       12.0110           0
      3227 MEMB     38       POPC     H15X     HAL2     0.900000E-01   1.00800           0
      3228 MEMB     38       POPC     H15Y     HAL2     0.900000E-01   1.00800           0
      3229 MEMB     38       POPC     C316     CTL3    -0.270000       12.0110           0
      3230 MEMB     38       POPC     H16X     HAL3     0.900000E-01   1.00800           0
      3231 MEMB     38       POPC     H16Y     HAL3     0.900000E-01   1.00800           0
      3232 MEMB     38       POPC     H16Z     HAL3     0.900000E-01   1.00800           0
      3233 MEMB     39       POPC     N        NTL     -0.600000       14.0070           0
      3234 MEMB     39       POPC     C12      CTL2    -0.100000       12.0110           0
      3235 MEMB     39       POPC     H12A     HL       0.250000       1.00800           0
      3236 MEMB     39       POPC     H12B     HL       0.250000       1.00800           0
      3237 MEMB     39       POPC     C13      CTL5    -0.350000       12.0110           0
      3238 MEMB     39       POPC     H13A     HL       0.250000       1.00800           0
      3239 MEMB     39       POPC     H13B     HL       0.250000       1.00800           0
      3240 MEMB     39       POPC     H13C     HL       0.250000       1.00800           0
      3241 MEMB     39       POPC     C14      CTL5    -0.350000       12.0110           0
      3242 MEMB     39       POPC     H14A     HL       0.250000       1.00800           0
      3243 MEMB     39       POPC     H14B     HL       0.250000       1.00800           0
      3244 MEMB     39       POPC     H14C     HL       0.250000       1.00800           0
      3245 MEMB     39       POPC     C15      CTL5    -0.350000       12.0110           0
      3246 MEMB     39       POPC     H15A     HL       0.250000       1.00800           0
      3247 MEMB     39       POPC     H15B     HL       0.250000       1.00800           0
      3248 MEMB     39       POPC     H15C     HL       0.250000       1.00800           0
      3249 MEMB     39       POPC     C11      CTL2    -0.800000E-01   12.0110           0
      3250 MEMB     39       POPC     H11A     HAL2     0.900000E-01   1.00800           0
      3251 MEMB     39       POPC     H11B     HAL2     0.900000E-01   1.00800           0
      3252 MEMB     39       POPC     P        PL        1.50000       30.9740           0
      3253 MEMB     39       POPC     O13      O2L     -0.780000       15.9994           0
      3254 MEMB     39       POPC     O14      O2L     -0.780000       15.9994           0
      3255 MEMB     39       POPC     O12      OSLP    -0.570000       15.9994           0
      3256 MEMB     39       POPC     O11      OSLP    -0.570000       15.9994           0
      3257 MEMB     39       POPC     C1       CTL2    -0.800000E-01   12.0110           0
      3258 MEMB     39       POPC     HA       HAL2     0.900000E-01   1.00800           0
      3259 MEMB     39       POPC     HB       HAL2     0.900000E-01   1.00800           0
      3260 MEMB     39       POPC     C2       CTL1     0.170000       12.0110           0
      3261 MEMB     39       POPC     HS       HAL1     0.900000E-01   1.00800           0
      3262 MEMB     39       POPC     O21      OSL     -0.490000       15.9994           0
      3263 MEMB     39       POPC     C21      CL       0.900000       12.0110           0
      3264 MEMB     39       POPC     O22      OBL     -0.630000       15.9994           0
      3265 MEMB     39       POPC     C22      CTL2    -0.220000       12.0110           0
      3266 MEMB     39       POPC     H2R      HAL2     0.900000E-01   1.00800           0
      3267 MEMB     39       POPC     H2S      HAL2     0.900000E-01   1.00800           0
      3268 MEMB     39       POPC     C3       CTL2     0.800000E-01   12.0110           0
      3269 MEMB     39       POPC     HX       HAL2     0.900000E-01   1.00800           0
      3270 MEMB     39       POPC     HY       HAL2     0.900000E-01   1.00800           0
      3271 MEMB     39       POPC     O31      OSL     -0.490000       15.9994           0
      3272 MEMB     39       POPC     C31      CL       0.900000       12.0110           0
      3273 MEMB     39       POPC     O32      OBL     -0.630000       15.9994           0
      3274 MEMB     39       POPC     C32      CTL2    -0.220000       12.0110           0
      3275 MEMB     39       POPC     H2X      HAL2     0.900000E-01   1.00800           0
      3276 MEMB     39       POPC     H2Y      HAL2     0.900000E-01   1.00800           0
      3277 MEMB     39       POPC     C23      CTL2    -0.180000       12.0110           0
      3278 MEMB     39       POPC     H3R      HAL2     0.900000E-01   1.00800           0
      3279 MEMB     39       POPC     H3S      HAL2     0.900000E-01   1.00800           0
      3280 MEMB     39       POPC     C24      CTL2    -0.180000       12.0110           0
      3281 MEMB     39       POPC     H4R      HAL2     0.900000E-01   1.00800           0
      3282 MEMB     39       POPC     H4S      HAL2     0.900000E-01   1.00800           0
      3283 MEMB     39       POPC     C25      CTL2    -0.180000       12.0110           0
      3284 MEMB     39       POPC     H5R      HAL2     0.900000E-01   1.00800           0
      3285 MEMB     39       POPC     H5S      HAL2     0.900000E-01   1.00800           0
      3286 MEMB     39       POPC     C26      CTL2    -0.180000       12.0110           0
      3287 MEMB     39       POPC     H6R      HAL2     0.900000E-01   1.00800           0
      3288 MEMB     39       POPC     H6S      HAL2     0.900000E-01   1.00800           0
      3289 MEMB     39       POPC     C27      CTL2    -0.180000       12.0110           0
      3290 MEMB     39       POPC     H7R      HAL2     0.900000E-01   1.00800           0
      3291 MEMB     39       POPC     H7S      HAL2     0.900000E-01   1.00800           0
      3292 MEMB     39       POPC     C28      CTL2    -0.180000       12.0110           0
      3293 MEMB     39       POPC     H8R      HAL2     0.900000E-01   1.00800           0
      3294 MEMB     39       POPC     H8S      HAL2     0.900000E-01   1.00800           0
      3295 MEMB     39       POPC     C29      CEL1    -0.150000       12.0110           0
      3296 MEMB     39       POPC     H91      HEL1     0.150000       1.00800           0
      3297 MEMB     39       POPC     C210     CEL1    -0.150000       12.0110           0
      3298 MEMB     39       POPC     H101     HEL1     0.150000       1.00800           0
      3299 MEMB     39       POPC     C211     CTL2    -0.180000       12.0110           0
      3300 MEMB     39       POPC     H11R     HAL2     0.900000E-01   1.00800           0
      3301 MEMB     39       POPC     H11S     HAL2     0.900000E-01   1.00800           0
      3302 MEMB     39       POPC     C212     CTL2    -0.180000       12.0110           0
      3303 MEMB     39       POPC     H12R     HAL2     0.900000E-01   1.00800           0
      3304 MEMB     39       POPC     H12S     HAL2     0.900000E-01   1.00800           0
      3305 MEMB     39       POPC     C213     CTL2    -0.180000       12.0110           0
      3306 MEMB     39       POPC     H13R     HAL2     0.900000E-01   1.00800           0
      3307 MEMB     39       POPC     H13S     HAL2     0.900000E-01   1.00800           0
      3308 MEMB     39       POPC     C214     CTL2    -0.180000       12.0110           0
      3309 MEMB     39       POPC     H14R     HAL2     0.900000E-01   1.00800           0
      3310 MEMB     39       POPC     H14S     HAL2     0.900000E-01   1.00800           0
      3311 MEMB     39       POPC     C215     CTL2    -0.180000       12.0110           0
      3312 MEMB     39       POPC     H15R     HAL2     0.900000E-01   1.00800           0
      3313 MEMB     39       POPC     H15S     HAL2     0.900000E-01   1.00800           0
      3314 MEMB     39       POPC     C216     CTL2    -0.180000       12.0110           0
      3315 MEMB     39       POPC     H16R     HAL2     0.900000E-01   1.00800           0
      3316 MEMB     39       POPC     H16S     HAL2     0.900000E-01   1.00800           0
      3317 MEMB     39       POPC     C217     CTL2    -0.180000       12.0110           0
      3318 MEMB     39       POPC     H17R     HAL2     0.900000E-01   1.00800           0
      3319 MEMB     39       POPC     H17S     HAL2     0.900000E-01   1.00800           0
      3320 MEMB     39       POPC     C218     CTL3    -0.270000       12.0110           0
      3321 MEMB     39       POPC     H18R     HAL3     0.900000E-01   1.00800           0
      3322 MEMB     39       POPC     H18S     HAL3     0.900000E-01   1.00800           0
      3323 MEMB     39       POPC     H18T     HAL3     0.900000E-01   1.00800           0
      3324 MEMB     39       POPC     C33      CTL2    -0.180000       12.0110           0
      3325 MEMB     39       POPC     H3X      HAL2     0.900000E-01   1.00800           0
      3326 MEMB     39       POPC     H3Y      HAL2     0.900000E-01   1.00800           0
      3327 MEMB     39       POPC     C34      CTL2    -0.180000       12.0110           0
      3328 MEMB     39       POPC     H4X      HAL2     0.900000E-01   1.00800           0
      3329 MEMB     39       POPC     H4Y      HAL2     0.900000E-01   1.00800           0
      3330 MEMB     39       POPC     C35      CTL2    -0.180000       12.0110           0
      3331 MEMB     39       POPC     H5X      HAL2     0.900000E-01   1.00800           0
      3332 MEMB     39       POPC     H5Y      HAL2     0.900000E-01   1.00800           0
      3333 MEMB     39       POPC     C36      CTL2    -0.180000       12.0110           0
      3334 MEMB     39       POPC     H6X      HAL2     0.900000E-01   1.00800           0
      3335 MEMB     39       POPC     H6Y      HAL2     0.900000E-01   1.00800           0
      3336 MEMB     39       POPC     C37      CTL2    -0.180000       12.0110           0
      3337 MEMB     39       POPC     H7X      HAL2     0.900000E-01   1.00800           0
      3338 MEMB     39       POPC     H7Y      HAL2     0.900000E-01   1.00800           0
      3339 MEMB     39       POPC     C38      CTL2    -0.180000       12.0110           0
      3340 MEMB     39       POPC     H8X      HAL2     0.900000E-01   1.00800           0
      3341 MEMB     39       POPC     H8Y      HAL2     0.900000E-01   1.00800           0
      3342 MEMB     39       POPC     C39      CTL2    -0.180000       12.0110           0
      3343 MEMB     39       POPC     H9X      HAL2     0.900000E-01   1.00800           0
      3344 MEMB     39       POPC     H9Y      HAL2     0.900000E-01   1.00800           0
      3345 MEMB     39       POPC     C310     CTL2    -0.180000       12.0110           0
      3346 MEMB     39       POPC     H10X     HAL2     0.900000E-01   1.00800           0
      3347 MEMB     39       POPC     H10Y     HAL2     0.900000E-01   1.00800           0
      3348 MEMB     39       POPC     C311     CTL2    -0.180000       12.0110           0
      3349 MEMB     39       POPC     H11X     HAL2     0.900000E-01   1.00800           0
      3350 MEMB     39       POPC     H11Y     HAL2     0.900000E-01   1.00800           0
      3351 MEMB     39       POPC     C312     CTL2    -0.180000       12.0110           0
      3352 MEMB     39       POPC     H12X     HAL2     0.900000E-01   1.00800           0
      3353 MEMB     39       POPC     H12Y     HAL2     0.900000E-01   1.00800           0
      3354 MEMB     39       POPC     C313     CTL2    -0.180000       12.0110           0
      3355 MEMB     39       POPC     H13X     HAL2     0.900000E-01   1.00800           0
      3356 MEMB     39       POPC     H13Y     HAL2     0.900000E-01   1.00800           0
      3357 MEMB     39       POPC     C314     CTL2    -0.180000       12.0110           0
      3358 MEMB     39       POPC     H14X     HAL2     0.900000E-01   1.00800           0
      3359 MEMB     39       POPC     H14Y     HAL2     0.900000E-01   1.00800           0
      3360 MEMB     39       POPC     C315     CTL2    -0.180000       12.0110           0
      3361 MEMB     39       POPC     H15X     HAL2     0.900000E-01   1.00800           0
      3362 MEMB     39       POPC     H15Y     HAL2     0.900000E-01   1.00800           0
      3363 MEMB     39       POPC     C316     CTL3    -0.270000       12.0110           0
      3364 MEMB     39       POPC     H16X     HAL3     0.900000E-01   1.00800           0
      3365 MEMB     39       POPC     H16Y     HAL3     0.900000E-01   1.00800           0
      3366 MEMB     39       POPC     H16Z     HAL3     0.900000E-01   1.00800           0
      3367 MEMB     40       POPC     N        NTL     -0.600000       14.0070           0
      3368 MEMB     40       POPC     C12      CTL2    -0.100000       12.0110           0
      3369 MEMB     40       POPC     H12A     HL       0.250000       1.00800           0
      3370 MEMB     40       POPC     H12B     HL       0.250000       1.00800           0
      3371 MEMB     40       POPC     C13      CTL5    -0.350000       12.0110           0
      3372 MEMB     40       POPC     H13A     HL       0.250000       1.00800           0
      3373 MEMB     40       POPC     H13B     HL       0.250000       1.00800           0
      3374 MEMB     40       POPC     H13C     HL       0.250000       1.00800           0
      3375 MEMB     40       POPC     C14      CTL5    -0.350000       12.0110           0
      3376 MEMB     40       POPC     H14A     HL       0.250000       1.00800           0
      3377 MEMB     40       POPC     H14B     HL       0.250000       1.00800           0
      3378 MEMB     40       POPC     H14C     HL       0.250000       1.00800           0
      3379 MEMB     40       POPC     C15      CTL5    -0.350000       12.0110           0
      3380 MEMB     40       POPC     H15A     HL       0.250000       1.00800           0
      3381 MEMB     40       POPC     H15B     HL       0.250000       1.00800           0
      3382 MEMB     40       POPC     H15C     HL       0.250000       1.00800           0
      3383 MEMB     40       POPC     C11      CTL2    -0.800000E-01   12.0110           0
      3384 MEMB     40       POPC     H11A     HAL2     0.900000E-01   1.00800           0
      3385 MEMB     40       POPC     H11B     HAL2     0.900000E-01   1.00800           0
      3386 MEMB     40       POPC     P        PL        1.50000       30.9740           0
      3387 MEMB     40       POPC     O13      O2L     -0.780000       15.9994           0
      3388 MEMB     40       POPC     O14      O2L     -0.780000       15.9994           0
      3389 MEMB     40       POPC     O12      OSLP    -0.570000       15.9994           0
      3390 MEMB     40       POPC     O11      OSLP    -0.570000       15.9994           0
      3391 MEMB     40       POPC     C1       CTL2    -0.800000E-01   12.0110           0
      3392 MEMB     40       POPC     HA       HAL2     0.900000E-01   1.00800           0
      3393 MEMB     40       POPC     HB       HAL2     0.900000E-01   1.00800           0
      3394 MEMB     40       POPC     C2       CTL1     0.170000       12.0110           0
      3395 MEMB     40       POPC     HS       HAL1     0.900000E-01   1.00800           0
      3396 MEMB     40       POPC     O21      OSL     -0.490000       15.9994           0
      3397 MEMB     40       POPC     C21      CL       0.900000       12.0110           0
      3398 MEMB     40       POPC     O22      OBL     -0.630000       15.9994           0
      3399 MEMB     40       POPC     C22      CTL2    -0.220000       12.0110           0
      3400 MEMB     40       POPC     H2R      HAL2     0.900000E-01   1.00800           0
      3401 MEMB     40       POPC     H2S      HAL2     0.900000E-01   1.00800           0
      3402 MEMB     40       POPC     C3       CTL2     0.800000E-01   12.0110           0
      3403 MEMB     40       POPC     HX       HAL2     0.900000E-01   1.00800           0
      3404 MEMB     40       POPC     HY       HAL2     0.900000E-01   1.00800           0
      3405 MEMB     40       POPC     O31      OSL     -0.490000       15.9994           0
      3406 MEMB     40       POPC     C31      CL       0.900000       12.0110           0
      3407 MEMB     40       POPC     O32      OBL     -0.630000       15.9994           0
      3408 MEMB     40       POPC     C32      CTL2    -0.220000       12.0110           0
      3409 MEMB     40       POPC     H2X      HAL2     0.900000E-01   1.00800           0
      3410 MEMB     40       POPC     H2Y      HAL2     0.900000E-01   1.00800           0
      3411 MEMB     40       POPC     C23      CTL2    -0.180000       12.0110           0
      3412 MEMB     40       POPC     H3R      HAL2     0.900000E-01   1.00800           0
      3413 MEMB     40       POPC     H3S      HAL2     0.900000E-01   1.00800           0
      3414 MEMB     40       POPC     C24      CTL2    -0.180000       12.0110           0
      3415 MEMB     40       POPC     H4R      HAL2     0.900000E-01   1.00800           0
      3416 MEMB     40       POPC     H4S      HAL2     0.900000E-01   1.00800           0
      3417 MEMB     40       POPC     C25      CTL2    -0.180000       12.0110           0
      3418 MEMB     40       POPC     H5R      HAL2     0.900000E-01   1.00800           0
      3419 MEMB     40       POPC     H5S      HAL2     0.900000E-01   1.00800           0
      3420 MEMB     40       POPC     C26      CTL2    -0.180000       12.0110           0
      3421 MEMB     40       POPC     H6R      HAL2     0.900000E-01   1.00800           0
      3422 MEMB     40       POPC     H6S      HAL2     0.900000E-01   1.00800           0
      3423 MEMB     40       POPC     C27      CTL2    -0.180000       12.0110           0
      3424 MEMB     40       POPC     H7R      HAL2     0.900000E-01   1.00800           0
      3425 MEMB     40       POPC     H7S      HAL2     0.900000E-01   1.00800           0
      3426 MEMB     40       POPC     C28      CTL2    -0.180000       12.0110           0
      3427 MEMB     40       POPC     H8R      HAL2     0.900000E-01   1.00800           0
      3428 MEMB     40       POPC     H8S      HAL2     0.900000E-01   1.00800           0
      3429 MEMB     40       POPC     C29      CEL1    -0.150000       12.0110           0
      3430 MEMB     40       POPC     H91      HEL1     0.150000       1.00800           0
      3431 MEMB     40       POPC     C210     CEL1    -0.150000       12.0110           0
      3432 MEMB     40       POPC     H101     HEL1     0.150000       1.00800           0
      3433 MEMB     40       POPC     C211     CTL2    -0.180000       12.0110           0
      3434 MEMB     40       POPC     H11R     HAL2     0.900000E-01   1.00800           0
      3435 MEMB     40       POPC     H11S     HAL2     0.900000E-01   1.00800           0
      3436 MEMB     40       POPC     C212     CTL2    -0.180000       12.0110           0
      3437 MEMB     40       POPC     H12R     HAL2     0.900000E-01   1.00800           0
      3438 MEMB     40       POPC     H12S     HAL2     0.900000E-01   1.00800           0
      3439 MEMB     40       POPC     C213     CTL2    -0.180000       12.0110           0
      3440 MEMB     40       POPC     H13R     HAL2     0.900000E-01   1.00800           0
      3441 MEMB     40       POPC     H13S     HAL2     0.900000E-01   1.00800           0
      3442 MEMB     40       POPC     C214     CTL2    -0.180000       12.0110           0
      3443 MEMB     40       POPC     H14R     HAL2     0.900000E-01   1.00800           0
      3444 MEMB     40       POPC     H14S     HAL2     0.900000E-01   1.00800           0
      3445 MEMB     40       POPC     C215     CTL2    -0.180000       12.0110           0
      3446 MEMB     40       POPC     H15R     HAL2     0.900000E-01   1.00800           0
      3447 MEMB     40       POPC     H15S     HAL2     0.900000E-01   1.00800           0
      3448 MEMB     40       POPC     C216     CTL2    -0.180000       12.0110           0
      3449 MEMB     40       POPC     H16R     HAL2     0.900000E-01   1.00800           0
      3450 MEMB     40       POPC     H16S     HAL2     0.900000E-01   1.00800           0
      3451 MEMB     40       POPC     C217     CTL2    -0.180000       12.0110           0
      3452 MEMB     40       POPC     H17R     HAL2     0.900000E-01   1.00800           0
      3453 MEMB     40       POPC     H17S     HAL2     0.900000E-01   1.00800           0
      3454 MEMB     40       POPC     C218     CTL3    -0.270000       12.0110           0
      3455 MEMB     40       POPC     H18R     HAL3     0.900000E-01   1.00800           0
      3456 MEMB     40       POPC     H18S     HAL3     0.900000E-01   1.00800           0
      3457 MEMB     40       POPC     H18T     HAL3     0.900000E-01   1.00800           0
      3458 MEMB     40       POPC     C33      CTL2    -0.180000       12.0110           0
      3459 MEMB     40       POPC     H3X      HAL2     0.900000E-01   1.00800           0
      3460 MEMB     40       POPC     H3Y      HAL2     0.900000E-01   1.00800           0
      3461 MEMB     40       POPC     C34      CTL2    -0.180000       12.0110           0
      3462 MEMB     40       POPC     H4X      HAL2     0.900000E-01   1.00800           0
      3463 MEMB     40       POPC     H4Y      HAL2     0.900000E-01   1.00800           0
      3464 MEMB     40       POPC     C35      CTL2    -0.180000       12.0110           0
      3465 MEMB     40       POPC     H5X      HAL2     0.900000E-01   1.00800           0
      3466 MEMB     40       POPC     H5Y      HAL2     0.900000E-01   1.00800           0
      3467 MEMB     40       POPC     C36      CTL2    -0.180000       12.0110           0
      3468 MEMB     40       POPC     H6X      HAL2     0.900000E-01   1.00800           0
      3469 MEMB     40       POPC     H6Y      HAL2     0.900000E-01   1.00800           0
      3470 MEMB     40       POPC     C37      CTL2    -0.180000       12.0110           0
      3471 MEMB     40       POPC     H7X      HAL2     0.900000E-01   1.00800           0
      3472 MEMB     40       POPC     H7Y      HAL2     0.900000E-01   1.00800           0
      3473 MEMB     40       POPC     C38      CTL2    -0.180000       12.0110           0
      3474 MEMB     40       POPC     H8X      HAL2     0.900000E-01   1.00800           0
      3475 MEMB     40       POPC     H8Y      HAL2     0.900000E-01   1.00800           0
      3476 MEMB     40       POPC     C39      CTL2    -0.180000       12.0110           0
      3477 MEMB     40       POPC     H9X      HAL2     0.900000E-01   1.00800           0
      3478 MEMB     40       POPC     H9Y      HAL2     0.900000E-01   1.00800           0
      3479 MEMB     40       POPC     C310     CTL2    -0.180000       12.0110           0
      3480 MEMB     40       POPC     H10X     HAL2     0.900000E-01   1.00800           0
      3481 MEMB     40       POPC     H10Y     HAL2     0.900000E-01   1.00800           0
      3482 MEMB     40       POPC     C311     CTL2    -0.180000       12.0110           0
      3483 MEMB     40       POPC     H11X     HAL2     0.900000E-01   1.00800           0
      3484 MEMB     40       POPC     H11Y     HAL2     0.900000E-01   1.00800           0
      3485 MEMB     40       POPC     C312     CTL2    -0.180000       12.0110           0
      3486 MEMB     40       POPC     H12X     HAL2     0.900000E-01   1.00800           0
      3487 MEMB     40       POPC     H12Y     HAL2     0.900000E-01   1.00800           0
      3488 MEMB     40       POPC     C313     CTL2    -0.180000       12.0110           0
      3489 MEMB     40       POPC     H13X     HAL2     0.900000E-01   1.00800           0
      3490 MEMB     40       POPC     H13Y     HAL2     0.900000E-01   1.00800           0
      3491 MEMB     40       POPC     C314     CTL2    -0.180000       12.0110           0
      3492 MEMB     40       POPC     H14X     HAL2     0.900000E-01   1.00800           0
      3493 MEMB     40       POPC     H14Y     HAL2     0.900000E-01   1.00800           0
      3494 MEMB     40       POPC     C315     CTL2    -0.180000       12.0110           0
      3495 MEMB     40       POPC     H15X     HAL2     0.900000E-01   1.00800           0
      3496 MEMB     40       POPC     H15Y     HAL2     0.900000E-01   1.00800           0
      3497 MEMB     40       POPC     C316     CTL3    -0.270000       12.0110           0
      3498 MEMB     40       POPC     H16X     HAL3     0.900000E-01   1.00800           0
      3499 MEMB     40       POPC     H16Y     HAL3     0.900000E-01   1.00800           0
      3500 MEMB     40       POPC     H16Z     HAL3     0.900000E-01   1.00800           0
      3501 MEMB     41       POPC     N        NTL     -0.600000       14.0070           0
      3502 MEMB     41       POPC     C12      CTL2    -0.100000       12.0110           0
      3503 MEMB     41       POPC     H12A     HL       0.250000       1.00800           0
      3504 MEMB     41       POPC     H12B     HL       0.250000       1.00800           0
      3505 MEMB     41       POPC     C13      CTL5    -0.350000       12.0110           0
      3506 MEMB     41       POPC     H13A     HL       0.250000       1.00800           0
      3507 MEMB     41       POPC     H13B     HL       0.250000       1.00800           0
      3508 MEMB     41       POPC     H13C     HL       0.250000       1.00800           0
      3509 MEMB     41       POPC     C14      CTL5    -0.350000       12.0110           0
      3510 MEMB     41       POPC     H14A     HL       0.250000       1.00800           0
      3511 MEMB     41       POPC     H14B     HL       0.250000       1.00800           0
      3512 MEMB     41       POPC     H14C     HL       0.250000       1.00800           0
      3513 MEMB     41       POPC     C15      CTL5    -0.350000       12.0110           0
      3514 MEMB     41       POPC     H15A     HL       0.250000       1.00800           0
      3515 MEMB     41       POPC     H15B     HL       0.250000       1.00800           0
      3516 MEMB     41       POPC     H15C     HL       0.250000       1.00800           0
      3517 MEMB     41       POPC     C11      CTL2    -0.800000E-01   12.0110           0
      3518 MEMB     41       POPC     H11A     HAL2     0.900000E-01   1.00800           0
      3519 MEMB     41       POPC     H11B     HAL2     0.900000E-01   1.00800           0
      3520 MEMB     41       POPC     P        PL        1.50000       30.9740           0
      3521 MEMB     41       POPC     O13      O2L     -0.780000       15.9994           0
      3522 MEMB     41       POPC     O14      O2L     -0.780000       15.9994           0
      3523 MEMB     41       POPC     O12      OSLP    -0.570000       15.9994           0
      3524 MEMB     41       POPC     O11      OSLP    -0.570000       15.9994           0
      3525 MEMB     41       POPC     C1       CTL2    -0.800000E-01   12.0110           0
      3526 MEMB     41       POPC     HA       HAL2     0.900000E-01   1.00800           0
      3527 MEMB     41       POPC     HB       HAL2     0.900000E-01   1.00800           0
      3528 MEMB     41       POPC     C2       CTL1     0.170000       12.0110           0
      3529 MEMB     41       POPC     HS       HAL1     0.900000E-01   1.00800           0
      3530 MEMB     41       POPC     O21      OSL     -0.490000       15.9994           0
      3531 MEMB     41       POPC     C21      CL       0.900000       12.0110           0
      3532 MEMB     41       POPC     O22      OBL     -0.630000       15.9994           0
      3533 MEMB     41       POPC     C22      CTL2    -0.220000       12.0110           0
      3534 MEMB     41       POPC     H2R      HAL2     0.900000E-01   1.00800           0
      3535 MEMB     41       POPC     H2S      HAL2     0.900000E-01   1.00800           0
      3536 MEMB     41       POPC     C3       CTL2     0.800000E-01   12.0110           0
      3537 MEMB     41       POPC     HX       HAL2     0.900000E-01   1.00800           0
      3538 MEMB     41       POPC     HY       HAL2     0.900000E-01   1.00800           0
      3539 MEMB     41       POPC     O31      OSL     -0.490000       15.9994           0
      3540 MEMB     41       POPC     C31      CL       0.900000       12.0110           0
      3541 MEMB     41       POPC     O32      OBL     -0.630000       15.9994           0
      3542 MEMB     41       POPC     C32      CTL2    -0.220000       12.0110           0
      3543 MEMB     41       POPC     H2X      HAL2     0.900000E-01   1.00800           0
      3544 MEMB     41       POPC     H2Y      HAL2     0.900000E-01   1.00800           0
      3545 MEMB     41       POPC     C23      CTL2    -0.180000       12.0110           0
      3546 MEMB     41       POPC     H3R      HAL2     0.900000E-01   1.00800           0
      3547 MEMB     41       POPC     H3S      HAL2     0.900000E-01   1.00800           0
      3548 MEMB     41       POPC     C24      CTL2    -0.180000       12.0110           0
      3549 MEMB     41       POPC     H4R      HAL2     0.900000E-01   1.00800           0
      3550 MEMB     41       POPC     H4S      HAL2     0.900000E-01   1.00800           0
      3551 MEMB     41       POPC     C25      CTL2    -0.180000       12.0110           0
      3552 MEMB     41       POPC     H5R      HAL2     0.900000E-01   1.00800           0
      3553 MEMB     41       POPC     H5S      HAL2     0.900000E-01   1.00800           0
      3554 MEMB     41       POPC     C26      CTL2    -0.180000       12.0110           0
      3555 MEMB     41       POPC     H6R      HAL2     0.900000E-01   1.00800           0
      3556 MEMB     41       POPC     H6S      HAL2     0.900000E-01   1.00800           0
      3557 MEMB     41       POPC     C27      CTL2    -0.180000       12.0110           0
      3558 MEMB     41       POPC     H7R      HAL2     0.900000E-01   1.00800           0
      3559 MEMB     41       POPC     H7S      HAL2     0.900000E-01   1.00800           0
      3560 MEMB     41       POPC     C28      CTL2    -0.180000       12.0110           0
      3561 MEMB     41       POPC     H8R      HAL2     0.900000E-01   1.00800           0
      3562 MEMB     41       POPC     H8S      HAL2     0.900000E-01   1.00800           0
      3563 MEMB     41       POPC     C29      CEL1    -0.150000       12.0110           0
      3564 MEMB     41       POPC     H91      HEL1     0.150000       1.00800           0
      3565 MEMB     41       POPC     C210     CEL1    -0.150000       12.0110           0
      3566 MEMB     41       POPC     H101     HEL1     0.150000       1.00800           0
      3567 MEMB     41       POPC     C211     CTL2    -0.180000       12.0110           0
      3568 MEMB     41       POPC     H11R     HAL2     0.900000E-01   1.00800           0
      3569 MEMB     41       POPC     H11S     HAL2     0.900000E-01   1.00800           0
      3570 MEMB     41       POPC     C212     CTL2    -0.180000       12.0110           0
      3571 MEMB     41       POPC     H12R     HAL2     0.900000E-01   1.00800           0
      3572 MEMB     41       POPC     H12S     HAL2     0.900000E-01   1.00800           0
      3573 MEMB     41       POPC     C213     CTL2    -0.180000       12.0110           0
      3574 MEMB     41       POPC     H13R     HAL2     0.900000E-01   1.00800           0
      3575 MEMB     41       POPC     H13S     HAL2     0.900000E-01   1.00800           0
      3576 MEMB     41       POPC     C214     CTL2    -0.180000       12.0110           0
      3577 MEMB     41       POPC     H14R     HAL2     0.900000E-01   1.00800           0
      3578 MEMB     41       POPC     H14S     HAL2     0.900000E-01   1.00800           0
      3579 MEMB     41       POPC     C215     CTL2    -0.180000       12.0110           0
      3580 MEMB     41       POPC     H15R     HAL2     0.900000E-01   1.00800           0
      3581 MEMB     41       POPC     H15S     HAL2     0.900000E-01   1.00800           0
      3582 MEMB     41       POPC     C216     CTL2    -0.180000       12.0110           0
      3583 MEMB     41       POPC     H16R     HAL2     0.900000E-01   1.00800           0
      3584 MEMB     41       POPC     H16S     HAL2     0.900000E-01   1.00800           0
      3585 MEMB     41       POPC     C217     CTL2    -0.180000       12.0110           0
      3586 MEMB     41       POPC     H17R     HAL2     0.900000E-01   1.00800           0
      3587 MEMB     41       POPC     H17S     HAL2     0.900000E-01   1.00800           0
      3588 MEMB     41       POPC     C218     CTL3    -0.270000       12.0110           0
      3589 MEMB     41       POPC     H18R     HAL3     0.900000E-01   1.00800           0
      3590 MEMB     41       POPC     H18S     HAL3     0.900000E-01   1.00800           0
      3591 MEMB     41       POPC     H18T     HAL3     0.900000E-01   1.00800           0
      3592 MEMB     41       POPC     C33      CTL2    -0.180000       12.0110           0
      3593 MEMB     41       POPC     H3X      HAL2     0.900000E-01   1.00800           0
      3594 MEMB     41       POPC     H3Y      HAL2     0.900000E-01   1.00800           0
      3595 MEMB     41       POPC     C34      CTL2    -0.180000       12.0110           0
      3596 MEMB     41       POPC     H4X      HAL2     0.900000E-01   1.00800           0
      3597 MEMB     41       POPC     H4Y      HAL2     0.900000E-01   1.00800           0
      3598 MEMB     41       POPC     C35      CTL2    -0.180000       12.0110           0
      3599 MEMB     41       POPC     H5X      HAL2     0.900000E-01   1.00800           0
      3600 MEMB     41       POPC     H5Y      HAL2     0.900000E-01   1.00800           0
      3601 MEMB     41       POPC     C36      CTL2    -0.180000       12.0110           0
      3602 MEMB     41       POPC     H6X      HAL2     0.900000E-01   1.00800           0
      3603 MEMB     41       POPC     H6Y      HAL2     0.900000E-01   1.00800           0
      3604 MEMB     41       POPC     C37      CTL2    -0.180000       12.0110           0
      3605 MEMB     41       POPC     H7X      HAL2     0.900000E-01   1.00800           0
      3606 MEMB     41       POPC     H7Y      HAL2     0.900000E-01   1.00800           0
      3607 MEMB     41       POPC     C38      CTL2    -0.180000       12.0110           0
      3608 MEMB     41       POPC     H8X      HAL2     0.900000E-01   1.00800           0
      3609 MEMB     41       POPC     H8Y      HAL2     0.900000E-01   1.00800           0
      3610 MEMB     41       POPC     C39      CTL2    -0.180000       12.0110           0
      3611 MEMB     41       POPC     H9X      HAL2     0.900000E-01   1.00800           0
      3612 MEMB     41       POPC     H9Y      HAL2     0.900000E-01   1.00800           0
      3613 MEMB     41       POPC     C310     CTL2    -0.180000       12.0110           0
      3614 MEMB     41       POPC     H10X     HAL2     0.900000E-01   1.00800           0
      3615 MEMB     41       POPC     H10Y     HAL2     0.900000E-01   1.00800           0
      3616 MEMB     41       POPC     C311     CTL2    -0.180000       12.0110           0
      3617 MEMB     41       POPC     H11X     HAL2     0.900000E-01   1.00800           0
      3618 MEMB     41       POPC     H11Y     HAL2     0.900000E-01   1.00800           0
      3619 MEMB     41       POPC     C312     CTL2    -0.180000       12.0110           0
      3620 MEMB     41       POPC     H12X     HAL2     0.900000E-01   1.00800           0
      3621 MEMB     41       POPC     H12Y     HAL2     0.900000E-01   1.00800           0
      3622 MEMB     41       POPC     C313     CTL2    -0.180000       12.0110           0
      3623 MEMB     41       POPC     H13X     HAL2     0.900000E-01   1.00800           0
      3624 MEMB     41       POPC     H13Y     HAL2     0.900000E-01   1.00800           0
      3625 MEMB     41       POPC     C314     CTL2    -0.180000       12.0110           0
      3626 MEMB     41       POPC     H14X     HAL2     0.900000E-01   1.00800           0
      3627 MEMB     41       POPC     H14Y     HAL2     0.900000E-01   1.00800           0
      3628 MEMB     41       POPC     C315     CTL2    -0.180000       12.0110           0
      3629 MEMB     41       POPC     H15X     HAL2     0.900000E-01   1.00800           0
      3630 MEMB     41       POPC     H15Y     HAL2     0.900000E-01   1.00800           0
      3631 MEMB     41       POPC     C316     CTL3    -0.270000       12.0110           0
      3632 MEMB     41       POPC     H16X     HAL3     0.900000E-01   1.00800           0
      3633 MEMB     41       POPC     H16Y     HAL3     0.900000E-01   1.00800           0
      3634 MEMB     41       POPC     H16Z     HAL3     0.900000E-01   1.00800           0
      3635 MEMB     42       POPC     N        NTL     -0.600000       14.0070           0
      3636 MEMB     42       POPC     C12      CTL2    -0.100000       12.0110           0
      3637 MEMB     42       POPC     H12A     HL       0.250000       1.00800           0
      3638 MEMB     42       POPC     H12B     HL       0.250000       1.00800           0
      3639 MEMB     42       POPC     C13      CTL5    -0.350000       12.0110           0
      3640 MEMB     42       POPC     H13A     HL       0.250000       1.00800           0
      3641 MEMB     42       POPC     H13B     HL       0.250000       1.00800           0
      3642 MEMB     42       POPC     H13C     HL       0.250000       1.00800           0
      3643 MEMB     42       POPC     C14      CTL5    -0.350000       12.0110           0
      3644 MEMB     42       POPC     H14A     HL       0.250000       1.00800           0
      3645 MEMB     42       POPC     H14B     HL       0.250000       1.00800           0
      3646 MEMB     42       POPC     H14C     HL       0.250000       1.00800           0
      3647 MEMB     42       POPC     C15      CTL5    -0.350000       12.0110           0
      3648 MEMB     42       POPC     H15A     HL       0.250000       1.00800           0
      3649 MEMB     42       POPC     H15B     HL       0.250000       1.00800           0
      3650 MEMB     42       POPC     H15C     HL       0.250000       1.00800           0
      3651 MEMB     42       POPC     C11      CTL2    -0.800000E-01   12.0110           0
      3652 MEMB     42       POPC     H11A     HAL2     0.900000E-01   1.00800           0
      3653 MEMB     42       POPC     H11B     HAL2     0.900000E-01   1.00800           0
      3654 MEMB     42       POPC     P        PL        1.50000       30.9740           0
      3655 MEMB     42       POPC     O13      O2L     -0.780000       15.9994           0
      3656 MEMB     42       POPC     O14      O2L     -0.780000       15.9994           0
      3657 MEMB     42       POPC     O12      OSLP    -0.570000       15.9994           0
      3658 MEMB     42       POPC     O11      OSLP    -0.570000       15.9994           0
      3659 MEMB     42       POPC     C1       CTL2    -0.800000E-01   12.0110           0
      3660 MEMB     42       POPC     HA       HAL2     0.900000E-01   1.00800           0
      3661 MEMB     42       POPC     HB       HAL2     0.900000E-01   1.00800           0
      3662 MEMB     42       POPC     C2       CTL1     0.170000       12.0110           0
      3663 MEMB     42       POPC     HS       HAL1     0.900000E-01   1.00800           0
      3664 MEMB     42       POPC     O21      OSL     -0.490000       15.9994           0
      3665 MEMB     42       POPC     C21      CL       0.900000       12.0110           0
      3666 MEMB     42       POPC     O22      OBL     -0.630000       15.9994           0
      3667 MEMB     42       POPC     C22      CTL2    -0.220000       12.0110           0
      3668 MEMB     42       POPC     H2R      HAL2     0.900000E-01   1.00800           0
      3669 MEMB     42       POPC     H2S      HAL2     0.900000E-01   1.00800           0
      3670 MEMB     42       POPC     C3       CTL2     0.800000E-01   12.0110           0
      3671 MEMB     42       POPC     HX       HAL2     0.900000E-01   1.00800           0
      3672 MEMB     42       POPC     HY       HAL2     0.900000E-01   1.00800           0
      3673 MEMB     42       POPC     O31      OSL     -0.490000       15.9994           0
      3674 MEMB     42       POPC     C31      CL       0.900000       12.0110           0
      3675 MEMB     42       POPC     O32      OBL     -0.630000       15.9994           0
      3676 MEMB     42       POPC     C32      CTL2    -0.220000       12.0110           0
      3677 MEMB     42       POPC     H2X      HAL2     0.900000E-01   1.00800           0
      3678 MEMB     42       POPC     H2Y      HAL2     0.900000E-01   1.00800           0
      3679 MEMB     42       POPC     C23      CTL2    -0.180000       12.0110           0
      3680 MEMB     42       POPC     H3R      HAL2     0.900000E-01   1.00800           0
      3681 MEMB     42       POPC     H3S      HAL2     0.900000E-01   1.00800           0
      3682 MEMB     42       POPC     C24      CTL2    -0.180000       12.0110           0
      3683 MEMB     42       POPC     H4R      HAL2     0.900000E-01   1.00800           0
      3684 MEMB     42       POPC     H4S      HAL2     0.900000E-01   1.00800           0
      3685 MEMB     42       POPC     C25      CTL2    -0.180000       12.0110           0
      3686 MEMB     42       POPC     H5R      HAL2     0.900000E-01   1.00800           0
      3687 MEMB     42       POPC     H5S      HAL2     0.900000E-01   1.00800           0
      3688 MEMB     42       POPC     C26      CTL2    -0.180000       12.0110           0
      3689 MEMB     42       POPC     H6R      HAL2     0.900000E-01   1.00800           0
      3690 MEMB     42       POPC     H6S      HAL2     0.900000E-01   1.00800           0
      3691 MEMB     42       POPC     C27      CTL2    -0.180000       12.0110           0
      3692 MEMB     42       POPC     H7R      HAL2     0.900000E-01   1.00800           0
      3693 MEMB     42       POPC     H7S      HAL2     0.900000E-01   1.00800           0
      3694 MEMB     42       POPC     C28      CTL2    -0.180000       12.0110           0
      3695 MEMB     42       POPC     H8R      HAL2     0.900000E-01   1.00800           0
      3696 MEMB     42       POPC     H8S      HAL2     0.900000E-01   1.00800           0
      3697 MEMB     42       POPC     C29      CEL1    -0.150000       12.0110           0
      3698 MEMB     42       POPC     H91      HEL1     0.150000       1.00800           0
      3699 MEMB     42       POPC     C210     CEL1    -0.150000       12.0110           0
      3700 MEMB     42       POPC     H101     HEL1     0.150000       1.00800           0
      3701 MEMB     42       POPC     C211     CTL2    -0.180000       12.0110           0
      3702 MEMB     42       POPC     H11R     HAL2     0.900000E-01   1.00800           0
      3703 MEMB     42       POPC     H11S     HAL2     0.900000E-01   1.00800           0
      3704 MEMB     42       POPC     C212     CTL2    -0.180000       12.0110           0
      3705 MEMB     42       POPC     H12R     HAL2     0.900000E-01   1.00800           0
      3706 MEMB     42       POPC     H12S     HAL2     0.900000E-01   1.00800           0
      3707 MEMB     42       POPC     C213     CTL2    -0.180000       12.0110           0
      3708 MEMB     42       POPC     H13R     HAL2     0.900000E-01   1.00800           0
      3709 MEMB     42       POPC     H13S     HAL2     0.900000E-01   1.00800           0
      3710 MEMB     42       POPC     C214     CTL2    -0.180000       12.0110           0
      3711 MEMB     42       POPC     H14R     HAL2     0.900000E-01   1.00800           0
      3712 MEMB     42       POPC     H14S     HAL2     0.900000E-01   1.00800           0
      3713 MEMB     42       POPC     C215     CTL2    -0.180000       12.0110           0
      3714 MEMB     42       POPC     H15R     HAL2     0.900000E-01   1.00800           0
      3715 MEMB     42       POPC     H15S     HAL2     0.900000E-01   1.00800           0
      3716 MEMB     42       POPC     C216     CTL2    -0.180000       12.0110           0
      3717 MEMB     42       POPC     H16R     HAL2     0.900000E-01   1.00800           0
      3718 MEMB     42       POPC     H16S     HAL2     0.900000E-01   1.00800           0
      3719 MEMB     42       POPC     C217     CTL2    -0.180000       12.0110           0
      3720 MEMB     42       POPC     H17R     HAL2     0.900000E-01   1.00800           0
      3721 MEMB     42       POPC     H17S     HAL2     0.900000E-01   1.00800           0
      3722 MEMB     42       POPC     C218     CTL3    -0.270000       12.0110           0
      3723 MEMB     42       POPC     H18R     HAL3     0.900000E-01   1.00800           0
      3724 MEMB     42       POPC     H18S     HAL3     0.900000E-01   1.00800           0
      3725 MEMB     42       POPC     H18T     HAL3     0.900000E-01   1.00800           0
      3726 MEMB     42       POPC     C33      CTL2    -0.180000       12.0110           0
      3727 MEMB     42       POPC     H3X      HAL2     0.900000E-01   1.00800           0
      3728 MEMB     42       POPC     H3Y      HAL2     0.900000E-01   1.00800           0
      3729 MEMB     42       POPC     C34      CTL2    -0.180000       12.0110           0
      3730 MEMB     42       POPC     H4X      HAL2     0.900000E-01   1.00800           0
      3731 MEMB     42       POPC     H4Y      HAL2     0.900000E-01   1.00800           0
      3732 MEMB     42       POPC     C35      CTL2    -0.180000       12.0110           0
      3733 MEMB     42       POPC     H5X      HAL2     0.900000E-01   1.00800           0
      3734 MEMB     42       POPC     H5Y      HAL2     0.900000E-01   1.00800           0
      3735 MEMB     42       POPC     C36      CTL2    -0.180000       12.0110           0
      3736 MEMB     42       POPC     H6X      HAL2     0.900000E-01   1.00800           0
      3737 MEMB     42       POPC     H6Y      HAL2     0.900000E-01   1.00800           0
      3738 MEMB     42       POPC     C37      CTL2    -0.180000       12.0110           0
      3739 MEMB     42       POPC     H7X      HAL2     0.900000E-01   1.00800           0
      3740 MEMB     42       POPC     H7Y      HAL2     0.900000E-01   1.00800           0
      3741 MEMB     42       POPC     C38      CTL2    -0.180000       12.0110           0
      3742 MEMB     42       POPC     H8X      HAL2     0.900000E-01   1.00800           0
      3743 MEMB     42       POPC     H8Y      HAL2     0.900000E-01   1.00800           0
      3744 MEMB     42       POPC     C39      CTL2    -0.180000       12.0110           0
      3745 MEMB     42       POPC     H9X      HAL2     0.900000E-01   1.00800           0
      3746 MEMB     42       POPC     H9Y      HAL2     0.900000E-01   1.00800           0
      3747 MEMB     42       POPC     C310     CTL2    -0.180000       12.0110           0
      3748 MEMB     42       POPC     H10X     HAL2     0.900000E-01   1.00800           0
      3749 MEMB     42       POPC     H10Y     HAL2     0.900000E-01   1.00800           0
      3750 MEMB     42       POPC     C311     CTL2    -0.180000       12.0110           0
      3751 MEMB     42       POPC     H11X     HAL2     0.900000E-01   1.00800           0
      3752 MEMB     42       POPC     H11Y     HAL2     0.900000E-01   1.00800           0
      3753 MEMB     42       POPC     C312     CTL2    -0.180000       12.0110           0
      3754 MEMB     42       POPC     H12X     HAL2     0.900000E-01   1.00800           0
      3755 MEMB     42       POPC     H12Y     HAL2     0.900000E-01   1.00800           0
      3756 MEMB     42       POPC     C313     CTL2    -0.180000       12.0110           0
      3757 MEMB     42       POPC     H13X     HAL2     0.900000E-01   1.00800           0
      3758 MEMB     42       POPC     H13Y     HAL2     0.900000E-01   1.00800           0
      3759 MEMB     42       POPC     C314     CTL2    -0.180000       12.0110           0
      3760 MEMB     42       POPC     H14X     HAL2     0.900000E-01   1.00800           0
      3761 MEMB     42       POPC     H14Y     HAL2     0.900000E-01   1.00800           0
      3762 MEMB     42       POPC     C315     CTL2    -0.180000       12.0110           0
      3763 MEMB     42       POPC     H15X     HAL2     0.900000E-01   1.00800           0
      3764 MEMB     42       POPC     H15Y     HAL2     0.900000E-01   1.00800           0
      3765 MEMB     42       POPC     C316     CTL3    -0.270000       12.0110           0
      3766 MEMB     42       POPC     H16X     HAL3     0.900000E-01   1.00800           0
      3767 MEMB     42       POPC     H16Y     HAL3     0.900000E-01   1.00800           0
      3768 MEMB     42       POPC     H16Z     HAL3     0.900000E-01   1.00800           0
      3769 MEMB     43       POPC     N        NTL     -0.600000       14.0070           0
      3770 MEMB     43       POPC     C12      CTL2    -0.100000       12.0110           0
      3771 MEMB     43       POPC     H12A     HL       0.250000       1.00800           0
      3772 MEMB     43       POPC     H12B     HL       0.250000       1.00800           0
      3773 MEMB     43       POPC     C13      CTL5    -0.350000       12.0110           0
      3774 MEMB     43       POPC     H13A     HL       0.250000       1.00800           0
      3775 MEMB     43       POPC     H13B     HL       0.250000       1.00800           0
      3776 MEMB     43       POPC     H13C     HL       0.250000       1.00800           0
      3777 MEMB     43       POPC     C14      CTL5    -0.350000       12.0110           0
      3778 MEMB     43       POPC     H14A     HL       0.250000       1.00800           0
      3779 MEMB     43       POPC     H14B     HL       0.250000       1.00800           0
      3780 MEMB     43       POPC     H14C     HL       0.250000       1.00800           0
      3781 MEMB     43       POPC     C15      CTL5    -0.350000       12.0110           0
      3782 MEMB     43       POPC     H15A     HL       0.250000       1.00800           0
      3783 MEMB     43       POPC     H15B     HL       0.250000       1.00800           0
      3784 MEMB     43       POPC     H15C     HL       0.250000       1.00800           0
      3785 MEMB     43       POPC     C11      CTL2    -0.800000E-01   12.0110           0
      3786 MEMB     43       POPC     H11A     HAL2     0.900000E-01   1.00800           0
      3787 MEMB     43       POPC     H11B     HAL2     0.900000E-01   1.00800           0
      3788 MEMB     43       POPC     P        PL        1.50000       30.9740           0
      3789 MEMB     43       POPC     O13      O2L     -0.780000       15.9994           0
      3790 MEMB     43       POPC     O14      O2L     -0.780000       15.9994           0
      3791 MEMB     43       POPC     O12      OSLP    -0.570000       15.9994           0
      3792 MEMB     43       POPC     O11      OSLP    -0.570000       15.9994           0
      3793 MEMB     43       POPC     C1       CTL2    -0.800000E-01   12.0110           0
      3794 MEMB     43       POPC     HA       HAL2     0.900000E-01   1.00800           0
      3795 MEMB     43       POPC     HB       HAL2     0.900000E-01   1.00800           0
      3796 MEMB     43       POPC     C2       CTL1     0.170000       12.0110           0
      3797 MEMB     43       POPC     HS       HAL1     0.900000E-01   1.00800           0
      3798 MEMB     43       POPC     O21      OSL     -0.490000       15.9994           0
      3799 MEMB     43       POPC     C21      CL       0.900000       12.0110           0
      3800 MEMB     43       POPC     O22      OBL     -0.630000       15.9994           0
      3801 MEMB     43       POPC     C22      CTL2    -0.220000       12.0110           0
      3802 MEMB     43       POPC     H2R      HAL2     0.900000E-01   1.00800           0
      3803 MEMB     43       POPC     H2S      HAL2     0.900000E-01   1.00800           0
      3804 MEMB     43       POPC     C3       CTL2     0.800000E-01   12.0110           0
      3805 MEMB     43       POPC     HX       HAL2     0.900000E-01   1.00800           0
      3806 MEMB     43       POPC     HY       HAL2     0.900000E-01   1.00800           0
      3807 MEMB     43       POPC     O31      OSL     -0.490000       15.9994           0
      3808 MEMB     43       POPC     C31      CL       0.900000       12.0110           0
      3809 MEMB     43       POPC     O32      OBL     -0.630000       15.9994           0
      3810 MEMB     43       POPC     C32      CTL2    -0.220000       12.0110           0
      3811 MEMB     43       POPC     H2X      HAL2     0.900000E-01   1.00800           0
      3812 MEMB     43       POPC     H2Y      HAL2     0.900000E-01   1.00800           0
      3813 MEMB     43       POPC     C23      CTL2    -0.180000       12.0110           0
      3814 MEMB     43       POPC     H3R      HAL2     0.900000E-01   1.00800           0
      3815 MEMB     43       POPC     H3S      HAL2     0.900000E-01   1.00800           0
      3816 MEMB     43       POPC     C24      CTL2    -0.180000       12.0110           0
      3817 MEMB     43       POPC     H4R      HAL2     0.900000E-01   1.00800           0
      3818 MEMB     43       POPC     H4S      HAL2     0.900000E-01   1.00800           0
      3819 MEMB     43       POPC     C25      CTL2    -0.180000       12.0110           0
      3820 MEMB     43       POPC     H5R      HAL2     0.900000E-01   1.00800           0
      3821 MEMB     43       POPC     H5S      HAL2     0.900000E-01   1.00800           0
      3822 MEMB     43       POPC     C26      CTL2    -0.180000       12.0110           0
      3823 MEMB     43       POPC     H6R      HAL2     0.900000E-01   1.00800           0
      3824 MEMB     43       POPC     H6S      HAL2     0.900000E-01   1.00800           0
      3825 MEMB     43       POPC     C27      CTL2    -0.180000       12.0110           0
      3826 MEMB     43       POPC     H7R      HAL2     0.900000E-01   1.00800           0
      3827 MEMB     43       POPC     H7S      HAL2     0.900000E-01   1.00800           0
      3828 MEMB     43       POPC     C28      CTL2    -0.180000       12.0110           0
      3829 MEMB     43       POPC     H8R      HAL2     0.900000E-01   1.00800           0
      3830 MEMB     43       POPC     H8S      HAL2     0.900000E-01   1.00800           0
      3831 MEMB     43       POPC     C29      CEL1    -0.150000       12.0110           0
      3832 MEMB     43       POPC     H91      HEL1     0.150000       1.00800           0
      3833 MEMB     43       POPC     C210     CEL1    -0.150000       12.0110           0
      3834 MEMB     43       POPC     H101     HEL1     0.150000       1.00800           0
      3835 MEMB     43       POPC     C211     CTL2    -0.180000       12.0110           0
      3836 MEMB     43       POPC     H11R     HAL2     0.900000E-01   1.00800           0
      3837 MEMB     43       POPC     H11S     HAL2     0.900000E-01   1.00800           0
      3838 MEMB     43       POPC     C212     CTL2    -0.180000       12.0110           0
      3839 MEMB     43       POPC     H12R     HAL2     0.900000E-01   1.00800           0
      3840 MEMB     43       POPC     H12S     HAL2     0.900000E-01   1.00800           0
      3841 MEMB     43       POPC     C213     CTL2    -0.180000       12.0110           0
      3842 MEMB     43       POPC     H13R     HAL2     0.900000E-01   1.00800           0
      3843 MEMB     43       POPC     H13S     HAL2     0.900000E-01   1.00800           0
      3844 MEMB     43       POPC     C214     CTL2    -0.180000       12.0110           0
      3845 MEMB     43       POPC     H14R     HAL2     0.900000E-01   1.00800           0
      3846 MEMB     43       POPC     H14S     HAL2     0.900000E-01   1.00800           0
      3847 MEMB     43       POPC     C215     CTL2    -0.180000       12.0110           0
      3848 MEMB     43       POPC     H15R     HAL2     0.900000E-01   1.00800           0
      3849 MEMB     43       POPC     H15S     HAL2     0.900000E-01   1.00800           0
      3850 MEMB     43       POPC     C216     CTL2    -0.180000       12.0110           0
      3851 MEMB     43       POPC     H16R     HAL2     0.900000E-01   1.00800           0
      3852 MEMB     43       POPC     H16S     HAL2     0.900000E-01   1.00800           0
      3853 MEMB     43       POPC     C217     CTL2    -0.180000       12.0110           0
      3854 MEMB     43       POPC     H17R     HAL2     0.900000E-01   1.00800           0
      3855 MEMB     43       POPC     H17S     HAL2     0.900000E-01   1.00800           0
      3856 MEMB     43       POPC     C218     CTL3    -0.270000       12.0110           0
      3857 MEMB     43       POPC     H18R     HAL3     0.900000E-01   1.00800           0
      3858 MEMB     43       POPC     H18S     HAL3     0.900000E-01   1.00800           0
      3859 MEMB     43       POPC     H18T     HAL3     0.900000E-01   1.00800           0
      3860 MEMB     43       POPC     C33      CTL2    -0.180000       12.0110           0
      3861 MEMB     43       POPC     H3X      HAL2     0.900000E-01   1.00800           0
      3862 MEMB     43       POPC     H3Y      HAL2     0.900000E-01   1.00800           0
      3863 MEMB     43       POPC     C34      CTL2    -0.180000       12.0110           0
      3864 MEMB     43       POPC     H4X      HAL2     0.900000E-01   1.00800           0
      3865 MEMB     43       POPC     H4Y      HAL2     0.900000E-01   1.00800           0
      3866 MEMB     43       POPC     C35      CTL2    -0.180000       12.0110           0
      3867 MEMB     43       POPC     H5X      HAL2     0.900000E-01   1.00800           0
      3868 MEMB     43       POPC     H5Y      HAL2     0.900000E-01   1.00800           0
      3869 MEMB     43       POPC     C36      CTL2    -0.180000       12.0110           0
      3870 MEMB     43       POPC     H6X      HAL2     0.900000E-01   1.00800           0
      3871 MEMB     43       POPC     H6Y      HAL2     0.900000E-01   1.00800           0
      3872 MEMB     43       POPC     C37      CTL2    -0.180000       12.0110           0
      3873 MEMB     43       POPC     H7X      HAL2     0.900000E-01   1.00800           0
      3874 MEMB     43       POPC     H7Y      HAL2     0.900000E-01   1.00800           0
      3875 MEMB     43       POPC     C38      CTL2    -0.180000       12.0110           0
      3876 MEMB     43       POPC     H8X      HAL2     0.900000E-01   1.00800           0
      3877 MEMB     43       POPC     H8Y      HAL2     0.900000E-01   1.00800           0
      3878 MEMB     43       POPC     C39      CTL2    -0.180000       12.0110           0
      3879 MEMB     43       POPC     H9X      HAL2     0.900000E-01   1.00800           0
      3880 MEMB     43       POPC     H9Y      HAL2     0.900000E-01   1.00800           0
      3881 MEMB     43       POPC     C310     CTL2    -0.180000       12.0110           0
      3882 MEMB     43       POPC     H10X     HAL2     0.900000E-01   1.00800           0
      3883 MEMB     43       POPC     H10Y     HAL2     0.900000E-01   1.00800           0
      3884 MEMB     43       POPC     C311     CTL2    -0.180000       12.0110           0
      3885 MEMB     43       POPC     H11X     HAL2     0.900000E-01   1.00800           0
      3886 MEMB     43       POPC     H11Y     HAL2     0.900000E-01   1.00800           0
      3887 MEMB     43       POPC     C312     CTL2    -0.180000       12.0110           0
      3888 MEMB     43       POPC     H12X     HAL2     0.900000E-01   1.00800           0
      3889 MEMB     43       POPC     H12Y     HAL2     0.900000E-01   1.00800           0
      3890 MEMB     43       POPC     C313     CTL2    -0.180000       12.0110           0
      3891 MEMB     43       POPC     H13X     HAL2     0.900000E-01   1.00800           0
      3892 MEMB     43       POPC     H13Y     HAL2     0.900000E-01   1.00800           0
      3893 MEMB     43       POPC     C314     CTL2    -0.180000       12.0110           0
      3894 MEMB     43       POPC     H14X     HAL2     0.900000E-01   1.00800           0
      3895 MEMB     43       POPC     H14Y     HAL2     0.900000E-01   1.00800           0
      3896 MEMB     43       POPC     C315     CTL2    -0.180000       12.0110           0
      3897 MEMB     43       POPC     H15X     HAL2     0.900000E-01   1.00800           0
      3898 MEMB     43       POPC     H15Y     HAL2     0.900000E-01   1.00800           0
      3899 MEMB     43       POPC     C316     CTL3    -0.270000       12.0110           0
      3900 MEMB     43       POPC     H16X     HAL3     0.900000E-01   1.00800           0
      3901 MEMB     43       POPC     H16Y     HAL3     0.900000E-01   1.00800           0
      3902 MEMB     43       POPC     H16Z     HAL3     0.900000E-01   1.00800           0
      3903 MEMB     44       POPC     N        NTL     -0.600000       14.0070           0
      3904 MEMB     44       POPC     C12      CTL2    -0.100000       12.0110           0
      3905 MEMB     44       POPC     H12A     HL       0.250000       1.00800           0
      3906 MEMB     44       POPC     H12B     HL       0.250000       1.00800           0
      3907 MEMB     44       POPC     C13      CTL5    -0.350000       12.0110           0
      3908 MEMB     44       POPC     H13A     HL       0.250000       1.00800           0
      3909 MEMB     44       POPC     H13B     HL       0.250000       1.00800           0
      3910 MEMB     44       POPC     H13C     HL       0.250000       1.00800           0
      3911 MEMB     44       POPC     C14      CTL5    -0.350000       12.0110           0
      3912 MEMB     44       POPC     H14A     HL       0.250000       1.00800           0
      3913 MEMB     44       POPC     H14B     HL       0.250000       1.00800           0
      3914 MEMB     44       POPC     H14C     HL       0.250000       1.00800           0
      3915 MEMB     44       POPC     C15      CTL5    -0.350000       12.0110           0
      3916 MEMB     44       POPC     H15A     HL       0.250000       1.00800           0
      3917 MEMB     44       POPC     H15B     HL       0.250000       1.00800           0
      3918 MEMB     44       POPC     H15C     HL       0.250000       1.00800           0
      3919 MEMB     44       POPC     C11      CTL2    -0.800000E-01   12.0110           0
      3920 MEMB     44       POPC     H11A     HAL2     0.900000E-01   1.00800           0
      3921 MEMB     44       POPC     H11B     HAL2     0.900000E-01   1.00800           0
      3922 MEMB     44       POPC     P        PL        1.50000       30.9740           0
      3923 MEMB     44       POPC     O13      O2L     -0.780000       15.9994           0
      3924 MEMB     44       POPC     O14      O2L     -0.780000       15.9994           0
      3925 MEMB     44       POPC     O12      OSLP    -0.570000       15.9994           0
      3926 MEMB     44       POPC     O11      OSLP    -0.570000       15.9994           0
      3927 MEMB     44       POPC     C1       CTL2    -0.800000E-01   12.0110           0
      3928 MEMB     44       POPC     HA       HAL2     0.900000E-01   1.00800           0
      3929 MEMB     44       POPC     HB       HAL2     0.900000E-01   1.00800           0
      3930 MEMB     44       POPC     C2       CTL1     0.170000       12.0110           0
      3931 MEMB     44       POPC     HS       HAL1     0.900000E-01   1.00800           0
      3932 MEMB     44       POPC     O21      OSL     -0.490000       15.9994           0
      3933 MEMB     44       POPC     C21      CL       0.900000       12.0110           0
      3934 MEMB     44       POPC     O22      OBL     -0.630000       15.9994           0
      3935 MEMB     44       POPC     C22      CTL2    -0.220000       12.0110           0
      3936 MEMB     44       POPC     H2R      HAL2     0.900000E-01   1.00800           0
      3937 MEMB     44       POPC     H2S      HAL2     0.900000E-01   1.00800           0
      3938 MEMB     44       POPC     C3       CTL2     0.800000E-01   12.0110           0
      3939 MEMB     44       POPC     HX       HAL2     0.900000E-01   1.00800           0
      3940 MEMB     44       POPC     HY       HAL2     0.900000E-01   1.00800           0
      3941 MEMB     44       POPC     O31      OSL     -0.490000       15.9994           0
      3942 MEMB     44       POPC     C31      CL       0.900000       12.0110           0
      3943 MEMB     44       POPC     O32      OBL     -0.630000       15.9994           0
      3944 MEMB     44       POPC     C32      CTL2    -0.220000       12.0110           0
      3945 MEMB     44       POPC     H2X      HAL2     0.900000E-01   1.00800           0
      3946 MEMB     44       POPC     H2Y      HAL2     0.900000E-01   1.00800           0
      3947 MEMB     44       POPC     C23      CTL2    -0.180000       12.0110           0
      3948 MEMB     44       POPC     H3R      HAL2     0.900000E-01   1.00800           0
      3949 MEMB     44       POPC     H3S      HAL2     0.900000E-01   1.00800           0
      3950 MEMB     44       POPC     C24      CTL2    -0.180000       12.0110           0
      3951 MEMB     44       POPC     H4R      HAL2     0.900000E-01   1.00800           0
      3952 MEMB     44       POPC     H4S      HAL2     0.900000E-01   1.00800           0
      3953 MEMB     44       POPC     C25      CTL2    -0.180000       12.0110           0
      3954 MEMB     44       POPC     H5R      HAL2     0.900000E-01   1.00800           0
      3955 MEMB     44       POPC     H5S      HAL2     0.900000E-01   1.00800           0
      3956 MEMB     44       POPC     C26      CTL2    -0.180000       12.0110           0
      3957 MEMB     44       POPC     H6R      HAL2     0.900000E-01   1.00800           0
      3958 MEMB     44       POPC     H6S      HAL2     0.900000E-01   1.00800           0
      3959 MEMB     44       POPC     C27      CTL2    -0.180000       12.0110           0
      3960 MEMB     44       POPC     H7R      HAL2     0.900000E-01   1.00800           0
      3961 MEMB     44       POPC     H7S      HAL2     0.900000E-01   1.00800           0
      3962 MEMB     44       POPC     C28      CTL2    -0.180000       12.0110           0
      3963 MEMB     44       POPC     H8R      HAL2     0.900000E-01   1.00800           0
      3964 MEMB     44       POPC     H8S      HAL2     0.900000E-01   1.00800           0
      3965 MEMB     44       POPC     C29      CEL1    -0.150000       12.0110           0
      3966 MEMB     44       POPC     H91      HEL1     0.150000       1.00800           0
      3967 MEMB     44       POPC     C210     CEL1    -0.150000       12.0110           0
      3968 MEMB     44       POPC     H101     HEL1     0.150000       1.00800           0
      3969 MEMB     44       POPC     C211     CTL2    -0.180000       12.0110           0
      3970 MEMB     44       POPC     H11R     HAL2     0.900000E-01   1.00800           0
      3971 MEMB     44       POPC     H11S     HAL2     0.900000E-01   1.00800           0
      3972 MEMB     44       POPC     C212     CTL2    -0.180000       12.0110           0
      3973 MEMB     44       POPC     H12R     HAL2     0.900000E-01   1.00800           0
      3974 MEMB     44       POPC     H12S     HAL2     0.900000E-01   1.00800           0
      3975 MEMB     44       POPC     C213     CTL2    -0.180000       12.0110           0
      3976 MEMB     44       POPC     H13R     HAL2     0.900000E-01   1.00800           0
      3977 MEMB     44       POPC     H13S     HAL2     0.900000E-01   1.00800           0
      3978 MEMB     44       POPC     C214     CTL2    -0.180000       12.0110           0
      3979 MEMB     44       POPC     H14R     HAL2     0.900000E-01   1.00800           0
      3980 MEMB     44       POPC     H14S     HAL2     0.900000E-01   1.00800           0
      3981 MEMB     44       POPC     C215     CTL2    -0.180000       12.0110           0
      3982 MEMB     44       POPC     H15R     HAL2     0.900000E-01   1.00800           0
      3983 MEMB     44       POPC     H15S     HAL2     0.900000E-01   1.00800           0
      3984 MEMB     44       POPC     C216     CTL2    -0.180000       12.0110           0
      3985 MEMB     44       POPC     H16R     HAL2     0.900000E-01   1.00800           0
      3986 MEMB     44       POPC     H16S     HAL2     0.900000E-01   1.00800           0
      3987 MEMB     44       POPC     C217     CTL2    -0.180000       12.0110           0
      3988 MEMB     44       POPC     H17R     HAL2     0.900000E-01   1.00800           0
      3989 MEMB     44       POPC     H17S     HAL2     0.900000E-01   1.00800           0
      3990 MEMB     44       POPC     C218     CTL3    -0.270000       12.0110           0
      3991 MEMB     44       POPC     H18R     HAL3     0.900000E-01   1.00800           0
      3992 MEMB     44       POPC     H18S     HAL3     0.900000E-01   1.00800           0
      3993 MEMB     44       POPC     H18T     HAL3     0.900000E-01   1.00800           0
      3994 MEMB     44       POPC     C33      CTL2    -0.180000       12.0110           0
      3995 MEMB     44       POPC     H3X      HAL2     0.900000E-01   1.00800           0
      3996 MEMB     44       POPC     H3Y      HAL2     0.900000E-01   1.00800           0
      3997 MEMB     44       POPC     C34      CTL2    -0.180000       12.0110           0
      3998 MEMB     44       POPC     H4X      HAL2     0.900000E-01   1.00800           0
      3999 MEMB     44       POPC     H4Y      HAL2     0.900000E-01   1.00800           0
      4000 MEMB     44       POPC     C35      CTL2    -0.180000       12.0110           0
      4001 MEMB     44       POPC     H5X      HAL2     0.900000E-01   1.00800           0
      4002 MEMB     44       POPC     H5Y      HAL2     0.900000E-01   1.00800           0
      4003 MEMB     44       POPC     C36      CTL2    -0.180000       12.0110           0
      4004 MEMB     44       POPC     H6X      HAL2     0.900000E-01   1.00800           0
      4005 MEMB     44       POPC     H6Y      HAL2     0.900000E-01   1.00800           0
      4006 MEMB     44       POPC     C37      CTL2    -0.180000       12.0110           0
      4007 MEMB     44       POPC     H7X      HAL2     0.900000E-01   1.00800           0
      4008 MEMB     44       POPC     H7Y      HAL2     0.900000E-01   1.00800           0
      4009 MEMB     44       POPC     C38      CTL2    -0.180000       12.0110           0
      4010 MEMB     44       POPC     H8X      HAL2     0.900000E-01   1.00800           0
      4011 MEMB     44       POPC     H8Y      HAL2     0.900000E-01   1.00800           0
      4012 MEMB     44       POPC     C39      CTL2    -0.180000       12.0110           0
      4013 MEMB     44       POPC     H9X      HAL2     0.900000E-01   1.00800           0
      4014 MEMB     44       POPC     H9Y      HAL2     0.900000E-01   1.00800           0
      4015 MEMB     44       POPC     C310     CTL2    -0.180000       12.0110           0
      4016 MEMB     44       POPC     H10X     HAL2     0.900000E-01   1.00800           0
      4017 MEMB     44       POPC     H10Y     HAL2     0.900000E-01   1.00800           0
      4018 MEMB     44       POPC     C311     CTL2    -0.180000       12.0110           0
      4019 MEMB     44       POPC     H11X     HAL2     0.900000E-01   1.00800           0
      4020 MEMB     44       POPC     H11Y     HAL2     0.900000E-01   1.00800           0
      4021 MEMB     44       POPC     C312     CTL2    -0.180000       12.0110           0
      4022 MEMB     44       POPC     H12X     HAL2     0.900000E-01   1.00800           0
      4023 MEMB     44       POPC     H12Y     HAL2     0.900000E-01   1.00800           0
      4024 MEMB     44       POPC     C313     CTL2    -0.180000       12.0110           0
      4025 MEMB     44       POPC     H13X     HAL2     0.900000E-01   1.00800           0
      4026 MEMB     44       POPC     H13Y     HAL2     0.900000E-01   1.00800           0
      4027 MEMB     44       POPC     C314     CTL2    -0.180000       12.0110           0
      4028 MEMB     44       POPC     H14X     HAL2     0.900000E-01   1.00800           0
      4029 MEMB     44       POPC     H14Y     HAL2     0.900000E-01   1.00800           0
      4030 MEMB     44       POPC     C315     CTL2    -0.180000       12.0110           0
      4031 MEMB     44       POPC     H15X     HAL2     0.900000E-01   1.00800           0
      4032 MEMB     44       POPC     H15Y     HAL2     0.900000E-01   1.00800           0
      4033 MEMB     44       POPC     C316     CTL3    -0.270000       12.0110           0
      4034 MEMB     44       POPC     H16X     HAL3     0.900000E-01   1.00800           0
      4035 MEMB     44       POPC     H16Y     HAL3     0.900000E-01   1.00800           0
      4036 MEMB     44       POPC     H16Z     HAL3     0.900000E-01   1.00800           0
      4037 MEMB     45       POPC     N        NTL     -0.600000       14.0070           0
      4038 MEMB     45       POPC     C12      CTL2    -0.100000       12.0110           0
      4039 MEMB     45       POPC     H12A     HL       0.250000       1.00800           0
      4040 MEMB     45       POPC     H12B     HL       0.250000       1.00800           0
      4041 MEMB     45       POPC     C13      CTL5    -0.350000       12.0110           0
      4042 MEMB     45       POPC     H13A     HL       0.250000       1.00800           0
      4043 MEMB     45       POPC     H13B     HL       0.250000       1.00800           0
      4044 MEMB     45       POPC     H13C     HL       0.250000       1.00800           0
      4045 MEMB     45       POPC     C14      CTL5    -0.350000       12.0110           0
      4046 MEMB     45       POPC     H14A     HL       0.250000       1.00800           0
      4047 MEMB     45       POPC     H14B     HL       0.250000       1.00800           0
      4048 MEMB     45       POPC     H14C     HL       0.250000       1.00800           0
      4049 MEMB     45       POPC     C15      CTL5    -0.350000       12.0110           0
      4050 MEMB     45       POPC     H15A     HL       0.250000       1.00800           0
      4051 MEMB     45       POPC     H15B     HL       0.250000       1.00800           0
      4052 MEMB     45       POPC     H15C     HL       0.250000       1.00800           0
      4053 MEMB     45       POPC     C11      CTL2    -0.800000E-01   12.0110           0
      4054 MEMB     45       POPC     H11A     HAL2     0.900000E-01   1.00800           0
      4055 MEMB     45       POPC     H11B     HAL2     0.900000E-01   1.00800           0
      4056 MEMB     45       POPC     P        PL        1.50000       30.9740           0
      4057 MEMB     45       POPC     O13      O2L     -0.780000       15.9994           0
      4058 MEMB     45       POPC     O14      O2L     -0.780000       15.9994           0
      4059 MEMB     45       POPC     O12      OSLP    -0.570000       15.9994           0
      4060 MEMB     45       POPC     O11      OSLP    -0.570000       15.9994           0
      4061 MEMB     45       POPC     C1       CTL2    -0.800000E-01   12.0110           0
      4062 MEMB     45       POPC     HA       HAL2     0.900000E-01   1.00800           0
      4063 MEMB     45       POPC     HB       HAL2     0.900000E-01   1.00800           0
      4064 MEMB     45       POPC     C2       CTL1     0.170000       12.0110           0
      4065 MEMB     45       POPC     HS       HAL1     0.900000E-01   1.00800           0
      4066 MEMB     45       POPC     O21      OSL     -0.490000       15.9994           0
      4067 MEMB     45       POPC     C21      CL       0.900000       12.0110           0
      4068 MEMB     45       POPC     O22      OBL     -0.630000       15.9994           0
      4069 MEMB     45       POPC     C22      CTL2    -0.220000       12.0110           0
      4070 MEMB     45       POPC     H2R      HAL2     0.900000E-01   1.00800           0
      4071 MEMB     45       POPC     H2S      HAL2     0.900000E-01   1.00800           0
      4072 MEMB     45       POPC     C3       CTL2     0.800000E-01   12.0110           0
      4073 MEMB     45       POPC     HX       HAL2     0.900000E-01   1.00800           0
      4074 MEMB     45       POPC     HY       HAL2     0.900000E-01   1.00800           0
      4075 MEMB     45       POPC     O31      OSL     -0.490000       15.9994           0
      4076 MEMB     45       POPC     C31      CL       0.900000       12.0110           0
      4077 MEMB     45       POPC     O32      OBL     -0.630000       15.9994           0
      4078 MEMB     45       POPC     C32      CTL2    -0.220000       12.0110           0
      4079 MEMB     45       POPC     H2X      HAL2     0.900000E-01   1.00800           0
      4080 MEMB     45       POPC     H2Y      HAL2     0.900000E-01   1.00800           0
      4081 MEMB     45       POPC     C23      CTL2    -0.180000       12.0110           0
      4082 MEMB     45       POPC     H3R      HAL2     0.900000E-01   1.00800           0
      4083 MEMB     45       POPC     H3S      HAL2     0.900000E-01   1.00800           0
      4084 MEMB     45       POPC     C24      CTL2    -0.180000       12.0110           0
      4085 MEMB     45       POPC     H4R      HAL2     0.900000E-01   1.00800           0
      4086 MEMB     45       POPC     H4S      HAL2     0.900000E-01   1.00800           0
      4087 MEMB     45       POPC     C25      CTL2    -0.180000       12.0110           0
      4088 MEMB     45       POPC     H5R      HAL2     0.900000E-01   1.00800           0
      4089 MEMB     45       POPC     H5S      HAL2     0.900000E-01   1.00800           0
      4090 MEMB     45       POPC     C26      CTL2    -0.180000       12.0110           0
      4091 MEMB     45       POPC     H6R      HAL2     0.900000E-01   1.00800           0
      4092 MEMB     45       POPC     H6S      HAL2     0.900000E-01   1.00800           0
      4093 MEMB     45       POPC     C27      CTL2    -0.180000       12.0110           0
      4094 MEMB     45       POPC     H7R      HAL2     0.900000E-01   1.00800           0
      4095 MEMB     45       POPC     H7S      HAL2     0.900000E-01   1.00800           0
      4096 MEMB     45       POPC     C28      CTL2    -0.180000       12.0110           0
      4097 MEMB     45       POPC     H8R      HAL2     0.900000E-01   1.00800           0
      4098 MEMB     45       POPC     H8S      HAL2     0.900000E-01   1.00800           0
      4099 MEMB     45       POPC     C29      CEL1    -0.150000       12.0110           0
      4100 MEMB     45       POPC     H91      HEL1     0.150000       1.00800           0
      4101 MEMB     45       POPC     C210     CEL1    -0.150000       12.0110           0
      4102 MEMB     45       POPC     H101     HEL1     0.150000       1.00800           0
      4103 MEMB     45       POPC     C211     CTL2    -0.180000       12.0110           0
      4104 MEMB     45       POPC     H11R     HAL2     0.900000E-01   1.00800           0
      4105 MEMB     45       POPC     H11S     HAL2     0.900000E-01   1.00800           0
      4106 MEMB     45       POPC     C212     CTL2    -0.180000       12.0110           0
      4107 MEMB     45       POPC     H12R     HAL2     0.900000E-01   1.00800           0
      4108 MEMB     45       POPC     H12S     HAL2     0.900000E-01   1.00800           0
      4109 MEMB     45       POPC     C213     CTL2    -0.180000       12.0110           0
      4110 MEMB     45       POPC     H13R     HAL2     0.900000E-01   1.00800           0
      4111 MEMB     45       POPC     H13S     HAL2     0.900000E-01   1.00800           0
      4112 MEMB     45       POPC     C214     CTL2    -0.180000       12.0110           0
      4113 MEMB     45       POPC     H14R     HAL2     0.900000E-01   1.00800           0
      4114 MEMB     45       POPC     H14S     HAL2     0.900000E-01   1.00800           0
      4115 MEMB     45       POPC     C215     CTL2    -0.180000       12.0110           0
      4116 MEMB     45       POPC     H15R     HAL2     0.900000E-01   1.00800           0
      4117 MEMB     45       POPC     H15S     HAL2     0.900000E-01   1.00800           0
      4118 MEMB     45       POPC     C216     CTL2    -0.180000       12.0110           0
      4119 MEMB     45       POPC     H16R     HAL2     0.900000E-01   1.00800           0
      4120 MEMB     45       POPC     H16S     HAL2     0.900000E-01   1.00800           0
      4121 MEMB     45       POPC     C217     CTL2    -0.180000       12.0110           0
      4122 MEMB     45       POPC     H17R     HAL2     0.900000E-01   1.00800           0
      4123 MEMB     45       POPC     H17S     HAL2     0.900000E-01   1.00800           0
      4124 MEMB     45       POPC     C218     CTL3    -0.270000       12.0110           0
      4125 MEMB     45       POPC     H18R     HAL3     0.900000E-01   1.00800           0
      4126 MEMB     45       POPC     H18S     HAL3     0.900000E-01   1.00800           0
      4127 MEMB     45       POPC     H18T     HAL3     0.900000E-01   1.00800           0
      4128 MEMB     45       POPC     C33      CTL2    -0.180000       12.0110           0
      4129 MEMB     45       POPC     H3X      HAL2     0.900000E-01   1.00800           0
      4130 MEMB     45       POPC     H3Y      HAL2     0.900000E-01   1.00800           0
      4131 MEMB     45       POPC     C34      CTL2    -0.180000       12.0110           0
      4132 MEMB     45       POPC     H4X      HAL2     0.900000E-01   1.00800           0
      4133 MEMB     45       POPC     H4Y      HAL2     0.900000E-01   1.00800           0
      4134 MEMB     45       POPC     C35      CTL2    -0.180000       12.0110           0
      4135 MEMB     45       POPC     H5X      HAL2     0.900000E-01   1.00800           0
      4136 MEMB     45       POPC     H5Y      HAL2     0.900000E-01   1.00800           0
      4137 MEMB     45       POPC     C36      CTL2    -0.180000       12.0110           0
      4138 MEMB     45       POPC     H6X      HAL2     0.900000E-01   1.00800           0
      4139 MEMB     45       POPC     H6Y      HAL2     0.900000E-01   1.00800           0
      4140 MEMB     45       POPC     C37      CTL2    -0.180000       12.0110           0
      4141 MEMB     45       POPC     H7X      HAL2     0.900000E-01   1.00800           0
      4142 MEMB     45       POPC     H7Y      HAL2     0.900000E-01   1.00800           0
      4143 MEMB     45       POPC     C38      CTL2    -0.180000       12.0110           0
      4144 MEMB     45       POPC     H8X      HAL2     0.900000E-01   1.00800           0
      4145 MEMB     45       POPC     H8Y      HAL2     0.900000E-01   1.00800           0
      4146 MEMB     45       POPC     C39      CTL2    -0.180000       12.0110           0
      4147 MEMB     45       POPC     H9X      HAL2     0.900000E-01   1.00800           0
      4148 MEMB     45       POPC     H9Y      HAL2     0.900000E-01   1.00800           0
      4149 MEMB     45       POPC     C310     CTL2    -0.180000       12.0110           0
      4150 MEMB     45       POPC     H10X     HAL2     0.900000E-01   1.00800           0
      4151 MEMB     45       POPC     H10Y     HAL2     0.900000E-01   1.00800           0
      4152 MEMB     45       POPC     C311     CTL2    -0.180000       12.0110           0
      4153 MEMB     45       POPC     H11X     HAL2     0.900000E-01   1.00800           0
      4154 MEMB     45       POPC     H11Y     HAL2     0.900000E-01   1.00800           0
      4155 MEMB     45       POPC     C312     CTL2    -0.180000       12.0110           0
      4156 MEMB     45       POPC     H12X     HAL2     0.900000E-01   1.00800           0
      4157 MEMB     45       POPC     H12Y     HAL2     0.900000E-01   1.00800           0
      4158 MEMB     45       POPC     C313     CTL2    -0.180000       12.0110           0
      4159 MEMB     45       POPC     H13X     HAL2     0.900000E-01   1.00800           0
      4160 MEMB     45       POPC     H13Y     HAL2     0.900000E-01   1.00800           0
      4161 MEMB     45       POPC     C314     CTL2    -0.180000       12.0110           0
      4162 MEMB     45       POPC     H14X     HAL2     0.900000E-01   1.00800           0
      4163 MEMB     45       POPC     H14Y     HAL2     0.900000E-01   1.00800           0
      4164 MEMB     45       POPC     C315     CTL2    -0.180000       12.0110           0
      4165 MEMB     45       POPC     H15X     HAL2     0.900000E-01   1.00800           0
      4166 MEMB     45       POPC     H15Y     HAL2     0.900000E-01   1.00800           0
      4167 MEMB     45       POPC     C316     CTL3    -0.270000       12.0110           0
      4168 MEMB     45       POPC     H16X     HAL3     0.900000E-01   1.00800           0
      4169 MEMB     45       POPC     H16Y     HAL3     0.900000E-01   1.00800           0
      4170 MEMB     45       POPC     H16Z     HAL3     0.900000E-01   1.00800           0
      4171 MEMB     46       POPC     N        NTL     -0.600000       14.0070           0
      4172 MEMB     46       POPC     C12      CTL2    -0.100000       12.0110           0
      4173 MEMB     46       POPC     H12A     HL       0.250000       1.00800           0
      4174 MEMB     46       POPC     H12B     HL       0.250000       1.00800           0
      4175 MEMB     46       POPC     C13      CTL5    -0.350000       12.0110           0
      4176 MEMB     46       POPC     H13A     HL       0.250000       1.00800           0
      4177 MEMB     46       POPC     H13B     HL       0.250000       1.00800           0
      4178 MEMB     46       POPC     H13C     HL       0.250000       1.00800           0
      4179 MEMB     46       POPC     C14      CTL5    -0.350000       12.0110           0
      4180 MEMB     46       POPC     H14A     HL       0.250000       1.00800           0
      4181 MEMB     46       POPC     H14B     HL       0.250000       1.00800           0
      4182 MEMB     46       POPC     H14C     HL       0.250000       1.00800           0
      4183 MEMB     46       POPC     C15      CTL5    -0.350000       12.0110           0
      4184 MEMB     46       POPC     H15A     HL       0.250000       1.00800           0
      4185 MEMB     46       POPC     H15B     HL       0.250000       1.00800           0
      4186 MEMB     46       POPC     H15C     HL       0.250000       1.00800           0
      4187 MEMB     46       POPC     C11      CTL2    -0.800000E-01   12.0110           0
      4188 MEMB     46       POPC     H11A     HAL2     0.900000E-01   1.00800           0
      4189 MEMB     46       POPC     H11B     HAL2     0.900000E-01   1.00800           0
      4190 MEMB     46       POPC     P        PL        1.50000       30.9740           0
      4191 MEMB     46       POPC     O13      O2L     -0.780000       15.9994           0
      4192 MEMB     46       POPC     O14      O2L     -0.780000       15.9994           0
      4193 MEMB     46       POPC     O12      OSLP    -0.570000       15.9994           0
      4194 MEMB     46       POPC     O11      OSLP    -0.570000       15.9994           0
      4195 MEMB     46       POPC     C1       CTL2    -0.800000E-01   12.0110           0
      4196 MEMB     46       POPC     HA       HAL2     0.900000E-01   1.00800           0
      4197 MEMB     46       POPC     HB       HAL2     0.900000E-01   1.00800           0
      4198 MEMB     46       POPC     C2       CTL1     0.170000       12.0110           0
      4199 MEMB     46       POPC     HS       HAL1     0.900000E-01   1.00800           0
      4200 MEMB     46       POPC     O21      OSL     -0.490000       15.9994           0
      4201 MEMB     46       POPC     C21      CL       0.900000       12.0110           0
      4202 MEMB     46       POPC     O22      OBL     -0.630000       15.9994           0
      4203 MEMB     46       POPC     C22      CTL2    -0.220000       12.0110           0
      4204 MEMB     46       POPC     H2R      HAL2     0.900000E-01   1.00800           0
      4205 MEMB     46       POPC     H2S      HAL2     0.900000E-01   1.00800           0
      4206 MEMB     46       POPC     C3       CTL2     0.800000E-01   12.0110           0
      4207 MEMB     46       POPC     HX       HAL2     0.900000E-01   1.00800           0
      4208 MEMB     46       POPC     HY       HAL2     0.900000E-01   1.00800           0
      4209 MEMB     46       POPC     O31      OSL     -0.490000       15.9994           0
      4210 MEMB     46       POPC     C31      CL       0.900000       12.0110           0
      4211 MEMB     46       POPC     O32      OBL     -0.630000       15.9994           0
      4212 MEMB     46       POPC     C32      CTL2    -0.220000       12.0110           0
      4213 MEMB     46       POPC     H2X      HAL2     0.900000E-01   1.00800           0
      4214 MEMB     46       POPC     H2Y      HAL2     0.900000E-01   1.00800           0
      4215 MEMB     46       POPC     C23      CTL2    -0.180000       12.0110           0
      4216 MEMB     46       POPC     H3R      HAL2     0.900000E-01   1.00800           0
      4217 MEMB     46       POPC     H3S      HAL2     0.900000E-01   1.00800           0
      4218 MEMB     46       POPC     C24      CTL2    -0.180000       12.0110           0
      4219 MEMB     46       POPC     H4R      HAL2     0.900000E-01   1.00800           0
      4220 MEMB     46       POPC     H4S      HAL2     0.900000E-01   1.00800           0
      4221 MEMB     46       POPC     C25      CTL2    -0.180000       12.0110           0
      4222 MEMB     46       POPC     H5R      HAL2     0.900000E-01   1.00800           0
      4223 MEMB     46       POPC     H5S      HAL2     0.900000E-01   1.00800           0
      4224 MEMB     46       POPC     C26      CTL2    -0.180000       12.0110           0
      4225 MEMB     46       POPC     H6R      HAL2     0.900000E-01   1.00800           0
      4226 MEMB     46       POPC     H6S      HAL2     0.900000E-01   1.00800           0
      4227 MEMB     46       POPC     C27      CTL2    -0.180000       12.0110           0
      4228 MEMB     46       POPC     H7R      HAL2     0.900000E-01   1.00800           0
      4229 MEMB     46       POPC     H7S      HAL2     0.900000E-01   1.00800           0
      4230 MEMB     46       POPC     C28      CTL2    -0.180000       12.0110           0
      4231 MEMB     46       POPC     H8R      HAL2     0.900000E-01   1.00800           0
      4232 MEMB     46       POPC     H8S      HAL2     0.900000E-01   1.00800           0
      4233 MEMB     46       POPC     C29      CEL1    -0.150000       12.0110           0
      4234 MEMB     46       POPC     H91      HEL1     0.150000       1.00800           0
      4235 MEMB     46       POPC     C210     CEL1    -0.150000       12.0110           0
      4236 MEMB     46       POPC     H101     HEL1     0.150000       1.00800           0
      4237 MEMB     46       POPC     C211     CTL2    -0.180000       12.0110           0
      4238 MEMB     46       POPC     H11R     HAL2     0.900000E-01   1.00800           0
      4239 MEMB     46       POPC     H11S     HAL2     0.900000E-01   1.00800           0
      4240 MEMB     46       POPC     C212     CTL2    -0.180000       12.0110           0
      4241 MEMB     46       POPC     H12R     HAL2     0.900000E-01   1.00800           0
      4242 MEMB     46       POPC     H12S     HAL2     0.900000E-01   1.00800           0
      4243 MEMB     46       POPC     C213     CTL2    -0.180000       12.0110           0
      4244 MEMB     46       POPC     H13R     HAL2     0.900000E-01   1.00800           0
      4245 MEMB     46       POPC     H13S     HAL2     0.900000E-01   1.00800           0
      4246 MEMB     46       POPC     C214     CTL2    -0.180000       12.0110           0
      4247 MEMB     46       POPC     H14R     HAL2     0.900000E-01   1.00800           0
      4248 MEMB     46       POPC     H14S     HAL2     0.900000E-01   1.00800           0
      4249 MEMB     46       POPC     C215     CTL2    -0.180000       12.0110           0
      4250 MEMB     46       POPC     H15R     HAL2     0.900000E-01   1.00800           0
      4251 MEMB     46       POPC     H15S     HAL2     0.900000E-01   1.00800           0
      4252 MEMB     46       POPC     C216     CTL2    -0.180000       12.0110           0
      4253 MEMB     46       POPC     H16R     HAL2     0.900000E-01   1.00800           0
      4254 MEMB     46       POPC     H16S     HAL2     0.900000E-01   1.00800           0
      4255 MEMB     46       POPC     C217     CTL2    -0.180000       12.0110           0
      4256 MEMB     46       POPC     H17R     HAL2     0.900000E-01   1.00800           0
      4257 MEMB     46       POPC     H17S     HAL2     0.900000E-01   1.00800           0
      4258 MEMB     46       POPC     C218     CTL3    -0.270000       12.0110           0
      4259 MEMB     46       POPC     H18R     HAL3     0.900000E-01   1.00800           0
      4260 MEMB     46       POPC     H18S     HAL3     0.900000E-01   1.00800           0
      4261 MEMB     46       POPC     H18T     HAL3     0.900000E-01   1.00800           0
      4262 MEMB     46       POPC     C33      CTL2    -0.180000       12.0110           0
      4263 MEMB     46       POPC     H3X      HAL2     0.900000E-01   1.00800           0
      4264 MEMB     46       POPC     H3Y      HAL2     0.900000E-01   1.00800           0
      4265 MEMB     46       POPC     C34      CTL2    -0.180000       12.0110           0
      4266 MEMB     46       POPC     H4X      HAL2     0.900000E-01   1.00800           0
      4267 MEMB     46       POPC     H4Y      HAL2     0.900000E-01   1.00800           0
      4268 MEMB     46       POPC     C35      CTL2    -0.180000       12.0110           0
      4269 MEMB     46       POPC     H5X      HAL2     0.900000E-01   1.00800           0
      4270 MEMB     46       POPC     H5Y      HAL2     0.900000E-01   1.00800           0
      4271 MEMB     46       POPC     C36      CTL2    -0.180000       12.0110           0
      4272 MEMB     46       POPC     H6X      HAL2     0.900000E-01   1.00800           0
      4273 MEMB     46       POPC     H6Y      HAL2     0.900000E-01   1.00800           0
      4274 MEMB     46       POPC     C37      CTL2    -0.180000       12.0110           0
      4275 MEMB     46       POPC     H7X      HAL2     0.900000E-01   1.00800           0
      4276 MEMB     46       POPC     H7Y      HAL2     0.900000E-01   1.00800           0
      4277 MEMB     46       POPC     C38      CTL2    -0.180000       12.0110           0
      4278 MEMB     46       POPC     H8X      HAL2     0.900000E-01   1.00800           0
      4279 MEMB     46       POPC     H8Y      HAL2     0.900000E-01   1.00800           0
      4280 MEMB     46       POPC     C39      CTL2    -0.180000       12.0110           0
      4281 MEMB     46       POPC     H9X      HAL2     0.900000E-01   1.00800           0
      4282 MEMB     46       POPC     H9Y      HAL2     0.900000E-01   1.00800           0
      4283 MEMB     46       POPC     C310     CTL2    -0.180000       12.0110           0
      4284 MEMB     46       POPC     H10X     HAL2     0.900000E-01   1.00800           0
      4285 MEMB     46       POPC     H10Y     HAL2     0.900000E-01   1.00800           0
      4286 MEMB     46       POPC     C311     CTL2    -0.180000       12.0110           0
      4287 MEMB     46       POPC     H11X     HAL2     0.900000E-01   1.00800           0
      4288 MEMB     46       POPC     H11Y     HAL2     0.900000E-01   1.00800           0
      4289 MEMB     46       POPC     C312     CTL2    -0.180000       12.0110           0
      4290 MEMB     46       POPC     H12X     HAL2     0.900000E-01   1.00800           0
      4291 MEMB     46       POPC     H12Y     HAL2     0.900000E-01   1.00800           0
      4292 MEMB     46       POPC     C313     CTL2    -0.180000       12.0110           0
      4293 MEMB     46       POPC     H13X     HAL2     0.900000E-01   1.00800           0
      4294 MEMB     46       POPC     H13Y     HAL2     0.900000E-01   1.00800           0
      4295 MEMB     46       POPC     C314     CTL2    -0.180000       12.0110           0
      4296 MEMB     46       POPC     H14X     HAL2     0.900000E-01   1.00800           0
      4297 MEMB     46       POPC     H14Y     HAL2     0.900000E-01   1.00800           0
      4298 MEMB     46       POPC     C315     CTL2    -0.180000       12.0110           0
      4299 MEMB     46       POPC     H15X     HAL2     0.900000E-01   1.00800           0
      4300 MEMB     46       POPC     H15Y     HAL2     0.900000E-01   1.00800           0
      4301 MEMB     46       POPC     C316     CTL3    -0.270000       12.0110           0
      4302 MEMB     46       POPC     H16X     HAL3     0.900000E-01   1.00800           0
      4303 MEMB     46       POPC     H16Y     HAL3     0.900000E-01   1.00800           0
      4304 MEMB     46       POPC     H16Z     HAL3     0.900000E-01   1.00800           0
      4305 MEMB     47       POPC     N        NTL     -0.600000       14.0070           0
      4306 MEMB     47       POPC     C12      CTL2    -0.100000       12.0110           0
      4307 MEMB     47       POPC     H12A     HL       0.250000       1.00800           0
      4308 MEMB     47       POPC     H12B     HL       0.250000       1.00800           0
      4309 MEMB     47       POPC     C13      CTL5    -0.350000       12.0110           0
      4310 MEMB     47       POPC     H13A     HL       0.250000       1.00800           0
      4311 MEMB     47       POPC     H13B     HL       0.250000       1.00800           0
      4312 MEMB     47       POPC     H13C     HL       0.250000       1.00800           0
      4313 MEMB     47       POPC     C14      CTL5    -0.350000       12.0110           0
      4314 MEMB     47       POPC     H14A     HL       0.250000       1.00800           0
      4315 MEMB     47       POPC     H14B     HL       0.250000       1.00800           0
      4316 MEMB     47       POPC     H14C     HL       0.250000       1.00800           0
      4317 MEMB     47       POPC     C15      CTL5    -0.350000       12.0110           0
      4318 MEMB     47       POPC     H15A     HL       0.250000       1.00800           0
      4319 MEMB     47       POPC     H15B     HL       0.250000       1.00800           0
      4320 MEMB     47       POPC     H15C     HL       0.250000       1.00800           0
      4321 MEMB     47       POPC     C11      CTL2    -0.800000E-01   12.0110           0
      4322 MEMB     47       POPC     H11A     HAL2     0.900000E-01   1.00800           0
      4323 MEMB     47       POPC     H11B     HAL2     0.900000E-01   1.00800           0
      4324 MEMB     47       POPC     P        PL        1.50000       30.9740           0
      4325 MEMB     47       POPC     O13      O2L     -0.780000       15.9994           0
      4326 MEMB     47       POPC     O14      O2L     -0.780000       15.9994           0
      4327 MEMB     47       POPC     O12      OSLP    -0.570000       15.9994           0
      4328 MEMB     47       POPC     O11      OSLP    -0.570000       15.9994           0
      4329 MEMB     47       POPC     C1       CTL2    -0.800000E-01   12.0110           0
      4330 MEMB     47       POPC     HA       HAL2     0.900000E-01   1.00800           0
      4331 MEMB     47       POPC     HB       HAL2     0.900000E-01   1.00800           0
      4332 MEMB     47       POPC     C2       CTL1     0.170000       12.0110           0
      4333 MEMB     47       POPC     HS       HAL1     0.900000E-01   1.00800           0
      4334 MEMB     47       POPC     O21      OSL     -0.490000       15.9994           0
      4335 MEMB     47       POPC     C21      CL       0.900000       12.0110           0
      4336 MEMB     47       POPC     O22      OBL     -0.630000       15.9994           0
      4337 MEMB     47       POPC     C22      CTL2    -0.220000       12.0110           0
      4338 MEMB     47       POPC     H2R      HAL2     0.900000E-01   1.00800           0
      4339 MEMB     47       POPC     H2S      HAL2     0.900000E-01   1.00800           0
      4340 MEMB     47       POPC     C3       CTL2     0.800000E-01   12.0110           0
      4341 MEMB     47       POPC     HX       HAL2     0.900000E-01   1.00800           0
      4342 MEMB     47       POPC     HY       HAL2     0.900000E-01   1.00800           0
      4343 MEMB     47       POPC     O31      OSL     -0.490000       15.9994           0
      4344 MEMB     47       POPC     C31      CL       0.900000       12.0110           0
      4345 MEMB     47       POPC     O32      OBL     -0.630000       15.9994           0
      4346 MEMB     47       POPC     C32      CTL2    -0.220000       12.0110           0
      4347 MEMB     47       POPC     H2X      HAL2     0.900000E-01   1.00800           0
      4348 MEMB     47       POPC     H2Y      HAL2     0.900000E-01   1.00800           0
      4349 MEMB     47       POPC     C23      CTL2    -0.180000       12.0110           0
      4350 MEMB     47       POPC     H3R      HAL2     0.900000E-01   1.00800           0
      4351 MEMB     47       POPC     H3S      HAL2     0.900000E-01   1.00800           0
      4352 MEMB     47       POPC     C24      CTL2    -0.180000       12.0110           0
      4353 MEMB     47       POPC     H4R      HAL2     0.900000E-01   1.00800           0
      4354 MEMB     47       POPC     H4S      HAL2     0.900000E-01   1.00800           0
      4355 MEMB     47       POPC     C25      CTL2    -0.180000       12.0110           0
      4356 MEMB     47       POPC     H5R      HAL2     0.900000E-01   1.00800           0
      4357 MEMB     47       POPC     H5S      HAL2     0.900000E-01   1.00800           0
      4358 MEMB     47       POPC     C26      CTL2    -0.180000       12.0110           0
      4359 MEMB     47       POPC     H6R      HAL2     0.900000E-01   1.00800           0
      4360 MEMB     47       POPC     H6S      HAL2     0.900000E-01   1.00800           0
      4361 MEMB     47       POPC     C27      CTL2    -0.180000       12.0110           0
      4362 MEMB     47       POPC     H7R      HAL2     0.900000E-01   1.00800           0
      4363 MEMB     47       POPC     H7S      HAL2     0.900000E-01   1.00800           0
      4364 MEMB     47       POPC     C28      CTL2    -0.180000       12.0110           0
      4365 MEMB     47       POPC     H8R      HAL2     0.900000E-01   1.00800           0
      4366 MEMB     47       POPC     H8S      HAL2     0.900000E-01   1.00800           0
      4367 MEMB     47       POPC     C29      CEL1    -0.150000       12.0110           0
      4368 MEMB     47       POPC     H91      HEL1     0.150000       1.00800           0
      4369 MEMB     47       POPC     C210     CEL1    -0.150000       12.0110           0
      4370 MEMB     47       POPC     H101     HEL1     0.150000       1.00800           0
      4371 MEMB     47       POPC     C211     CTL2    -0.180000       12.0110           0
      4372 MEMB     47       POPC     H11R     HAL2     0.900000E-01   1.00800           0
      4373 MEMB     47       POPC     H11S     HAL2     0.900000E-01   1.00800           0
      4374 MEMB     47       POPC     C212     CTL2    -0.180000       12.0110           0
      4375 MEMB     47       POPC     H12R     HAL2     0.900000E-01   1.00800           0
      4376 MEMB     47       POPC     H12S     HAL2     0.900000E-01   1.00800           0
      4377 MEMB     47       POPC     C213     CTL2    -0.180000       12.0110           0
      4378 MEMB     47       POPC     H13R     HAL2     0.900000E-01   1.00800           0
      4379 MEMB     47       POPC     H13S     HAL2     0.900000E-01   1.00800           0
      4380 MEMB     47       POPC     C214     CTL2    -0.180000       12.0110           0
      4381 MEMB     47       POPC     H14R     HAL2     0.900000E-01   1.00800           0
      4382 MEMB     47       POPC     H14S     HAL2     0.900000E-01   1.00800           0
      4383 MEMB     47       POPC     C215     CTL2    -0.180000       12.0110           0
      4384 MEMB     47       POPC     H15R     HAL2     0.900000E-01   1.00800           0
      4385 MEMB     47       POPC     H15S     HAL2     0.900000E-01   1.00800           0
      4386 MEMB     47       POPC     C216     CTL2    -0.180000       12.0110           0
      4387 MEMB     47       POPC     H16R     HAL2     0.900000E-01   1.00800           0
      4388 MEMB     47       POPC     H16S     HAL2     0.900000E-01   1.00800           0
      4389 MEMB     47       POPC     C217     CTL2    -0.180000       12.0110           0
      4390 MEMB     47       POPC     H17R     HAL2     0.900000E-01   1.00800           0
      4391 MEMB     47       POPC     H17S     HAL2     0.900000E-01   1.00800           0
      4392 MEMB     47       POPC     C218     CTL3    -0.270000       12.0110           0
      4393 MEMB     47       POPC     H18R     HAL3     0.900000E-01   1.00800           0
      4394 MEMB     47       POPC     H18S     HAL3     0.900000E-01   1.00800           0
      4395 MEMB     47       POPC     H18T     HAL3     0.900000E-01   1.00800           0
      4396 MEMB     47       POPC     C33      CTL2    -0.180000       12.0110           0
      4397 MEMB     47       POPC     H3X      HAL2     0.900000E-01   1.00800           0
      4398 MEMB     47       POPC     H3Y      HAL2     0.900000E-01   1.00800           0
      4399 MEMB     47       POPC     C34      CTL2    -0.180000       12.0110           0
      4400 MEMB     47       POPC     H4X      HAL2     0.900000E-01   1.00800           0
      4401 MEMB     47       POPC     H4Y      HAL2     0.900000E-01   1.00800           0
      4402 MEMB     47       POPC     C35      CTL2    -0.180000       12.0110           0
      4403 MEMB     47       POPC     H5X      HAL2     0.900000E-01   1.00800           0
      4404 MEMB     47       POPC     H5Y      HAL2     0.900000E-01   1.00800           0
      4405 MEMB     47       POPC     C36      CTL2    -0.180000       12.0110           0
      4406 MEMB     47       POPC     H6X      HAL2     0.900000E-01   1.00800           0
      4407 MEMB     47       POPC     H6Y      HAL2     0.900000E-01   1.00800           0
      4408 MEMB     47       POPC     C37      CTL2    -0.180000       12.0110           0
      4409 MEMB     47       POPC     H7X      HAL2     0.900000E-01   1.00800           0
      4410 MEMB     47       POPC     H7Y      HAL2     0.900000E-01   1.00800           0
      4411 MEMB     47       POPC     C38      CTL2    -0.180000       12.0110           0
      4412 MEMB     47       POPC     H8X      HAL2     0.900000E-01   1.00800           0
      4413 MEMB     47       POPC     H8Y      HAL2     0.900000E-01   1.00800           0
      4414 MEMB     47       POPC     C39      CTL2    -0.180000       12.0110           0
      4415 MEMB     47       POPC     H9X      HAL2     0.900000E-01   1.00800           0
      4416 MEMB     47       POPC     H9Y      HAL2     0.900000E-01   1.00800           0
      4417 MEMB     47       POPC     C310     CTL2    -0.180000       12.0110           0
      4418 MEMB     47       POPC     H10X     HAL2     0.900000E-01   1.00800           0
      4419 MEMB     47       POPC     H10Y     HAL2     0.900000E-01   1.00800           0
      4420 MEMB     47       POPC     C311     CTL2    -0.180000       12.0110           0
      4421 MEMB     47       POPC     H11X     HAL2     0.900000E-01   1.00800           0
      4422 MEMB     47       POPC     H11Y     HAL2     0.900000E-01   1.00800           0
      4423 MEMB     47       POPC     C312     CTL2    -0.180000       12.0110           0
      4424 MEMB     47       POPC     H12X     HAL2     0.900000E-01   1.00800           0
      4425 MEMB     47       POPC     H12Y     HAL2     0.900000E-01   1.00800           0
      4426 MEMB     47       POPC     C313     CTL2    -0.180000       12.0110           0
      4427 MEMB     47       POPC     H13X     HAL2     0.900000E-01   1.00800           0
      4428 MEMB     47       POPC     H13Y     HAL2     0.900000E-01   1.00800           0
      4429 MEMB     47       POPC     C314     CTL2    -0.180000       12.0110           0
      4430 MEMB     47       POPC     H14X     HAL2     0.900000E-01   1.00800           0
      4431 MEMB     47       POPC     H14Y     HAL2     0.900000E-01   1.00800           0
      4432 MEMB     47       POPC     C315     CTL2    -0.180000       12.0110           0
      4433 MEMB     47       POPC     H15X     HAL2     0.900000E-01   1.00800           0
      4434 MEMB     47       POPC     H15Y     HAL2     0.900000E-01   1.00800           0
      4435 MEMB     47       POPC     C316     CTL3    -0.270000       12.0110           0
      4436 MEMB     47       POPC     H16X     HAL3     0.900000E-01   1.00800           0
      4437 MEMB     47       POPC     H16Y     HAL3     0.900000E-01   1.00800           0
      4438 MEMB     47       POPC     H16Z     HAL3     0.900000E-01   1.00800           0
      4439 MEMB     48       POPC     N        NTL     -0.600000       14.0070           0
      4440 MEMB     48       POPC     C12      CTL2    -0.100000       12.0110           0
      4441 MEMB     48       POPC     H12A     HL       0.250000       1.00800           0
      4442 MEMB     48       POPC     H12B     HL       0.250000       1.00800           0
      4443 MEMB     48       POPC     C13      CTL5    -0.350000       12.0110           0
      4444 MEMB     48       POPC     H13A     HL       0.250000       1.00800           0
      4445 MEMB     48       POPC     H13B     HL       0.250000       1.00800           0
      4446 MEMB     48       POPC     H13C     HL       0.250000       1.00800           0
      4447 MEMB     48       POPC     C14      CTL5    -0.350000       12.0110           0
      4448 MEMB     48       POPC     H14A     HL       0.250000       1.00800           0
      4449 MEMB     48       POPC     H14B     HL       0.250000       1.00800           0
      4450 MEMB     48       POPC     H14C     HL       0.250000       1.00800           0
      4451 MEMB     48       POPC     C15      CTL5    -0.350000       12.0110           0
      4452 MEMB     48       POPC     H15A     HL       0.250000       1.00800           0
      4453 MEMB     48       POPC     H15B     HL       0.250000       1.00800           0
      4454 MEMB     48       POPC     H15C     HL       0.250000       1.00800           0
      4455 MEMB     48       POPC     C11      CTL2    -0.800000E-01   12.0110           0
      4456 MEMB     48       POPC     H11A     HAL2     0.900000E-01   1.00800           0
      4457 MEMB     48       POPC     H11B     HAL2     0.900000E-01   1.00800           0
      4458 MEMB     48       POPC     P        PL        1.50000       30.9740           0
      4459 MEMB     48       POPC     O13      O2L     -0.780000       15.9994           0
      4460 MEMB     48       POPC     O14      O2L     -0.780000       15.9994           0
      4461 MEMB     48       POPC     O12      OSLP    -0.570000       15.9994           0
      4462 MEMB     48       POPC     O11      OSLP    -0.570000       15.9994           0
      4463 MEMB     48       POPC     C1       CTL2    -0.800000E-01   12.0110           0
      4464 MEMB     48       POPC     HA       HAL2     0.900000E-01   1.00800           0
      4465 MEMB     48       POPC     HB       HAL2     0.900000E-01   1.00800           0
      4466 MEMB     48       POPC     C2       CTL1     0.170000       12.0110           0
      4467 MEMB     48       POPC     HS       HAL1     0.900000E-01   1.00800           0
      4468 MEMB     48       POPC     O21      OSL     -0.490000       15.9994           0
      4469 MEMB     48       POPC     C21      CL       0.900000       12.0110           0
      4470 MEMB     48       POPC     O22      OBL     -0.630000       15.9994           0
      4471 MEMB     48       POPC     C22      CTL2    -0.220000       12.0110           0
      4472 MEMB     48       POPC     H2R      HAL2     0.900000E-01   1.00800           0
      4473 MEMB     48       POPC     H2S      HAL2     0.900000E-01   1.00800           0
      4474 MEMB     48       POPC     C3       CTL2     0.800000E-01   12.0110           0
      4475 MEMB     48       POPC     HX       HAL2     0.900000E-01   1.00800           0
      4476 MEMB     48       POPC     HY       HAL2     0.900000E-01   1.00800           0
      4477 MEMB     48       POPC     O31      OSL     -0.490000       15.9994           0
      4478 MEMB     48       POPC     C31      CL       0.900000       12.0110           0
      4479 MEMB     48       POPC     O32      OBL     -0.630000       15.9994           0
      4480 MEMB     48       POPC     C32      CTL2    -0.220000       12.0110           0
      4481 MEMB     48       POPC     H2X      HAL2     0.900000E-01   1.00800           0
      4482 MEMB     48       POPC     H2Y      HAL2     0.900000E-01   1.00800           0
      4483 MEMB     48       POPC     C23      CTL2    -0.180000       12.0110           0
      4484 MEMB     48       POPC     H3R      HAL2     0.900000E-01   1.00800           0
      4485 MEMB     48       POPC     H3S      HAL2     0.900000E-01   1.00800           0
      4486 MEMB     48       POPC     C24      CTL2    -0.180000       12.0110           0
      4487 MEMB     48       POPC     H4R      HAL2     0.900000E-01   1.00800           0
      4488 MEMB     48       POPC     H4S      HAL2     0.900000E-01   1.00800           0
      4489 MEMB     48       POPC     C25      CTL2    -0.180000       12.0110           0
      4490 MEMB     48       POPC     H5R      HAL2     0.900000E-01   1.00800           0
      4491 MEMB     48       POPC     H5S      HAL2     0.900000E-01   1.00800           0
      4492 MEMB     48       POPC     C26      CTL2    -0.180000       12.0110           0
      4493 MEMB     48       POPC     H6R      HAL2     0.900000E-01   1.00800           0
      4494 MEMB     48       POPC     H6S      HAL2     0.900000E-01   1.00800           0
      4495 MEMB     48       POPC     C27      CTL2    -0.180000       12.0110           0
      4496 MEMB     48       POPC     H7R      HAL2     0.900000E-01   1.00800           0
      4497 MEMB     48       POPC     H7S      HAL2     0.900000E-01   1.00800           0
      4498 MEMB     48       POPC     C28      CTL2    -0.180000       12.0110           0
      4499 MEMB     48       POPC     H8R      HAL2     0.900000E-01   1.00800           0
      4500 MEMB     48       POPC     H8S      HAL2     0.900000E-01   1.00800           0
      4501 MEMB     48       POPC     C29      CEL1    -0.150000       12.0110           0
      4502 MEMB     48       POPC     H91      HEL1     0.150000       1.00800           0
      4503 MEMB     48       POPC     C210     CEL1    -0.150000       12.0110           0
      4504 MEMB     48       POPC     H101     HEL1     0.150000       1.00800           0
      4505 MEMB     48       POPC     C211     CTL2    -0.180000       12.0110           0
      4506 MEMB     48       POPC     H11R     HAL2     0.900000E-01   1.00800           0
      4507 MEMB     48       POPC     H11S     HAL2     0.900000E-01   1.00800           0
      4508 MEMB     48       POPC     C212     CTL2    -0.180000       12.0110           0
      4509 MEMB     48       POPC     H12R     HAL2     0.900000E-01   1.00800           0
      4510 MEMB     48       POPC     H12S     HAL2     0.900000E-01   1.00800           0
      4511 MEMB     48       POPC     C213     CTL2    -0.180000       12.0110           0
      4512 MEMB     48       POPC     H13R     HAL2     0.900000E-01   1.00800           0
      4513 MEMB     48       POPC     H13S     HAL2     0.900000E-01   1.00800           0
      4514 MEMB     48       POPC     C214     CTL2    -0.180000       12.0110           0
      4515 MEMB     48       POPC     H14R     HAL2     0.900000E-01   1.00800           0
      4516 MEMB     48       POPC     H14S     HAL2     0.900000E-01   1.00800           0
      4517 MEMB     48       POPC     C215     CTL2    -0.180000       12.0110           0
      4518 MEMB     48       POPC     H15R     HAL2     0.900000E-01   1.00800           0
      4519 MEMB     48       POPC     H15S     HAL2     0.900000E-01   1.00800           0
      4520 MEMB     48       POPC     C216     CTL2    -0.180000       12.0110           0
      4521 MEMB     48       POPC     H16R     HAL2     0.900000E-01   1.00800           0
      4522 MEMB     48       POPC     H16S     HAL2     0.900000E-01   1.00800           0
      4523 MEMB     48       POPC     C217     CTL2    -0.180000       12.0110           0
      4524 MEMB     48       POPC     H17R     HAL2     0.900000E-01   1.00800           0
      4525 MEMB     48       POPC     H17S     HAL2     0.900000E-01   1.00800           0
      4526 MEMB     48       POPC     C218     CTL3    -0.270000       12.0110           0
      4527 MEMB     48       POPC     H18R     HAL3     0.900000E-01   1.00800           0
      4528 MEMB     48       POPC     H18S     HAL3     0.900000E-01   1.00800           0
      4529 MEMB     48       POPC     H18T     HAL3     0.900000E-01   1.00800           0
      4530 MEMB     48       POPC     C33      CTL2    -0.180000       12.0110           0
      4531 MEMB     48       POPC     H3X      HAL2     0.900000E-01   1.00800           0
      4532 MEMB     48       POPC     H3Y      HAL2     0.900000E-01   1.00800           0
      4533 MEMB     48       POPC     C34      CTL2    -0.180000       12.0110           0
      4534 MEMB     48       POPC     H4X      HAL2     0.900000E-01   1.00800           0
      4535 MEMB     48       POPC     H4Y      HAL2     0.900000E-01   1.00800           0
      4536 MEMB     48       POPC     C35      CTL2    -0.180000       12.0110           0
      4537 MEMB     48       POPC     H5X      HAL2     0.900000E-01   1.00800           0
      4538 MEMB     48       POPC     H5Y      HAL2     0.900000E-01   1.00800           0
      4539 MEMB     48       POPC     C36      CTL2    -0.180000       12.0110           0
      4540 MEMB     48       POPC     H6X      HAL2     0.900000E-01   1.00800           0
      4541 MEMB     48       POPC     H6Y      HAL2     0.900000E-01   1.00800           0
      4542 MEMB     48       POPC     C37      CTL2    -0.180000       12.0110           0
      4543 MEMB     48       POPC     H7X      HAL2     0.900000E-01   1.00800           0
      4544 MEMB     48       POPC     H7Y      HAL2     0.900000E-01   1.00800           0
      4545 MEMB     48       POPC     C38      CTL2    -0.180000       12.0110           0
      4546 MEMB     48       POPC     H8X      HAL2     0.900000E-01   1.00800           0
      4547 MEMB     48       POPC     H8Y      HAL2     0.900000E-01   1.00800           0
      4548 MEMB     48       POPC     C39      CTL2    -0.180000       12.0110           0
      4549 MEMB     48       POPC     H9X      HAL2     0.900000E-01   1.00800           0
      4550 MEMB     48       POPC     H9Y      HAL2     0.900000E-01   1.00800           0
      4551 MEMB     48       POPC     C310     CTL2    -0.180000       12.0110           0
      4552 MEMB     48       POPC     H10X     HAL2     0.900000E-01   1.00800           0
      4553 MEMB     48       POPC     H10Y     HAL2     0.900000E-01   1.00800           0
      4554 MEMB     48       POPC     C311     CTL2    -0.180000       12.0110           0
      4555 MEMB     48       POPC     H11X     HAL2     0.900000E-01   1.00800           0
      4556 MEMB     48       POPC     H11Y     HAL2     0.900000E-01   1.00800           0
      4557 MEMB     48       POPC     C312     CTL2    -0.180000       12.0110           0
      4558 MEMB     48       POPC     H12X     HAL2     0.900000E-01   1.00800           0
      4559 MEMB     48       POPC     H12Y     HAL2     0.900000E-01   1.00800           0
      4560 MEMB     48       POPC     C313     CTL2    -0.180000       12.0110           0
      4561 MEMB     48       POPC     H13X     HAL2     0.900000E-01   1.00800           0
      4562 MEMB     48       POPC     H13Y     HAL2     0.900000E-01   1.00800           0
      4563 MEMB     48       POPC     C314     CTL2    -0.180000       12.0110           0
      4564 MEMB     48       POPC     H14X     HAL2     0.900000E-01   1.00800           0
      4565 MEMB     48       POPC     H14Y     HAL2     0.900000E-01   1.00800           0
      4566 MEMB     48       POPC     C315     CTL2    -0.180000       12.0110           0
      4567 MEMB     48       POPC     H15X     HAL2     0.900000E-01   1.00800           0
      4568 MEMB     48       POPC     H15Y     HAL2     0.900000E-01   1.00800           0
      4569 MEMB     48       POPC     C316     CTL3    -0.270000       12.0110           0
      4570 MEMB     48       POPC     H16X     HAL3     0.900000E-01   1.00800           0
      4571 MEMB     48       POPC     H16Y     HAL3     0.900000E-01   1.00800           0
      4572 MEMB     48       POPC     H16Z     HAL3     0.900000E-01   1.00800           0
      4573 MEMB     49       POPC     N        NTL     -0.600000       14.0070           0
      4574 MEMB     49       POPC     C12      CTL2    -0.100000       12.0110           0
      4575 MEMB     49       POPC     H12A     HL       0.250000       1.00800           0
      4576 MEMB     49       POPC     H12B     HL       0.250000       1.00800           0
      4577 MEMB     49       POPC     C13      CTL5    -0.350000       12.0110           0
      4578 MEMB     49       POPC     H13A     HL       0.250000       1.00800           0
      4579 MEMB     49       POPC     H13B     HL       0.250000       1.00800           0
      4580 MEMB     49       POPC     H13C     HL       0.250000       1.00800           0
      4581 MEMB     49       POPC     C14      CTL5    -0.350000       12.0110           0
      4582 MEMB     49       POPC     H14A     HL       0.250000       1.00800           0
      4583 MEMB     49       POPC     H14B     HL       0.250000       1.00800           0
      4584 MEMB     49       POPC     H14C     HL       0.250000       1.00800           0
      4585 MEMB     49       POPC     C15      CTL5    -0.350000       12.0110           0
      4586 MEMB     49       POPC     H15A     HL       0.250000       1.00800           0
      4587 MEMB     49       POPC     H15B     HL       0.250000       1.00800           0
      4588 MEMB     49       POPC     H15C     HL       0.250000       1.00800           0
      4589 MEMB     49       POPC     C11      CTL2    -0.800000E-01   12.0110           0
      4590 MEMB     49       POPC     H11A     HAL2     0.900000E-01   1.00800           0
      4591 MEMB     49       POPC     H11B     HAL2     0.900000E-01   1.00800           0
      4592 MEMB     49       POPC     P        PL        1.50000       30.9740           0
      4593 MEMB     49       POPC     O13      O2L     -0.780000       15.9994           0
      4594 MEMB     49       POPC     O14      O2L     -0.780000       15.9994           0
      4595 MEMB     49       POPC     O12      OSLP    -0.570000       15.9994           0
      4596 MEMB     49       POPC     O11      OSLP    -0.570000       15.9994           0
      4597 MEMB     49       POPC     C1       CTL2    -0.800000E-01   12.0110           0
      4598 MEMB     49       POPC     HA       HAL2     0.900000E-01   1.00800           0
      4599 MEMB     49       POPC     HB       HAL2     0.900000E-01   1.00800           0
      4600 MEMB     49       POPC     C2       CTL1     0.170000       12.0110           0
      4601 MEMB     49       POPC     HS       HAL1     0.900000E-01   1.00800           0
      4602 MEMB     49       POPC     O21      OSL     -0.490000       15.9994           0
      4603 MEMB     49       POPC     C21      CL       0.900000       12.0110           0
      4604 MEMB     49       POPC     O22      OBL     -0.630000       15.9994           0
      4605 MEMB     49       POPC     C22      CTL2    -0.220000       12.0110           0
      4606 MEMB     49       POPC     H2R      HAL2     0.900000E-01   1.00800           0
      4607 MEMB     49       POPC     H2S      HAL2     0.900000E-01   1.00800           0
      4608 MEMB     49       POPC     C3       CTL2     0.800000E-01   12.0110           0
      4609 MEMB     49       POPC     HX       HAL2     0.900000E-01   1.00800           0
      4610 MEMB     49       POPC     HY       HAL2     0.900000E-01   1.00800           0
      4611 MEMB     49       POPC     O31      OSL     -0.490000       15.9994           0
      4612 MEMB     49       POPC     C31      CL       0.900000       12.0110           0
      4613 MEMB     49       POPC     O32      OBL     -0.630000       15.9994           0
      4614 MEMB     49       POPC     C32      CTL2    -0.220000       12.0110           0
      4615 MEMB     49       POPC     H2X      HAL2     0.900000E-01   1.00800           0
      4616 MEMB     49       POPC     H2Y      HAL2     0.900000E-01   1.00800           0
      4617 MEMB     49       POPC     C23      CTL2    -0.180000       12.0110           0
      4618 MEMB     49       POPC     H3R      HAL2     0.900000E-01   1.00800           0
      4619 MEMB     49       POPC     H3S      HAL2     0.900000E-01   1.00800           0
      4620 MEMB     49       POPC     C24      CTL2    -0.180000       12.0110           0
      4621 MEMB     49       POPC     H4R      HAL2     0.900000E-01   1.00800           0
      4622 MEMB     49       POPC     H4S      HAL2     0.900000E-01   1.00800           0
      4623 MEMB     49       POPC     C25      CTL2    -0.180000       12.0110           0
      4624 MEMB     49       POPC     H5R      HAL2     0.900000E-01   1.00800           0
      4625 MEMB     49       POPC     H5S      HAL2     0.900000E-01   1.00800           0
      4626 MEMB     49       POPC     C26      CTL2    -0.180000       12.0110           0
      4627 MEMB     49       POPC     H6R      HAL2     0.900000E-01   1.00800           0
      4628 MEMB     49       POPC     H6S      HAL2     0.900000E-01   1.00800           0
      4629 MEMB     49       POPC     C27      CTL2    -0.180000       12.0110           0
      4630 MEMB     49       POPC     H7R      HAL2     0.900000E-01   1.00800           0
      4631 MEMB     49       POPC     H7S      HAL2     0.900000E-01   1.00800           0
      4632 MEMB     49       POPC     C28      CTL2    -0.180000       12.0110           0
      4633 MEMB     49       POPC     H8R      HAL2     0.900000E-01   1.00800           0
      4634 MEMB     49       POPC     H8S      HAL2     0.900000E-01   1.00800           0
      4635 MEMB     49       POPC     C29      CEL1    -0.150000       12.0110           0
      4636 MEMB     49       POPC     H91      HEL1     0.150000       1.00800           0
      4637 MEMB     49       POPC     C210     CEL1    -0.150000       12.0110           0
      4638 MEMB     49       POPC     H101     HEL1     0.150000       1.00800           0
      4639 MEMB     49       POPC     C211     CTL2    -0.180000       12.0110           0
      4640 MEMB     49       POPC     H11R     HAL2     0.900000E-01   1.00800           0
      4641 MEMB     49       POPC     H11S     HAL2     0.900000E-01   1.00800           0
      4642 MEMB     49       POPC     C212     CTL2    -0.180000       12.0110           0
      4643 MEMB     49       POPC     H12R     HAL2     0.900000E-01   1.00800           0
      4644 MEMB     49       POPC     H12S     HAL2     0.900000E-01   1.00800           0
      4645 MEMB     49       POPC     C213     CTL2    -0.180000       12.0110           0
      4646 MEMB     49       POPC     H13R     HAL2     0.900000E-01   1.00800           0
      4647 MEMB     49       POPC     H13S     HAL2     0.900000E-01   1.00800           0
      4648 MEMB     49       POPC     C214     CTL2    -0.180000       12.0110           0
      4649 MEMB     49       POPC     H14R     HAL2     0.900000E-01   1.00800           0
      4650 MEMB     49       POPC     H14S     HAL2     0.900000E-01   1.00800           0
      4651 MEMB     49       POPC     C215     CTL2    -0.180000       12.0110           0
      4652 MEMB     49       POPC     H15R     HAL2     0.900000E-01   1.00800           0
      4653 MEMB     49       POPC     H15S     HAL2     0.900000E-01   1.00800           0
      4654 MEMB     49       POPC     C216     CTL2    -0.180000       12.0110           0
      4655 MEMB     49       POPC     H16R     HAL2     0.900000E-01   1.00800           0
      4656 MEMB     49       POPC     H16S     HAL2     0.900000E-01   1.00800           0
      4657 MEMB     49       POPC     C217     CTL2    -0.180000       12.0110           0
      4658 MEMB     49       POPC     H17R     HAL2     0.900000E-01   1.00800           0
      4659 MEMB     49       POPC     H17S     HAL2     0.900000E-01   1.00800           0
      4660 MEMB     49       POPC     C218     CTL3    -0.270000       12.0110           0
      4661 MEMB     49       POPC     H18R     HAL3     0.900000E-01   1.00800           0
      4662 MEMB     49       POPC     H18S     HAL3     0.900000E-01   1.00800           0
      4663 MEMB     49       POPC     H18T     HAL3     0.900000E-01   1.00800           0
      4664 MEMB     49       POPC     C33      CTL2    -0.180000       12.0110           0
      4665 MEMB     49       POPC     H3X      HAL2     0.900000E-01   1.00800           0
      4666 MEMB     49       POPC     H3Y      HAL2     0.900000E-01   1.00800           0
      4667 MEMB     49       POPC     C34      CTL2    -0.180000       12.0110           0
      4668 MEMB     49       POPC     H4X      HAL2     0.900000E-01   1.00800           0
      4669 MEMB     49       POPC     H4Y      HAL2     0.900000E-01   1.00800           0
      4670 MEMB     49       POPC     C35      CTL2    -0.180000       12.0110           0
      4671 MEMB     49       POPC     H5X      HAL2     0.900000E-01   1.00800           0
      4672 MEMB     49       POPC     H5Y      HAL2     0.900000E-01   1.00800           0
      4673 MEMB     49       POPC     C36      CTL2    -0.180000       12.0110           0
      4674 MEMB     49       POPC     H6X      HAL2     0.900000E-01   1.00800           0
      4675 MEMB     49       POPC     H6Y      HAL2     0.900000E-01   1.00800           0
      4676 MEMB     49       POPC     C37      CTL2    -0.180000       12.0110           0
      4677 MEMB     49       POPC     H7X      HAL2     0.900000E-01   1.00800           0
      4678 MEMB     49       POPC     H7Y      HAL2     0.900000E-01   1.00800           0
      4679 MEMB     49       POPC     C38      CTL2    -0.180000       12.0110           0
      4680 MEMB     49       POPC     H8X      HAL2     0.900000E-01   1.00800           0
      4681 MEMB     49       POPC     H8Y      HAL2     0.900000E-01   1.00800           0
      4682 MEMB     49       POPC     C39      CTL2    -0.180000       12.0110           0
      4683 MEMB     49       POPC     H9X      HAL2     0.900000E-01   1.00800           0
      4684 MEMB     49       POPC     H9Y      HAL2     0.900000E-01   1.00800           0
      4685 MEMB     49       POPC     C310     CTL2    -0.180000       12.0110           0
      4686 MEMB     49       POPC     H10X     HAL2     0.900000E-01   1.00800           0
      4687 MEMB     49       POPC     H10Y     HAL2     0.900000E-01   1.00800           0
      4688 MEMB     49       POPC     C311     CTL2    -0.180000       12.0110           0
      4689 MEMB     49       POPC     H11X     HAL2     0.900000E-01   1.00800           0
      4690 MEMB     49       POPC     H11Y     HAL2     0.900000E-01   1.00800           0
      4691 MEMB     49       POPC     C312     CTL2    -0.180000       12.0110           0
      4692 MEMB     49       POPC     H12X     HAL2     0.900000E-01   1.00800           0
      4693 MEMB     49       POPC     H12Y     HAL2     0.900000E-01   1.00800           0
      4694 MEMB     49       POPC     C313     CTL2    -0.180000       12.0110           0
      4695 MEMB     49       POPC     H13X     HAL2     0.900000E-01   1.00800           0
      4696 MEMB     49       POPC     H13Y     HAL2     0.900000E-01   1.00800           0
      4697 MEMB     49       POPC     C314     CTL2    -0.180000       12.0110           0
      4698 MEMB     49       POPC     H14X     HAL2     0.900000E-01   1.00800           0
      4699 MEMB     49       POPC     H14Y     HAL2     0.900000E-01   1.00800           0
      4700 MEMB     49       POPC     C315     CTL2    -0.180000       12.0110           0
      4701 MEMB     49       POPC     H15X     HAL2     0.900000E-01   1.00800           0
      4702 MEMB     49       POPC     H15Y     HAL2     0.900000E-01   1.00800           0
      4703 MEMB     49       POPC     C316     CTL3    -0.270000       12.0110           0
      4704 MEMB     49       POPC     H16X     HAL3     0.900000E-01   1.00800           0
      4705 MEMB     49       POPC     H16Y     HAL3     0.900000E-01   1.00800           0
      4706 MEMB     49       POPC     H16Z     HAL3     0.900000E-01   1.00800           0
      4707 MEMB     50       POPC     N        NTL     -0.600000       14.0070           0
      4708 MEMB     50       POPC     C12      CTL2    -0.100000       12.0110           0
      4709 MEMB     50       POPC     H12A     HL       0.250000       1.00800           0
      4710 MEMB     50       POPC     H12B     HL       0.250000       1.00800           0
      4711 MEMB     50       POPC     C13      CTL5    -0.350000       12.0110           0
      4712 MEMB     50       POPC     H13A     HL       0.250000       1.00800           0
      4713 MEMB     50       POPC     H13B     HL       0.250000       1.00800           0
      4714 MEMB     50       POPC     H13C     HL       0.250000       1.00800           0
      4715 MEMB     50       POPC     C14      CTL5    -0.350000       12.0110           0
      4716 MEMB     50       POPC     H14A     HL       0.250000       1.00800           0
      4717 MEMB     50       POPC     H14B     HL       0.250000       1.00800           0
      4718 MEMB     50       POPC     H14C     HL       0.250000       1.00800           0
      4719 MEMB     50       POPC     C15      CTL5    -0.350000       12.0110           0
      4720 MEMB     50       POPC     H15A     HL       0.250000       1.00800           0
      4721 MEMB     50       POPC     H15B     HL       0.250000       1.00800           0
      4722 MEMB     50       POPC     H15C     HL       0.250000       1.00800           0
      4723 MEMB     50       POPC     C11      CTL2    -0.800000E-01   12.0110           0
      4724 MEMB     50       POPC     H11A     HAL2     0.900000E-01   1.00800           0
      4725 MEMB     50       POPC     H11B     HAL2     0.900000E-01   1.00800           0
      4726 MEMB     50       POPC     P        PL        1.50000       30.9740           0
      4727 MEMB     50       POPC     O13      O2L     -0.780000       15.9994           0
      4728 MEMB     50       POPC     O14      O2L     -0.780000       15.9994           0
      4729 MEMB     50       POPC     O12      OSLP    -0.570000       15.9994           0
      4730 MEMB     50       POPC     O11      OSLP    -0.570000       15.9994           0
      4731 MEMB     50       POPC     C1       CTL2    -0.800000E-01   12.0110           0
      4732 MEMB     50       POPC     HA       HAL2     0.900000E-01   1.00800           0
      4733 MEMB     50       POPC     HB       HAL2     0.900000E-01   1.00800           0
      4734 MEMB     50       POPC     C2       CTL1     0.170000       12.0110           0
      4735 MEMB     50       POPC     HS       HAL1     0.900000E-01   1.00800           0
      4736 MEMB     50       POPC     O21      OSL     -0.490000       15.9994           0
      4737 MEMB     50       POPC     C21      CL       0.900000       12.0110           0
      4738 MEMB     50       POPC     O22      OBL     -0.630000       15.9994           0
      4739 MEMB     50       POPC     C22      CTL2    -0.220000       12.0110           0
      4740 MEMB     50       POPC     H2R      HAL2     0.900000E-01   1.00800           0
      4741 MEMB     50       POPC     H2S      HAL2     0.900000E-01   1.00800           0
      4742 MEMB     50       POPC     C3       CTL2     0.800000E-01   12.0110           0
      4743 MEMB     50       POPC     HX       HAL2     0.900000E-01   1.00800           0
      4744 MEMB     50       POPC     HY       HAL2     0.900000E-01   1.00800           0
      4745 MEMB     50       POPC     O31      OSL     -0.490000       15.9994           0
      4746 MEMB     50       POPC     C31      CL       0.900000       12.0110           0
      4747 MEMB     50       POPC     O32      OBL     -0.630000       15.9994           0
      4748 MEMB     50       POPC     C32      CTL2    -0.220000       12.0110           0
      4749 MEMB     50       POPC     H2X      HAL2     0.900000E-01   1.00800           0
      4750 MEMB     50       POPC     H2Y      HAL2     0.900000E-01   1.00800           0
      4751 MEMB     50       POPC     C23      CTL2    -0.180000       12.0110           0
      4752 MEMB     50       POPC     H3R      HAL2     0.900000E-01   1.00800           0
      4753 MEMB     50       POPC     H3S      HAL2     0.900000E-01   1.00800           0
      4754 MEMB     50       POPC     C24      CTL2    -0.180000       12.0110           0
      4755 MEMB     50       POPC     H4R      HAL2     0.900000E-01   1.00800           0
      4756 MEMB     50       POPC     H4S      HAL2     0.900000E-01   1.00800           0
      4757 MEMB     50       POPC     C25      CTL2    -0.180000       12.0110           0
      4758 MEMB     50       POPC     H5R      HAL2     0.900000E-01   1.00800           0
      4759 MEMB     50       POPC     H5S      HAL2     0.900000E-01   1.00800           0
      4760 MEMB     50       POPC     C26      CTL2    -0.180000       12.0110           0
      4761 MEMB     50       POPC     H6R      HAL2     0.900000E-01   1.00800           0
      4762 MEMB     50       POPC     H6S      HAL2     0.900000E-01   1.00800           0
      4763 MEMB     50       POPC     C27      CTL2    -0.180000       12.0110           0
      4764 MEMB     50       POPC     H7R      HAL2     0.900000E-01   1.00800           0
      4765 MEMB     50       POPC     H7S      HAL2     0.900000E-01   1.00800           0
      4766 MEMB     50       POPC     C28      CTL2    -0.180000       12.0110           0
      4767 MEMB     50       POPC     H8R      HAL2     0.900000E-01   1.00800           0
      4768 MEMB     50       POPC     H8S      HAL2     0.900000E-01   1.00800           0
      4769 MEMB     50       POPC     C29      CEL1    -0.150000       12.0110           0
      4770 MEMB     50       POPC     H91      HEL1     0.150000       1.00800           0
      4771 MEMB     50       POPC     C210     CEL1    -0.150000       12.0110           0
      4772 MEMB     50       POPC     H101     HEL1     0.150000       1.00800           0
      4773 MEMB     50       POPC     C211     CTL2    -0.180000       12.0110           0
      4774 MEMB     50       POPC     H11R     HAL2     0.900000E-01   1.00800           0
      4775 MEMB     50       POPC     H11S     HAL2     0.900000E-01   1.00800           0
      4776 MEMB     50       POPC     C212     CTL2    -0.180000       12.0110           0
      4777 MEMB     50       POPC     H12R     HAL2     0.900000E-01   1.00800           0
      4778 MEMB     50       POPC     H12S     HAL2     0.900000E-01   1.00800           0
      4779 MEMB     50       POPC     C213     CTL2    -0.180000       12.0110           0
      4780 MEMB     50       POPC     H13R     HAL2     0.900000E-01   1.00800           0
      4781 MEMB     50       POPC     H13S     HAL2     0.900000E-01   1.00800           0
      4782 MEMB     50       POPC     C214     CTL2    -0.180000       12.0110           0
      4783 MEMB     50       POPC     H14R     HAL2     0.900000E-01   1.00800           0
      4784 MEMB     50       POPC     H14S     HAL2     0.900000E-01   1.00800           0
      4785 MEMB     50       POPC     C215     CTL2    -0.180000       12.0110           0
      4786 MEMB     50       POPC     H15R     HAL2     0.900000E-01   1.00800           0
      4787 MEMB     50       POPC     H15S     HAL2     0.900000E-01   1.00800           0
      4788 MEMB     50       POPC     C216     CTL2    -0.180000       12.0110           0
      4789 MEMB     50       POPC     H16R     HAL2     0.900000E-01   1.00800           0
      4790 MEMB     50       POPC     H16S     HAL2     0.900000E-01   1.00800           0
      4791 MEMB     50       POPC     C217     CTL2    -0.180000       12.0110           0
      4792 MEMB     50       POPC     H17R     HAL2     0.900000E-01   1.00800           0
      4793 MEMB     50       POPC     H17S     HAL2     0.900000E-01   1.00800           0
      4794 MEMB     50       POPC     C218     CTL3    -0.270000       12.0110           0
      4795 MEMB     50       POPC     H18R     HAL3     0.900000E-01   1.00800           0
      4796 MEMB     50       POPC     H18S     HAL3     0.900000E-01   1.00800           0
      4797 MEMB     50       POPC     H18T     HAL3     0.900000E-01   1.00800           0
      4798 MEMB     50       POPC     C33      CTL2    -0.180000       12.0110           0
      4799 MEMB     50       POPC     H3X      HAL2     0.900000E-01   1.00800           0
      4800 MEMB     50       POPC     H3Y      HAL2     0.900000E-01   1.00800           0
      4801 MEMB     50       POPC     C34      CTL2    -0.180000       12.0110           0
      4802 MEMB     50       POPC     H4X      HAL2     0.900000E-01   1.00800           0
      4803 MEMB     50       POPC     H4Y      HAL2     0.900000E-01   1.00800           0
      4804 MEMB     50       POPC     C35      CTL2    -0.180000       12.0110           0
      4805 MEMB     50       POPC     H5X      HAL2     0.900000E-01   1.00800           0
      4806 MEMB     50       POPC     H5Y      HAL2     0.900000E-01   1.00800           0
      4807 MEMB     50       POPC     C36      CTL2    -0.180000       12.0110           0
      4808 MEMB     50       POPC     H6X      HAL2     0.900000E-01   1.00800           0
      4809 MEMB     50       POPC     H6Y      HAL2     0.900000E-01   1.00800           0
      4810 MEMB     50       POPC     C37      CTL2    -0.180000       12.0110           0
      4811 MEMB     50       POPC     H7X      HAL2     0.900000E-01   1.00800           0
      4812 MEMB     50       POPC     H7Y      HAL2     0.900000E-01   1.00800           0
      4813 MEMB     50       POPC     C38      CTL2    -0.180000       12.0110           0
      4814 MEMB     50       POPC     H8X      HAL2     0.900000E-01   1.00800           0
      4815 MEMB     50       POPC     H8Y      HAL2     0.900000E-01   1.00800           0
      4816 MEMB     50       POPC     C39      CTL2    -0.180000       12.0110           0
      4817 MEMB     50       POPC     H9X      HAL2     0.900000E-01   1.00800           0
      4818 MEMB     50       POPC     H9Y      HAL2     0.900000E-01   1.00800           0
      4819 MEMB     50       POPC     C310     CTL2    -0.180000       12.0110           0
      4820 MEMB     50       POPC     H10X     HAL2     0.900000E-01   1.00800           0
      4821 MEMB     50       POPC     H10Y     HAL2     0.900000E-01   1.00800           0
      4822 MEMB     50       POPC     C311     CTL2    -0.180000       12.0110           0
      4823 MEMB     50       POPC     H11X     HAL2     0.900000E-01   1.00800           0
      4824 MEMB     50       POPC     H11Y     HAL2     0.900000E-01   1.00800           0
      4825 MEMB     50       POPC     C312     CTL2    -0.180000       12.0110           0
      4826 MEMB     50       POPC     H12X     HAL2     0.900000E-01   1.00800           0
      4827 MEMB     50       POPC     H12Y     HAL2     0.900000E-01   1.00800           0
      4828 MEMB     50       POPC     C313     CTL2    -0.180000       12.0110           0
      4829 MEMB     50       POPC     H13X     HAL2     0.900000E-01   1.00800           0
      4830 MEMB     50       POPC     H13Y     HAL2     0.900000E-01   1.00800           0
      4831 MEMB     50       POPC     C314     CTL2    -0.180000       12.0110           0
      4832 MEMB     50       POPC     H14X     HAL2     0.900000E-01   1.00800           0
      4833 MEMB     50       POPC     H14Y     HAL2     0.900000E-01   1.00800           0
      4834 MEMB     50       POPC     C315     CTL2    -0.180000       12.0110           0
      4835 MEMB     50       POPC     H15X     HAL2     0.900000E-01   1.00800           0
      4836 MEMB     50       POPC     H15Y     HAL2     0.900000E-01   1.00800           0
      4837 MEMB     50       POPC     C316     CTL3    -0.270000       12.0110           0
      4838 MEMB     50       POPC     H16X     HAL3     0.900000E-01   1.00800           0
      4839 MEMB     50       POPC     H16Y     HAL3     0.900000E-01   1.00800           0
      4840 MEMB     50       POPC     H16Z     HAL3     0.900000E-01   1.00800           0
      4841 MEMB     51       POPC     N        NTL     -0.600000       14.0070           0
      4842 MEMB     51       POPC     C12      CTL2    -0.100000       12.0110           0
      4843 MEMB     51       POPC     H12A     HL       0.250000       1.00800           0
      4844 MEMB     51       POPC     H12B     HL       0.250000       1.00800           0
      4845 MEMB     51       POPC     C13      CTL5    -0.350000       12.0110           0
      4846 MEMB     51       POPC     H13A     HL       0.250000       1.00800           0
      4847 MEMB     51       POPC     H13B     HL       0.250000       1.00800           0
      4848 MEMB     51       POPC     H13C     HL       0.250000       1.00800           0
      4849 MEMB     51       POPC     C14      CTL5    -0.350000       12.0110           0
      4850 MEMB     51       POPC     H14A     HL       0.250000       1.00800           0
      4851 MEMB     51       POPC     H14B     HL       0.250000       1.00800           0
      4852 MEMB     51       POPC     H14C     HL       0.250000       1.00800           0
      4853 MEMB     51       POPC     C15      CTL5    -0.350000       12.0110           0
      4854 MEMB     51       POPC     H15A     HL       0.250000       1.00800           0
      4855 MEMB     51       POPC     H15B     HL       0.250000       1.00800           0
      4856 MEMB     51       POPC     H15C     HL       0.250000       1.00800           0
      4857 MEMB     51       POPC     C11      CTL2    -0.800000E-01   12.0110           0
      4858 MEMB     51       POPC     H11A     HAL2     0.900000E-01   1.00800           0
      4859 MEMB     51       POPC     H11B     HAL2     0.900000E-01   1.00800           0
      4860 MEMB     51       POPC     P        PL        1.50000       30.9740           0
      4861 MEMB     51       POPC     O13      O2L     -0.780000       15.9994           0
      4862 MEMB     51       POPC     O14      O2L     -0.780000       15.9994           0
      4863 MEMB     51       POPC     O12      OSLP    -0.570000       15.9994           0
      4864 MEMB     51       POPC     O11      OSLP    -0.570000       15.9994           0
      4865 MEMB     51       POPC     C1       CTL2    -0.800000E-01   12.0110           0
      4866 MEMB     51       POPC     HA       HAL2     0.900000E-01   1.00800           0
      4867 MEMB     51       POPC     HB       HAL2     0.900000E-01   1.00800           0
      4868 MEMB     51       POPC     C2       CTL1     0.170000       12.0110           0
      4869 MEMB     51       POPC     HS       HAL1     0.900000E-01   1.00800           0
      4870 MEMB     51       POPC     O21      OSL     -0.490000       15.9994           0
      4871 MEMB     51       POPC     C21      CL       0.900000       12.0110           0
      4872 MEMB     51       POPC     O22      OBL     -0.630000       15.9994           0
      4873 MEMB     51       POPC     C22      CTL2    -0.220000       12.0110           0
      4874 MEMB     51       POPC     H2R      HAL2     0.900000E-01   1.00800           0
      4875 MEMB     51       POPC     H2S      HAL2     0.900000E-01   1.00800           0
      4876 MEMB     51       POPC     C3       CTL2     0.800000E-01   12.0110           0
      4877 MEMB     51       POPC     HX       HAL2     0.900000E-01   1.00800           0
      4878 MEMB     51       POPC     HY       HAL2     0.900000E-01   1.00800           0
      4879 MEMB     51       POPC     O31      OSL     -0.490000       15.9994           0
      4880 MEMB     51       POPC     C31      CL       0.900000       12.0110           0
      4881 MEMB     51       POPC     O32      OBL     -0.630000       15.9994           0
      4882 MEMB     51       POPC     C32      CTL2    -0.220000       12.0110           0
      4883 MEMB     51       POPC     H2X      HAL2     0.900000E-01   1.00800           0
      4884 MEMB     51       POPC     H2Y      HAL2     0.900000E-01   1.00800           0
      4885 MEMB     51       POPC     C23      CTL2    -0.180000       12.0110           0
      4886 MEMB     51       POPC     H3R      HAL2     0.900000E-01   1.00800           0
      4887 MEMB     51       POPC     H3S      HAL2     0.900000E-01   1.00800           0
      4888 MEMB     51       POPC     C24      CTL2    -0.180000       12.0110           0
      4889 MEMB     51       POPC     H4R      HAL2     0.900000E-01   1.00800           0
      4890 MEMB     51       POPC     H4S      HAL2     0.900000E-01   1.00800           0
      4891 MEMB     51       POPC     C25      CTL2    -0.180000       12.0110           0
      4892 MEMB     51       POPC     H5R      HAL2     0.900000E-01   1.00800           0
      4893 MEMB     51       POPC     H5S      HAL2     0.900000E-01   1.00800           0
      4894 MEMB     51       POPC     C26      CTL2    -0.180000       12.0110           0
      4895 MEMB     51       POPC     H6R      HAL2     0.900000E-01   1.00800           0
      4896 MEMB     51       POPC     H6S      HAL2     0.900000E-01   1.00800           0
      4897 MEMB     51       POPC     C27      CTL2    -0.180000       12.0110           0
      4898 MEMB     51       POPC     H7R      HAL2     0.900000E-01   1.00800           0
      4899 MEMB     51       POPC     H7S      HAL2     0.900000E-01   1.00800           0
      4900 MEMB     51       POPC     C28      CTL2    -0.180000       12.0110           0
      4901 MEMB     51       POPC     H8R      HAL2     0.900000E-01   1.00800           0
      4902 MEMB     51       POPC     H8S      HAL2     0.900000E-01   1.00800           0
      4903 MEMB     51       POPC     C29      CEL1    -0.150000       12.0110           0
      4904 MEMB     51       POPC     H91      HEL1     0.150000       1.00800           0
      4905 MEMB     51       POPC     C210     CEL1    -0.150000       12.0110           0
      4906 MEMB     51       POPC     H101     HEL1     0.150000       1.00800           0
      4907 MEMB     51       POPC     C211     CTL2    -0.180000       12.0110           0
      4908 MEMB     51       POPC     H11R     HAL2     0.900000E-01   1.00800           0
      4909 MEMB     51       POPC     H11S     HAL2     0.900000E-01   1.00800           0
      4910 MEMB     51       POPC     C212     CTL2    -0.180000       12.0110           0
      4911 MEMB     51       POPC     H12R     HAL2     0.900000E-01   1.00800           0
      4912 MEMB     51       POPC     H12S     HAL2     0.900000E-01   1.00800           0
      4913 MEMB     51       POPC     C213     CTL2    -0.180000       12.0110           0
      4914 MEMB     51       POPC     H13R     HAL2     0.900000E-01   1.00800           0
      4915 MEMB     51       POPC     H13S     HAL2     0.900000E-01   1.00800           0
      4916 MEMB     51       POPC     C214     CTL2    -0.180000       12.0110           0
      4917 MEMB     51       POPC     H14R     HAL2     0.900000E-01   1.00800           0
      4918 MEMB     51       POPC     H14S     HAL2     0.900000E-01   1.00800           0
      4919 MEMB     51       POPC     C215     CTL2    -0.180000       12.0110           0
      4920 MEMB     51       POPC     H15R     HAL2     0.900000E-01   1.00800           0
      4921 MEMB     51       POPC     H15S     HAL2     0.900000E-01   1.00800           0
      4922 MEMB     51       POPC     C216     CTL2    -0.180000       12.0110           0
      4923 MEMB     51       POPC     H16R     HAL2     0.900000E-01   1.00800           0
      4924 MEMB     51       POPC     H16S     HAL2     0.900000E-01   1.00800           0
      4925 MEMB     51       POPC     C217     CTL2    -0.180000       12.0110           0
      4926 MEMB     51       POPC     H17R     HAL2     0.900000E-01   1.00800           0
      4927 MEMB     51       POPC     H17S     HAL2     0.900000E-01   1.00800           0
      4928 MEMB     51       POPC     C218     CTL3    -0.270000       12.0110           0
      4929 MEMB     51       POPC     H18R     HAL3     0.900000E-01   1.00800           0
      4930 MEMB     51       POPC     H18S     HAL3     0.900000E-01   1.00800           0
      4931 MEMB     51       POPC     H18T     HAL3     0.900000E-01   1.00800           0
      4932 MEMB     51       POPC     C33      CTL2    -0.180000       12.0110           0
      4933 MEMB     51       POPC     H3X      HAL2     0.900000E-01   1.00800           0
      4934 MEMB     51       POPC     H3Y      HAL2     0.900000E-01   1.00800           0
      4935 MEMB     51       POPC     C34      CTL2    -0.180000       12.0110           0
      4936 MEMB     51       POPC     H4X      HAL2     0.900000E-01   1.00800           0
      4937 MEMB     51       POPC     H4Y      HAL2     0.900000E-01   1.00800           0
      4938 MEMB     51       POPC     C35      CTL2    -0.180000       12.0110           0
      4939 MEMB     51       POPC     H5X      HAL2     0.900000E-01   1.00800           0
      4940 MEMB     51       POPC     H5Y      HAL2     0.900000E-01   1.00800           0
      4941 MEMB     51       POPC     C36      CTL2    -0.180000       12.0110           0
      4942 MEMB     51       POPC     H6X      HAL2     0.900000E-01   1.00800           0
      4943 MEMB     51       POPC     H6Y      HAL2     0.900000E-01   1.00800           0
      4944 MEMB     51       POPC     C37      CTL2    -0.180000       12.0110           0
      4945 MEMB     51       POPC     H7X      HAL2     0.900000E-01   1.00800           0
      4946 MEMB     51       POPC     H7Y      HAL2     0.900000E-01   1.00800           0
      4947 MEMB     51       POPC     C38      CTL2    -0.180000       12.0110           0
      4948 MEMB     51       POPC     H8X      HAL2     0.900000E-01   1.00800           0
      4949 MEMB     51       POPC     H8Y      HAL2     0.900000E-01   1.00800           0
      4950 MEMB     51       POPC     C39      CTL2    -0.180000       12.0110           0
      4951 MEMB     51       POPC     H9X      HAL2     0.900000E-01   1.00800           0
      4952 MEMB     51       POPC     H9Y      HAL2     0.900000E-01   1.00800           0
      4953 MEMB     51       POPC     C310     CTL2    -0.180000       12.0110           0
      4954 MEMB     51       POPC     H10X     HAL2     0.900000E-01   1.00800           0
      4955 MEMB     51       POPC     H10Y     HAL2     0.900000E-01   1.00800           0
      4956 MEMB     51       POPC     C311     CTL2    -0.180000       12.0110           0
      4957 MEMB     51       POPC     H11X     HAL2     0.900000E-01   1.00800           0
      4958 MEMB     51       POPC     H11Y     HAL2     0.900000E-01   1.00800           0
      4959 MEMB     51       POPC     C312     CTL2    -0.180000       12.0110           0
      4960 MEMB     51       POPC     H12X     HAL2     0.900000E-01   1.00800           0
      4961 MEMB     51       POPC     H12Y     HAL2     0.900000E-01   1.00800           0
      4962 MEMB     51       POPC     C313     CTL2    -0.180000       12.0110           0
      4963 MEMB     51       POPC     H13X     HAL2     0.900000E-01   1.00800           0
      4964 MEMB     51       POPC     H13Y     HAL2     0.900000E-01   1.00800           0
      4965 MEMB     51       POPC     C314     CTL2    -0.180000       12.0110           0
      4966 MEMB     51       POPC     H14X     HAL2     0.900000E-01   1.00800           0
      4967 MEMB     51       POPC     H14Y     HAL2     0.900000E-01   1.00800           0
      4968 MEMB     51       POPC     C315     CTL2    -0.180000       12.0110           0
      4969 MEMB     51       POPC     H15X     HAL2     0.900000E-01   1.00800           0
      4970 MEMB     51       POPC     H15Y     HAL2     0.900000E-01   1.00800           0
      4971 MEMB     51       POPC     C316     CTL3    -0.270000       12.0110           0
      4972 MEMB     51       POPC     H16X     HAL3     0.900000E-01   1.00800           0
      4973 MEMB     51       POPC     H16Y     HAL3     0.900000E-01   1.00800           0
      4974 MEMB     51       POPC     H16Z     HAL3     0.900000E-01   1.00800           0
      4975 MEMB     52       POPC     N        NTL     -0.600000       14.0070           0
      4976 MEMB     52       POPC     C12      CTL2    -0.100000       12.0110           0
      4977 MEMB     52       POPC     H12A     HL       0.250000       1.00800           0
      4978 MEMB     52       POPC     H12B     HL       0.250000       1.00800           0
      4979 MEMB     52       POPC     C13      CTL5    -0.350000       12.0110           0
      4980 MEMB     52       POPC     H13A     HL       0.250000       1.00800           0
      4981 MEMB     52       POPC     H13B     HL       0.250000       1.00800           0
      4982 MEMB     52       POPC     H13C     HL       0.250000       1.00800           0
      4983 MEMB     52       POPC     C14      CTL5    -0.350000       12.0110           0
      4984 MEMB     52       POPC     H14A     HL       0.250000       1.00800           0
      4985 MEMB     52       POPC     H14B     HL       0.250000       1.00800           0
      4986 MEMB     52       POPC     H14C     HL       0.250000       1.00800           0
      4987 MEMB     52       POPC     C15      CTL5    -0.350000       12.0110           0
      4988 MEMB     52       POPC     H15A     HL       0.250000       1.00800           0
      4989 MEMB     52       POPC     H15B     HL       0.250000       1.00800           0
      4990 MEMB     52       POPC     H15C     HL       0.250000       1.00800           0
      4991 MEMB     52       POPC     C11      CTL2    -0.800000E-01   12.0110           0
      4992 MEMB     52       POPC     H11A     HAL2     0.900000E-01   1.00800           0
      4993 MEMB     52       POPC     H11B     HAL2     0.900000E-01   1.00800           0
      4994 MEMB     52       POPC     P        PL        1.50000       30.9740           0
      4995 MEMB     52       POPC     O13      O2L     -0.780000       15.9994           0
      4996 MEMB     52       POPC     O14      O2L     -0.780000       15.9994           0
      4997 MEMB     52       POPC     O12      OSLP    -0.570000       15.9994           0
      4998 MEMB     52       POPC     O11      OSLP    -0.570000       15.9994           0
      4999 MEMB     52       POPC     C1       CTL2    -0.800000E-01   12.0110           0
      5000 MEMB     52       POPC     HA       HAL2     0.900000E-01   1.00800           0
      5001 MEMB     52       POPC     HB       HAL2     0.900000E-01   1.00800           0
      5002 MEMB     52       POPC     C2       CTL1     0.170000       12.0110           0
      5003 MEMB     52       POPC     HS       HAL1     0.900000E-01   1.00800           0
      5004 MEMB     52       POPC     O21      OSL     -0.490000       15.9994           0
      5005 MEMB     52       POPC     C21      CL       0.900000       12.0110           0
      5006 MEMB     52       POPC     O22      OBL     -0.630000       15.9994           0
      5007 MEMB     52       POPC     C22      CTL2    -0.220000       12.0110           0
      5008 MEMB     52       POPC     H2R      HAL2     0.900000E-01   1.00800           0
      5009 MEMB     52       POPC     H2S      HAL2     0.900000E-01   1.00800           0
      5010 MEMB     52       POPC     C3       CTL2     0.800000E-01   12.0110           0
      5011 MEMB     52       POPC     HX       HAL2     0.900000E-01   1.00800           0
      5012 MEMB     52       POPC     HY       HAL2     0.900000E-01   1.00800           0
      5013 MEMB     52       POPC     O31      OSL     -0.490000       15.9994           0
      5014 MEMB     52       POPC     C31      CL       0.900000       12.0110           0
      5015 MEMB     52       POPC     O32      OBL     -0.630000       15.9994           0
      5016 MEMB     52       POPC     C32      CTL2    -0.220000       12.0110           0
      5017 MEMB     52       POPC     H2X      HAL2     0.900000E-01   1.00800           0
      5018 MEMB     52       POPC     H2Y      HAL2     0.900000E-01   1.00800           0
      5019 MEMB     52       POPC     C23      CTL2    -0.180000       12.0110           0
      5020 MEMB     52       POPC     H3R      HAL2     0.900000E-01   1.00800           0
      5021 MEMB     52       POPC     H3S      HAL2     0.900000E-01   1.00800           0
      5022 MEMB     52       POPC     C24      CTL2    -0.180000       12.0110           0
      5023 MEMB     52       POPC     H4R      HAL2     0.900000E-01   1.00800           0
      5024 MEMB     52       POPC     H4S      HAL2     0.900000E-01   1.00800           0
      5025 MEMB     52       POPC     C25      CTL2    -0.180000       12.0110           0
      5026 MEMB     52       POPC     H5R      HAL2     0.900000E-01   1.00800           0
      5027 MEMB     52       POPC     H5S      HAL2     0.900000E-01   1.00800           0
      5028 MEMB     52       POPC     C26      CTL2    -0.180000       12.0110           0
      5029 MEMB     52       POPC     H6R      HAL2     0.900000E-01   1.00800           0
      5030 MEMB     52       POPC     H6S      HAL2     0.900000E-01   1.00800           0
      5031 MEMB     52       POPC     C27      CTL2    -0.180000       12.0110           0
      5032 MEMB     52       POPC     H7R      HAL2     0.900000E-01   1.00800           0
      5033 MEMB     52       POPC     H7S      HAL2     0.900000E-01   1.00800           0
      5034 MEMB     52       POPC     C28      CTL2    -0.180000       12.0110           0
      5035 MEMB     52       POPC     H8R      HAL2     0.900000E-01   1.00800           0
      5036 MEMB     52       POPC     H8S      HAL2     0.900000E-01   1.00800           0
      5037 MEMB     52       POPC     C29      CEL1    -0.150000       12.0110           0
      5038 MEMB     52       POPC     H91      HEL1     0.150000       1.00800           0
      5039 MEMB     52       POPC     C210     CEL1    -0.150000       12.0110           0
      5040 MEMB     52       POPC     H101     HEL1     0.150000       1.00800           0
      5041 MEMB     52       POPC     C211     CTL2    -0.180000       12.0110           0
      5042 MEMB     52       POPC     H11R     HAL2     0.900000E-01   1.00800           0
      5043 MEMB     52       POPC     H11S     HAL2     0.900000E-01   1.00800           0
      5044 MEMB     52       POPC     C212     CTL2    -0.180000       12.0110           0
      5045 MEMB     52       POPC     H12R     HAL2     0.900000E-01   1.00800           0
      5046 MEMB     52       POPC     H12S     HAL2     0.900000E-01   1.00800           0
      5047 MEMB     52       POPC     C213     CTL2    -0.180000       12.0110           0
      5048 MEMB     52       POPC     H13R     HAL2     0.900000E-01   1.00800           0
      5049 MEMB     52       POPC     H13S     HAL2     0.900000E-01   1.00800           0
      5050 MEMB     52       POPC     C214     CTL2    -0.180000       12.0110           0
      5051 MEMB     52       POPC     H14R     HAL2     0.900000E-01   1.00800           0
      5052 MEMB     52       POPC     H14S     HAL2     0.900000E-01   1.00800           0
      5053 MEMB     52       POPC     C215     CTL2    -0.180000       12.0110           0
      5054 MEMB     52       POPC     H15R     HAL2     0.900000E-01   1.00800           0
      5055 MEMB     52       POPC     H15S     HAL2     0.900000E-01   1.00800           0
      5056 MEMB     52       POPC     C216     CTL2    -0.180000       12.0110           0
      5057 MEMB     52       POPC     H16R     HAL2     0.900000E-01   1.00800           0
      5058 MEMB     52       POPC     H16S     HAL2     0.900000E-01   1.00800           0
      5059 MEMB     52       POPC     C217     CTL2    -0.180000       12.0110           0
      5060 MEMB     52       POPC     H17R     HAL2     0.900000E-01   1.00800           0
      5061 MEMB     52       POPC     H17S     HAL2     0.900000E-01   1.00800           0
      5062 MEMB     52       POPC     C218     CTL3    -0.270000       12.0110           0
      5063 MEMB     52       POPC     H18R     HAL3     0.900000E-01   1.00800           0
      5064 MEMB     52       POPC     H18S     HAL3     0.900000E-01   1.00800           0
      5065 MEMB     52       POPC     H18T     HAL3     0.900000E-01   1.00800           0
      5066 MEMB     52       POPC     C33      CTL2    -0.180000       12.0110           0
      5067 MEMB     52       POPC     H3X      HAL2     0.900000E-01   1.00800           0
      5068 MEMB     52       POPC     H3Y      HAL2     0.900000E-01   1.00800           0
      5069 MEMB     52       POPC     C34      CTL2    -0.180000       12.0110           0
      5070 MEMB     52       POPC     H4X      HAL2     0.900000E-01   1.00800           0
      5071 MEMB     52       POPC     H4Y      HAL2     0.900000E-01   1.00800           0
      5072 MEMB     52       POPC     C35      CTL2    -0.180000       12.0110           0
      5073 MEMB     52       POPC     H5X      HAL2     0.900000E-01   1.00800           0
      5074 MEMB     52       POPC     H5Y      HAL2     0.900000E-01   1.00800           0
      5075 MEMB     52       POPC     C36      CTL2    -0.180000       12.0110           0
      5076 MEMB     52       POPC     H6X      HAL2     0.900000E-01   1.00800           0
      5077 MEMB     52       POPC     H6Y      HAL2     0.900000E-01   1.00800           0
      5078 MEMB     52       POPC     C37      CTL2    -0.180000       12.0110           0
      5079 MEMB     52       POPC     H7X      HAL2     0.900000E-01   1.00800           0
      5080 MEMB     52       POPC     H7Y      HAL2     0.900000E-01   1.00800           0
      5081 MEMB     52       POPC     C38      CTL2    -0.180000       12.0110           0
      5082 MEMB     52       POPC     H8X      HAL2     0.900000E-01   1.00800           0
      5083 MEMB     52       POPC     H8Y      HAL2     0.900000E-01   1.00800           0
      5084 MEMB     52       POPC     C39      CTL2    -0.180000       12.0110           0
      5085 MEMB     52       POPC     H9X      HAL2     0.900000E-01   1.00800           0
      5086 MEMB     52       POPC     H9Y      HAL2     0.900000E-01   1.00800           0
      5087 MEMB     52       POPC     C310     CTL2    -0.180000       12.0110           0
      5088 MEMB     52       POPC     H10X     HAL2     0.900000E-01   1.00800           0
      5089 MEMB     52       POPC     H10Y     HAL2     0.900000E-01   1.00800           0
      5090 MEMB     52       POPC     C311     CTL2    -0.180000       12.0110           0
      5091 MEMB     52       POPC     H11X     HAL2     0.900000E-01   1.00800           0
      5092 MEMB     52       POPC     H11Y     HAL2     0.900000E-01   1.00800           0
      5093 MEMB     52       POPC     C312     CTL2    -0.180000       12.0110           0
      5094 MEMB     52       POPC     H12X     HAL2     0.900000E-01   1.00800           0
      5095 MEMB     52       POPC     H12Y     HAL2     0.900000E-01   1.00800           0
      5096 MEMB     52       POPC     C313     CTL2    -0.180000       12.0110           0
      5097 MEMB     52       POPC     H13X     HAL2     0.900000E-01   1.00800           0
      5098 MEMB     52       POPC     H13Y     HAL2     0.900000E-01   1.00800           0
      5099 MEMB     52       POPC     C314     CTL2    -0.180000       12.0110           0
      5100 MEMB     52       POPC     H14X     HAL2     0.900000E-01   1.00800           0
      5101 MEMB     52       POPC     H14Y     HAL2     0.900000E-01   1.00800           0
      5102 MEMB     52       POPC     C315     CTL2    -0.180000       12.0110           0
      5103 MEMB     52       POPC     H15X     HAL2     0.900000E-01   1.00800           0
      5104 MEMB     52       POPC     H15Y     HAL2     0.900000E-01   1.00800           0
      5105 MEMB     52       POPC     C316     CTL3    -0.270000       12.0110           0
      5106 MEMB     52       POPC     H16X     HAL3     0.900000E-01   1.00800           0
      5107 MEMB     52       POPC     H16Y     HAL3     0.900000E-01   1.00800           0
      5108 MEMB     52       POPC     H16Z     HAL3     0.900000E-01   1.00800           0
      5109 MEMB     53       POPC     N        NTL     -0.600000       14.0070           0
      5110 MEMB     53       POPC     C12      CTL2    -0.100000       12.0110           0
      5111 MEMB     53       POPC     H12A     HL       0.250000       1.00800           0
      5112 MEMB     53       POPC     H12B     HL       0.250000       1.00800           0
      5113 MEMB     53       POPC     C13      CTL5    -0.350000       12.0110           0
      5114 MEMB     53       POPC     H13A     HL       0.250000       1.00800           0
      5115 MEMB     53       POPC     H13B     HL       0.250000       1.00800           0
      5116 MEMB     53       POPC     H13C     HL       0.250000       1.00800           0
      5117 MEMB     53       POPC     C14      CTL5    -0.350000       12.0110           0
      5118 MEMB     53       POPC     H14A     HL       0.250000       1.00800           0
      5119 MEMB     53       POPC     H14B     HL       0.250000       1.00800           0
      5120 MEMB     53       POPC     H14C     HL       0.250000       1.00800           0
      5121 MEMB     53       POPC     C15      CTL5    -0.350000       12.0110           0
      5122 MEMB     53       POPC     H15A     HL       0.250000       1.00800           0
      5123 MEMB     53       POPC     H15B     HL       0.250000       1.00800           0
      5124 MEMB     53       POPC     H15C     HL       0.250000       1.00800           0
      5125 MEMB     53       POPC     C11      CTL2    -0.800000E-01   12.0110           0
      5126 MEMB     53       POPC     H11A     HAL2     0.900000E-01   1.00800           0
      5127 MEMB     53       POPC     H11B     HAL2     0.900000E-01   1.00800           0
      5128 MEMB     53       POPC     P        PL        1.50000       30.9740           0
      5129 MEMB     53       POPC     O13      O2L     -0.780000       15.9994           0
      5130 MEMB     53       POPC     O14      O2L     -0.780000       15.9994           0
      5131 MEMB     53       POPC     O12      OSLP    -0.570000       15.9994           0
      5132 MEMB     53       POPC     O11      OSLP    -0.570000       15.9994           0
      5133 MEMB     53       POPC     C1       CTL2    -0.800000E-01   12.0110           0
      5134 MEMB     53       POPC     HA       HAL2     0.900000E-01   1.00800           0
      5135 MEMB     53       POPC     HB       HAL2     0.900000E-01   1.00800           0
      5136 MEMB     53       POPC     C2       CTL1     0.170000       12.0110           0
      5137 MEMB     53       POPC     HS       HAL1     0.900000E-01   1.00800           0
      5138 MEMB     53       POPC     O21      OSL     -0.490000       15.9994           0
      5139 MEMB     53       POPC     C21      CL       0.900000       12.0110           0
      5140 MEMB     53       POPC     O22      OBL     -0.630000       15.9994           0
      5141 MEMB     53       POPC     C22      CTL2    -0.220000       12.0110           0
      5142 MEMB     53       POPC     H2R      HAL2     0.900000E-01   1.00800           0
      5143 MEMB     53       POPC     H2S      HAL2     0.900000E-01   1.00800           0
      5144 MEMB     53       POPC     C3       CTL2     0.800000E-01   12.0110           0
      5145 MEMB     53       POPC     HX       HAL2     0.900000E-01   1.00800           0
      5146 MEMB     53       POPC     HY       HAL2     0.900000E-01   1.00800           0
      5147 MEMB     53       POPC     O31      OSL     -0.490000       15.9994           0
      5148 MEMB     53       POPC     C31      CL       0.900000       12.0110           0
      5149 MEMB     53       POPC     O32      OBL     -0.630000       15.9994           0
      5150 MEMB     53       POPC     C32      CTL2    -0.220000       12.0110           0
      5151 MEMB     53       POPC     H2X      HAL2     0.900000E-01   1.00800           0
      5152 MEMB     53       POPC     H2Y      HAL2     0.900000E-01   1.00800           0
      5153 MEMB     53       POPC     C23      CTL2    -0.180000       12.0110           0
      5154 MEMB     53       POPC     H3R      HAL2     0.900000E-01   1.00800           0
      5155 MEMB     53       POPC     H3S      HAL2     0.900000E-01   1.00800           0
      5156 MEMB     53       POPC     C24      CTL2    -0.180000       12.0110           0
      5157 MEMB     53       POPC     H4R      HAL2     0.900000E-01   1.00800           0
      5158 MEMB     53       POPC     H4S      HAL2     0.900000E-01   1.00800           0
      5159 MEMB     53       POPC     C25      CTL2    -0.180000       12.0110           0
      5160 MEMB     53       POPC     H5R      HAL2     0.900000E-01   1.00800           0
      5161 MEMB     53       POPC     H5S      HAL2     0.900000E-01   1.00800           0
      5162 MEMB     53       POPC     C26      CTL2    -0.180000       12.0110           0
      5163 MEMB     53       POPC     H6R      HAL2     0.900000E-01   1.00800           0
      5164 MEMB     53       POPC     H6S      HAL2     0.900000E-01   1.00800           0
      5165 MEMB     53       POPC     C27      CTL2    -0.180000       12.0110           0
      5166 MEMB     53       POPC     H7R      HAL2     0.900000E-01   1.00800           0
      5167 MEMB     53       POPC     H7S      HAL2     0.900000E-01   1.00800           0
      5168 MEMB     53       POPC     C28      CTL2    -0.180000       12.0110           0
      5169 MEMB     53       POPC     H8R      HAL2     0.900000E-01   1.00800           0
      5170 MEMB     53       POPC     H8S      HAL2     0.900000E-01   1.00800           0
      5171 MEMB     53       POPC     C29      CEL1    -0.150000       12.0110           0
      5172 MEMB     53       POPC     H91      HEL1     0.150000       1.00800           0
      5173 MEMB     53       POPC     C210     CEL1    -0.150000       12.0110           0
      5174 MEMB     53       POPC     H101     HEL1     0.150000       1.00800           0
      5175 MEMB     53       POPC     C211     CTL2    -0.180000       12.0110           0
      5176 MEMB     53       POPC     H11R     HAL2     0.900000E-01   1.00800           0
      5177 MEMB     53       POPC     H11S     HAL2     0.900000E-01   1.00800           0
      5178 MEMB     53       POPC     C212     CTL2    -0.180000       12.0110           0
      5179 MEMB     53       POPC     H12R     HAL2     0.900000E-01   1.00800           0
      5180 MEMB     53       POPC     H12S     HAL2     0.900000E-01   1.00800           0
      5181 MEMB     53       POPC     C213     CTL2    -0.180000       12.0110           0
      5182 MEMB     53       POPC     H13R     HAL2     0.900000E-01   1.00800           0
      5183 MEMB     53       POPC     H13S     HAL2     0.900000E-01   1.00800           0
      5184 MEMB     53       POPC     C214     CTL2    -0.180000       12.0110           0
      5185 MEMB     53       POPC     H14R     HAL2     0.900000E-01   1.00800           0
      5186 MEMB     53       POPC     H14S     HAL2     0.900000E-01   1.00800           0
      5187 MEMB     53       POPC     C215     CTL2    -0.180000       12.0110           0
      5188 MEMB     53       POPC     H15R     HAL2     0.900000E-01   1.00800           0
      5189 MEMB     53       POPC     H15S     HAL2     0.900000E-01   1.00800           0
      5190 MEMB     53       POPC     C216     CTL2    -0.180000       12.0110           0
      5191 MEMB     53       POPC     H16R     HAL2     0.900000E-01   1.00800           0
      5192 MEMB     53       POPC     H16S     HAL2     0.900000E-01   1.00800           0
      5193 MEMB     53       POPC     C217     CTL2    -0.180000       12.0110           0
      5194 MEMB     53       POPC     H17R     HAL2     0.900000E-01   1.00800           0
      5195 MEMB     53       POPC     H17S     HAL2     0.900000E-01   1.00800           0
      5196 MEMB     53       POPC     C218     CTL3    -0.270000       12.0110           0
      5197 MEMB     53       POPC     H18R     HAL3     0.900000E-01   1.00800           0
      5198 MEMB     53       POPC     H18S     HAL3     0.900000E-01   1.00800           0
      5199 MEMB     53       POPC     H18T     HAL3     0.900000E-01   1.00800           0
      5200 MEMB     53       POPC     C33      CTL2    -0.180000       12.0110           0
      5201 MEMB     53       POPC     H3X      HAL2     0.900000E-01   1.00800           0
      5202 MEMB     53       POPC     H3Y      HAL2     0.900000E-01   1.00800           0
      5203 MEMB     53       POPC     C34      CTL2    -0.180000       12.0110           0
      5204 MEMB     53       POPC     H4X      HAL2     0.900000E-01   1.00800           0
      5205 MEMB     53       POPC     H4Y      HAL2     0.900000E-01   1.00800           0
      5206 MEMB     53       POPC     C35      CTL2    -0.180000       12.0110           0
      5207 MEMB     53       POPC     H5X      HAL2     0.900000E-01   1.00800           0
      5208 MEMB     53       POPC     H5Y      HAL2     0.900000E-01   1.00800           0
      5209 MEMB     53       POPC     C36      CTL2    -0.180000       12.0110           0
      5210 MEMB     53       POPC     H6X      HAL2     0.900000E-01   1.00800           0
      5211 MEMB     53       POPC     H6Y      HAL2     0.900000E-01   1.00800           0
      5212 MEMB     53       POPC     C37      CTL2    -0.180000       12.0110           0
      5213 MEMB     53       POPC     H7X      HAL2     0.900000E-01   1.00800           0
      5214 MEMB     53       POPC     H7Y      HAL2     0.900000E-01   1.00800           0
      5215 MEMB     53       POPC     C38      CTL2    -0.180000       12.0110           0
      5216 MEMB     53       POPC     H8X      HAL2     0.900000E-01   1.00800           0
      5217 MEMB     53       POPC     H8Y      HAL2     0.900000E-01   1.00800           0
      5218 MEMB     53       POPC     C39      CTL2    -0.180000       12.0110           0
      5219 MEMB     53       POPC     H9X      HAL2     0.900000E-01   1.00800           0
      5220 MEMB     53       POPC     H9Y      HAL2     0.900000E-01   1.00800           0
      5221 MEMB     53       POPC     C310     CTL2    -0.180000       12.0110           0
      5222 MEMB     53       POPC     H10X     HAL2     0.900000E-01   1.00800           0
      5223 MEMB     53       POPC     H10Y     HAL2     0.900000E-01   1.00800           0
      5224 MEMB     53       POPC     C311     CTL2    -0.180000       12.0110           0
      5225 MEMB     53       POPC     H11X     HAL2     0.900000E-01   1.00800           0
      5226 MEMB     53       POPC     H11Y     HAL2     0.900000E-01   1.00800           0
      5227 MEMB     53       POPC     C312     CTL2    -0.180000       12.0110           0
      5228 MEMB     53       POPC     H12X     HAL2     0.900000E-01   1.00800           0
      5229 MEMB     53       POPC     H12Y     HAL2     0.900000E-01   1.00800           0
      5230 MEMB     53       POPC     C313     CTL2    -0.180000       12.0110           0
      5231 MEMB     53       POPC     H13X     HAL2     0.900000E-01   1.00800           0
      5232 MEMB     53       POPC     H13Y     HAL2     0.900000E-01   1.00800           0
      5233 MEMB     53       POPC     C314     CTL2    -0.180000       12.0110           0
      5234 MEMB     53       POPC     H14X     HAL2     0.900000E-01   1.00800           0
      5235 MEMB     53       POPC     H14Y     HAL2     0.900000E-01   1.00800           0
      5236 MEMB     53       POPC     C315     CTL2    -0.180000       12.0110           0
      5237 MEMB     53       POPC     H15X     HAL2     0.900000E-01   1.00800           0
      5238 MEMB     53       POPC     H15Y     HAL2     0.900000E-01   1.00800           0
      5239 MEMB     53       POPC     C316     CTL3    -0.270000       12.0110           0
      5240 MEMB     53       POPC     H16X     HAL3     0.900000E-01   1.00800           0
      5241 MEMB     53       POPC     H16Y     HAL3     0.900000E-01   1.00800           0
      5242 MEMB     53       POPC     H16Z     HAL3     0.900000E-01   1.00800           0
      5243 MEMB     54       POPC     N        NTL     -0.600000       14.0070           0
      5244 MEMB     54       POPC     C12      CTL2    -0.100000       12.0110           0
      5245 MEMB     54       POPC     H12A     HL       0.250000       1.00800           0
      5246 MEMB     54       POPC     H12B     HL       0.250000       1.00800           0
      5247 MEMB     54       POPC     C13      CTL5    -0.350000       12.0110           0
      5248 MEMB     54       POPC     H13A     HL       0.250000       1.00800           0
      5249 MEMB     54       POPC     H13B     HL       0.250000       1.00800           0
      5250 MEMB     54       POPC     H13C     HL       0.250000       1.00800           0
      5251 MEMB     54       POPC     C14      CTL5    -0.350000       12.0110           0
      5252 MEMB     54       POPC     H14A     HL       0.250000       1.00800           0
      5253 MEMB     54       POPC     H14B     HL       0.250000       1.00800           0
      5254 MEMB     54       POPC     H14C     HL       0.250000       1.00800           0
      5255 MEMB     54       POPC     C15      CTL5    -0.350000       12.0110           0
      5256 MEMB     54       POPC     H15A     HL       0.250000       1.00800           0
      5257 MEMB     54       POPC     H15B     HL       0.250000       1.00800           0
      5258 MEMB     54       POPC     H15C     HL       0.250000       1.00800           0
      5259 MEMB     54       POPC     C11      CTL2    -0.800000E-01   12.0110           0
      5260 MEMB     54       POPC     H11A     HAL2     0.900000E-01   1.00800           0
      5261 MEMB     54       POPC     H11B     HAL2     0.900000E-01   1.00800           0
      5262 MEMB     54       POPC     P        PL        1.50000       30.9740           0
      5263 MEMB     54       POPC     O13      O2L     -0.780000       15.9994           0
      5264 MEMB     54       POPC     O14      O2L     -0.780000       15.9994           0
      5265 MEMB     54       POPC     O12      OSLP    -0.570000       15.9994           0
      5266 MEMB     54       POPC     O11      OSLP    -0.570000       15.9994           0
      5267 MEMB     54       POPC     C1       CTL2    -0.800000E-01   12.0110           0
      5268 MEMB     54       POPC     HA       HAL2     0.900000E-01   1.00800           0
      5269 MEMB     54       POPC     HB       HAL2     0.900000E-01   1.00800           0
      5270 MEMB     54       POPC     C2       CTL1     0.170000       12.0110           0
      5271 MEMB     54       POPC     HS       HAL1     0.900000E-01   1.00800           0
      5272 MEMB     54       POPC     O21      OSL     -0.490000       15.9994           0
      5273 MEMB     54       POPC     C21      CL       0.900000       12.0110           0
      5274 MEMB     54       POPC     O22      OBL     -0.630000       15.9994           0
      5275 MEMB     54       POPC     C22      CTL2    -0.220000       12.0110           0
      5276 MEMB     54       POPC     H2R      HAL2     0.900000E-01   1.00800           0
      5277 MEMB     54       POPC     H2S      HAL2     0.900000E-01   1.00800           0
      5278 MEMB     54       POPC     C3       CTL2     0.800000E-01   12.0110           0
      5279 MEMB     54       POPC     HX       HAL2     0.900000E-01   1.00800           0
      5280 MEMB     54       POPC     HY       HAL2     0.900000E-01   1.00800           0
      5281 MEMB     54       POPC     O31      OSL     -0.490000       15.9994           0
      5282 MEMB     54       POPC     C31      CL       0.900000       12.0110           0
      5283 MEMB     54       POPC     O32      OBL     -0.630000       15.9994           0
      5284 MEMB     54       POPC     C32      CTL2    -0.220000       12.0110           0
      5285 MEMB     54       POPC     H2X      HAL2     0.900000E-01   1.00800           0
      5286 MEMB     54       POPC     H2Y      HAL2     0.900000E-01   1.00800           0
      5287 MEMB     54       POPC     C23      CTL2    -0.180000       12.0110           0
      5288 MEMB     54       POPC     H3R      HAL2     0.900000E-01   1.00800           0
      5289 MEMB     54       POPC     H3S      HAL2     0.900000E-01   1.00800           0
      5290 MEMB     54       POPC     C24      CTL2    -0.180000       12.0110           0
      5291 MEMB     54       POPC     H4R      HAL2     0.900000E-01   1.00800           0
      5292 MEMB     54       POPC     H4S      HAL2     0.900000E-01   1.00800           0
      5293 MEMB     54       POPC     C25      CTL2    -0.180000       12.0110           0
      5294 MEMB     54       POPC     H5R      HAL2     0.900000E-01   1.00800           0
      5295 MEMB     54       POPC     H5S      HAL2     0.900000E-01   1.00800           0
      5296 MEMB     54       POPC     C26      CTL2    -0.180000       12.0110           0
      5297 MEMB     54       POPC     H6R      HAL2     0.900000E-01   1.00800           0
      5298 MEMB     54       POPC     H6S      HAL2     0.900000E-01   1.00800           0
      5299 MEMB     54       POPC     C27      CTL2    -0.180000       12.0110           0
      5300 MEMB     54       POPC     H7R      HAL2     0.900000E-01   1.00800           0
      5301 MEMB     54       POPC     H7S      HAL2     0.900000E-01   1.00800           0
      5302 MEMB     54       POPC     C28      CTL2    -0.180000       12.0110           0
      5303 MEMB     54       POPC     H8R      HAL2     0.900000E-01   1.00800           0
      5304 MEMB     54       POPC     H8S      HAL2     0.900000E-01   1.00800           0
      5305 MEMB     54       POPC     C29      CEL1    -0.150000       12.0110           0
      5306 MEMB     54       POPC     H91      HEL1     0.150000       1.00800           0
      5307 MEMB     54       POPC     C210     CEL1    -0.150000       12.0110           0
      5308 MEMB     54       POPC     H101     HEL1     0.150000       1.00800           0
      5309 MEMB     54       POPC     C211     CTL2    -0.180000       12.0110           0
      5310 MEMB     54       POPC     H11R     HAL2     0.900000E-01   1.00800           0
      5311 MEMB     54       POPC     H11S     HAL2     0.900000E-01   1.00800           0
      5312 MEMB     54       POPC     C212     CTL2    -0.180000       12.0110           0
      5313 MEMB     54       POPC     H12R     HAL2     0.900000E-01   1.00800           0
      5314 MEMB     54       POPC     H12S     HAL2     0.900000E-01   1.00800           0
      5315 MEMB     54       POPC     C213     CTL2    -0.180000       12.0110           0
      5316 MEMB     54       POPC     H13R     HAL2     0.900000E-01   1.00800           0
      5317 MEMB     54       POPC     H13S     HAL2     0.900000E-01   1.00800           0
      5318 MEMB     54       POPC     C214     CTL2    -0.180000       12.0110           0
      5319 MEMB     54       POPC     H14R     HAL2     0.900000E-01   1.00800           0
      5320 MEMB     54       POPC     H14S     HAL2     0.900000E-01   1.00800           0
      5321 MEMB     54       POPC     C215     CTL2    -0.180000       12.0110           0
      5322 MEMB     54       POPC     H15R     HAL2     0.900000E-01   1.00800           0
      5323 MEMB     54       POPC     H15S     HAL2     0.900000E-01   1.00800           0
      5324 MEMB     54       POPC     C216     CTL2    -0.180000       12.0110           0
      5325 MEMB     54       POPC     H16R     HAL2     0.900000E-01   1.00800           0
      5326 MEMB     54       POPC     H16S     HAL2     0.900000E-01   1.00800           0
      5327 MEMB     54       POPC     C217     CTL2    -0.180000       12.0110           0
      5328 MEMB     54       POPC     H17R     HAL2     0.900000E-01   1.00800           0
      5329 MEMB     54       POPC     H17S     HAL2     0.900000E-01   1.00800           0
      5330 MEMB     54       POPC     C218     CTL3    -0.270000       12.0110           0
      5331 MEMB     54       POPC     H18R     HAL3     0.900000E-01   1.00800           0
      5332 MEMB     54       POPC     H18S     HAL3     0.900000E-01   1.00800           0
      5333 MEMB     54       POPC     H18T     HAL3     0.900000E-01   1.00800           0
      5334 MEMB     54       POPC     C33      CTL2    -0.180000       12.0110           0
      5335 MEMB     54       POPC     H3X      HAL2     0.900000E-01   1.00800           0
      5336 MEMB     54       POPC     H3Y      HAL2     0.900000E-01   1.00800           0
      5337 MEMB     54       POPC     C34      CTL2    -0.180000       12.0110           0
      5338 MEMB     54       POPC     H4X      HAL2     0.900000E-01   1.00800           0
      5339 MEMB     54       POPC     H4Y      HAL2     0.900000E-01   1.00800           0
      5340 MEMB     54       POPC     C35      CTL2    -0.180000       12.0110           0
      5341 MEMB     54       POPC     H5X      HAL2     0.900000E-01   1.00800           0
      5342 MEMB     54       POPC     H5Y      HAL2     0.900000E-01   1.00800           0
      5343 MEMB     54       POPC     C36      CTL2    -0.180000       12.0110           0
      5344 MEMB     54       POPC     H6X      HAL2     0.900000E-01   1.00800           0
      5345 MEMB     54       POPC     H6Y      HAL2     0.900000E-01   1.00800           0
      5346 MEMB     54       POPC     C37      CTL2    -0.180000       12.0110           0
      5347 MEMB     54       POPC     H7X      HAL2     0.900000E-01   1.00800           0
      5348 MEMB     54       POPC     H7Y      HAL2     0.900000E-01   1.00800           0
      5349 MEMB     54       POPC     C38      CTL2    -0.180000       12.0110           0
      5350 MEMB     54       POPC     H8X      HAL2     0.900000E-01   1.00800           0
      5351 MEMB     54       POPC     H8Y      HAL2     0.900000E-01   1.00800           0
      5352 MEMB     54       POPC     C39      CTL2    -0.180000       12.0110           0
      5353 MEMB     54       POPC     H9X      HAL2     0.900000E-01   1.00800           0
      5354 MEMB     54       POPC     H9Y      HAL2     0.900000E-01   1.00800           0
      5355 MEMB     54       POPC     C310     CTL2    -0.180000       12.0110           0
      5356 MEMB     54       POPC     H10X     HAL2     0.900000E-01   1.00800           0
      5357 MEMB     54       POPC     H10Y     HAL2     0.900000E-01   1.00800           0
      5358 MEMB     54       POPC     C311     CTL2    -0.180000       12.0110           0
      5359 MEMB     54       POPC     H11X     HAL2     0.900000E-01   1.00800           0
      5360 MEMB     54       POPC     H11Y     HAL2     0.900000E-01   1.00800           0
      5361 MEMB     54       POPC     C312     CTL2    -0.180000       12.0110           0
      5362 MEMB     54       POPC     H12X     HAL2     0.900000E-01   1.00800           0
      5363 MEMB     54       POPC     H12Y     HAL2     0.900000E-01   1.00800           0
      5364 MEMB     54       POPC     C313     CTL2    -0.180000       12.0110           0
      5365 MEMB     54       POPC     H13X     HAL2     0.900000E-01   1.00800           0
      5366 MEMB     54       POPC     H13Y     HAL2     0.900000E-01   1.00800           0
      5367 MEMB     54       POPC     C314     CTL2    -0.180000       12.0110           0
      5368 MEMB     54       POPC     H14X     HAL2     0.900000E-01   1.00800           0
      5369 MEMB     54       POPC     H14Y     HAL2     0.900000E-01   1.00800           0
      5370 MEMB     54       POPC     C315     CTL2    -0.180000       12.0110           0
      5371 MEMB     54       POPC     H15X     HAL2     0.900000E-01   1.00800           0
      5372 MEMB     54       POPC     H15Y     HAL2     0.900000E-01   1.00800           0
      5373 MEMB     54       POPC     C316     CTL3    -0.270000       12.0110           0
      5374 MEMB     54       POPC     H16X     HAL3     0.900000E-01   1.00800           0
      5375 MEMB     54       POPC     H16Y     HAL3     0.900000E-01   1.00800           0
      5376 MEMB     54       POPC     H16Z     HAL3     0.900000E-01   1.00800           0
      5377 MEMB     55       POPC     N        NTL     -0.600000       14.0070           0
      5378 MEMB     55       POPC     C12      CTL2    -0.100000       12.0110           0
      5379 MEMB     55       POPC     H12A     HL       0.250000       1.00800           0
      5380 MEMB     55       POPC     H12B     HL       0.250000       1.00800           0
      5381 MEMB     55       POPC     C13      CTL5    -0.350000       12.0110           0
      5382 MEMB     55       POPC     H13A     HL       0.250000       1.00800           0
      5383 MEMB     55       POPC     H13B     HL       0.250000       1.00800           0
      5384 MEMB     55       POPC     H13C     HL       0.250000       1.00800           0
      5385 MEMB     55       POPC     C14      CTL5    -0.350000       12.0110           0
      5386 MEMB     55       POPC     H14A     HL       0.250000       1.00800           0
      5387 MEMB     55       POPC     H14B     HL       0.250000       1.00800           0
      5388 MEMB     55       POPC     H14C     HL       0.250000       1.00800           0
      5389 MEMB     55       POPC     C15      CTL5    -0.350000       12.0110           0
      5390 MEMB     55       POPC     H15A     HL       0.250000       1.00800           0
      5391 MEMB     55       POPC     H15B     HL       0.250000       1.00800           0
      5392 MEMB     55       POPC     H15C     HL       0.250000       1.00800           0
      5393 MEMB     55       POPC     C11      CTL2    -0.800000E-01   12.0110           0
      5394 MEMB     55       POPC     H11A     HAL2     0.900000E-01   1.00800           0
      5395 MEMB     55       POPC     H11B     HAL2     0.900000E-01   1.00800           0
      5396 MEMB     55       POPC     P        PL        1.50000       30.9740           0
      5397 MEMB     55       POPC     O13      O2L     -0.780000       15.9994           0
      5398 MEMB     55       POPC     O14      O2L     -0.780000       15.9994           0
      5399 MEMB     55       POPC     O12      OSLP    -0.570000       15.9994           0
      5400 MEMB     55       POPC     O11      OSLP    -0.570000       15.9994           0
      5401 MEMB     55       POPC     C1       CTL2    -0.800000E-01   12.0110           0
      5402 MEMB     55       POPC     HA       HAL2     0.900000E-01   1.00800           0
      5403 MEMB     55       POPC     HB       HAL2     0.900000E-01   1.00800           0
      5404 MEMB     55       POPC     C2       CTL1     0.170000       12.0110           0
      5405 MEMB     55       POPC     HS       HAL1     0.900000E-01   1.00800           0
      5406 MEMB     55       POPC     O21      OSL     -0.490000       15.9994           0
      5407 MEMB     55       POPC     C21      CL       0.900000       12.0110           0
      5408 MEMB     55       POPC     O22      OBL     -0.630000       15.9994           0
      5409 MEMB     55       POPC     C22      CTL2    -0.220000       12.0110           0
      5410 MEMB     55       POPC     H2R      HAL2     0.900000E-01   1.00800           0
      5411 MEMB     55       POPC     H2S      HAL2     0.900000E-01   1.00800           0
      5412 MEMB     55       POPC     C3       CTL2     0.800000E-01   12.0110           0
      5413 MEMB     55       POPC     HX       HAL2     0.900000E-01   1.00800           0
      5414 MEMB     55       POPC     HY       HAL2     0.900000E-01   1.00800           0
      5415 MEMB     55       POPC     O31      OSL     -0.490000       15.9994           0
      5416 MEMB     55       POPC     C31      CL       0.900000       12.0110           0
      5417 MEMB     55       POPC     O32      OBL     -0.630000       15.9994           0
      5418 MEMB     55       POPC     C32      CTL2    -0.220000       12.0110           0
      5419 MEMB     55       POPC     H2X      HAL2     0.900000E-01   1.00800           0
      5420 MEMB     55       POPC     H2Y      HAL2     0.900000E-01   1.00800           0
      5421 MEMB     55       POPC     C23      CTL2    -0.180000       12.0110           0
      5422 MEMB     55       POPC     H3R      HAL2     0.900000E-01   1.00800           0
      5423 MEMB     55       POPC     H3S      HAL2     0.900000E-01   1.00800           0
      5424 MEMB     55       POPC     C24      CTL2    -0.180000       12.0110           0
      5425 MEMB     55       POPC     H4R      HAL2     0.900000E-01   1.00800           0
      5426 MEMB     55       POPC     H4S      HAL2     0.900000E-01   1.00800           0
      5427 MEMB     55       POPC     C25      CTL2    -0.180000       12.0110           0
      5428 MEMB     55       POPC     H5R      HAL2     0.900000E-01   1.00800           0
      5429 MEMB     55       POPC     H5S      HAL2     0.900000E-01   1.00800           0
      5430 MEMB     55       POPC     C26      CTL2    -0.180000       12.0110           0
      5431 MEMB     55       POPC     H6R      HAL2     0.900000E-01   1.00800           0
      5432 MEMB     55       POPC     H6S      HAL2     0.900000E-01   1.00800           0
      5433 MEMB     55       POPC     C27      CTL2    -0.180000       12.0110           0
      5434 MEMB     55       POPC     H7R      HAL2     0.900000E-01   1.00800           0
      5435 MEMB     55       POPC     H7S      HAL2     0.900000E-01   1.00800           0
      5436 MEMB     55       POPC     C28      CTL2    -0.180000       12.0110           0
      5437 MEMB     55       POPC     H8R      HAL2     0.900000E-01   1.00800           0
      5438 MEMB     55       POPC     H8S      HAL2     0.900000E-01   1.00800           0
      5439 MEMB     55       POPC     C29      CEL1    -0.150000       12.0110           0
      5440 MEMB     55       POPC     H91      HEL1     0.150000       1.00800           0
      5441 MEMB     55       POPC     C210     CEL1    -0.150000       12.0110           0
      5442 MEMB     55       POPC     H101     HEL1     0.150000       1.00800           0
      5443 MEMB     55       POPC     C211     CTL2    -0.180000       12.0110           0
      5444 MEMB     55       POPC     H11R     HAL2     0.900000E-01   1.00800           0
      5445 MEMB     55       POPC     H11S     HAL2     0.900000E-01   1.00800           0
      5446 MEMB     55       POPC     C212     CTL2    -0.180000       12.0110           0
      5447 MEMB     55       POPC     H12R     HAL2     0.900000E-01   1.00800           0
      5448 MEMB     55       POPC     H12S     HAL2     0.900000E-01   1.00800           0
      5449 MEMB     55       POPC     C213     CTL2    -0.180000       12.0110           0
      5450 MEMB     55       POPC     H13R     HAL2     0.900000E-01   1.00800           0
      5451 MEMB     55       POPC     H13S     HAL2     0.900000E-01   1.00800           0
      5452 MEMB     55       POPC     C214     CTL2    -0.180000       12.0110           0
      5453 MEMB     55       POPC     H14R     HAL2     0.900000E-01   1.00800           0
      5454 MEMB     55       POPC     H14S     HAL2     0.900000E-01   1.00800           0
      5455 MEMB     55       POPC     C215     CTL2    -0.180000       12.0110           0
      5456 MEMB     55       POPC     H15R     HAL2     0.900000E-01   1.00800           0
      5457 MEMB     55       POPC     H15S     HAL2     0.900000E-01   1.00800           0
      5458 MEMB     55       POPC     C216     CTL2    -0.180000       12.0110           0
      5459 MEMB     55       POPC     H16R     HAL2     0.900000E-01   1.00800           0
      5460 MEMB     55       POPC     H16S     HAL2     0.900000E-01   1.00800           0
      5461 MEMB     55       POPC     C217     CTL2    -0.180000       12.0110           0
      5462 MEMB     55       POPC     H17R     HAL2     0.900000E-01   1.00800           0
      5463 MEMB     55       POPC     H17S     HAL2     0.900000E-01   1.00800           0
      5464 MEMB     55       POPC     C218     CTL3    -0.270000       12.0110           0
      5465 MEMB     55       POPC     H18R     HAL3     0.900000E-01   1.00800           0
      5466 MEMB     55       POPC     H18S     HAL3     0.900000E-01   1.00800           0
      5467 MEMB     55       POPC     H18T     HAL3     0.900000E-01   1.00800           0
      5468 MEMB     55       POPC     C33      CTL2    -0.180000       12.0110           0
      5469 MEMB     55       POPC     H3X      HAL2     0.900000E-01   1.00800           0
      5470 MEMB     55       POPC     H3Y      HAL2     0.900000E-01   1.00800           0
      5471 MEMB     55       POPC     C34      CTL2    -0.180000       12.0110           0
      5472 MEMB     55       POPC     H4X      HAL2     0.900000E-01   1.00800           0
      5473 MEMB     55       POPC     H4Y      HAL2     0.900000E-01   1.00800           0
      5474 MEMB     55       POPC     C35      CTL2    -0.180000       12.0110           0
      5475 MEMB     55       POPC     H5X      HAL2     0.900000E-01   1.00800           0
      5476 MEMB     55       POPC     H5Y      HAL2     0.900000E-01   1.00800           0
      5477 MEMB     55       POPC     C36      CTL2    -0.180000       12.0110           0
      5478 MEMB     55       POPC     H6X      HAL2     0.900000E-01   1.00800           0
      5479 MEMB     55       POPC     H6Y      HAL2     0.900000E-01   1.00800           0
      5480 MEMB     55       POPC     C37      CTL2    -0.180000       12.0110           0
      5481 MEMB     55       POPC     H7X      HAL2     0.900000E-01   1.00800           0
      5482 MEMB     55       POPC     H7Y      HAL2     0.900000E-01   1.00800           0
      5483 MEMB     55       POPC     C38      CTL2    -0.180000       12.0110           0
      5484 MEMB     55       POPC     H8X      HAL2     0.900000E-01   1.00800           0
      5485 MEMB     55       POPC     H8Y      HAL2     0.900000E-01   1.00800           0
      5486 MEMB     55       POPC     C39      CTL2    -0.180000       12.0110           0
      5487 MEMB     55       POPC     H9X      HAL2     0.900000E-01   1.00800           0
      5488 MEMB     55       POPC     H9Y      HAL2     0.900000E-01   1.00800           0
      5489 MEMB     55       POPC     C310     CTL2    -0.180000       12.0110           0
      5490 MEMB     55       POPC     H10X     HAL2     0.900000E-01   1.00800           0
      5491 MEMB     55       POPC     H10Y     HAL2     0.900000E-01   1.00800           0
      5492 MEMB     55       POPC     C311     CTL2    -0.180000       12.0110           0
      5493 MEMB     55       POPC     H11X     HAL2     0.900000E-01   1.00800           0
      5494 MEMB     55       POPC     H11Y     HAL2     0.900000E-01   1.00800           0
      5495 MEMB     55       POPC     C312     CTL2    -0.180000       12.0110           0
      5496 MEMB     55       POPC     H12X     HAL2     0.900000E-01   1.00800           0
      5497 MEMB     55       POPC     H12Y     HAL2     0.900000E-01   1.00800           0
      5498 MEMB     55       POPC     C313     CTL2    -0.180000       12.0110           0
      5499 MEMB     55       POPC     H13X     HAL2     0.900000E-01   1.00800           0
      5500 MEMB     55       POPC     H13Y     HAL2     0.900000E-01   1.00800           0
      5501 MEMB     55       POPC     C314     CTL2    -0.180000       12.0110           0
      5502 MEMB     55       POPC     H14X     HAL2     0.900000E-01   1.00800           0
      5503 MEMB     55       POPC     H14Y     HAL2     0.900000E-01   1.00800           0
      5504 MEMB     55       POPC     C315     CTL2    -0.180000       12.0110           0
      5505 MEMB     55       POPC     H15X     HAL2     0.900000E-01   1.00800           0
      5506 MEMB     55       POPC     H15Y     HAL2     0.900000E-01   1.00800           0
      5507 MEMB     55       POPC     C316     CTL3    -0.270000       12.0110           0
      5508 MEMB     55       POPC     H16X     HAL3     0.900000E-01   1.00800           0
      5509 MEMB     55       POPC     H16Y     HAL3     0.900000E-01   1.00800           0
      5510 MEMB     55       POPC     H16Z     HAL3     0.900000E-01   1.00800           0
      5511 MEMB     56       POPC     N        NTL     -0.600000       14.0070           0
      5512 MEMB     56       POPC     C12      CTL2    -0.100000       12.0110           0
      5513 MEMB     56       POPC     H12A     HL       0.250000       1.00800           0
      5514 MEMB     56       POPC     H12B     HL       0.250000       1.00800           0
      5515 MEMB     56       POPC     C13      CTL5    -0.350000       12.0110           0
      5516 MEMB     56       POPC     H13A     HL       0.250000       1.00800           0
      5517 MEMB     56       POPC     H13B     HL       0.250000       1.00800           0
      5518 MEMB     56       POPC     H13C     HL       0.250000       1.00800           0
      5519 MEMB     56       POPC     C14      CTL5    -0.350000       12.0110           0
      5520 MEMB     56       POPC     H14A     HL       0.250000       1.00800           0
      5521 MEMB     56       POPC     H14B     HL       0.250000       1.00800           0
      5522 MEMB     56       POPC     H14C     HL       0.250000       1.00800           0
      5523 MEMB     56       POPC     C15      CTL5    -0.350000       12.0110           0
      5524 MEMB     56       POPC     H15A     HL       0.250000       1.00800           0
      5525 MEMB     56       POPC     H15B     HL       0.250000       1.00800           0
      5526 MEMB     56       POPC     H15C     HL       0.250000       1.00800           0
      5527 MEMB     56       POPC     C11      CTL2    -0.800000E-01   12.0110           0
      5528 MEMB     56       POPC     H11A     HAL2     0.900000E-01   1.00800           0
      5529 MEMB     56       POPC     H11B     HAL2     0.900000E-01   1.00800           0
      5530 MEMB     56       POPC     P        PL        1.50000       30.9740           0
      5531 MEMB     56       POPC     O13      O2L     -0.780000       15.9994           0
      5532 MEMB     56       POPC     O14      O2L     -0.780000       15.9994           0
      5533 MEMB     56       POPC     O12      OSLP    -0.570000       15.9994           0
      5534 MEMB     56       POPC     O11      OSLP    -0.570000       15.9994           0
      5535 MEMB     56       POPC     C1       CTL2    -0.800000E-01   12.0110           0
      5536 MEMB     56       POPC     HA       HAL2     0.900000E-01   1.00800           0
      5537 MEMB     56       POPC     HB       HAL2     0.900000E-01   1.00800           0
      5538 MEMB     56       POPC     C2       CTL1     0.170000       12.0110           0
      5539 MEMB     56       POPC     HS       HAL1     0.900000E-01   1.00800           0
      5540 MEMB     56       POPC     O21      OSL     -0.490000       15.9994           0
      5541 MEMB     56       POPC     C21      CL       0.900000       12.0110           0
      5542 MEMB     56       POPC     O22      OBL     -0.630000       15.9994           0
      5543 MEMB     56       POPC     C22      CTL2    -0.220000       12.0110           0
      5544 MEMB     56       POPC     H2R      HAL2     0.900000E-01   1.00800           0
      5545 MEMB     56       POPC     H2S      HAL2     0.900000E-01   1.00800           0
      5546 MEMB     56       POPC     C3       CTL2     0.800000E-01   12.0110           0
      5547 MEMB     56       POPC     HX       HAL2     0.900000E-01   1.00800           0
      5548 MEMB     56       POPC     HY       HAL2     0.900000E-01   1.00800           0
      5549 MEMB     56       POPC     O31      OSL     -0.490000       15.9994           0
      5550 MEMB     56       POPC     C31      CL       0.900000       12.0110           0
      5551 MEMB     56       POPC     O32      OBL     -0.630000       15.9994           0
      5552 MEMB     56       POPC     C32      CTL2    -0.220000       12.0110           0
      5553 MEMB     56       POPC     H2X      HAL2     0.900000E-01   1.00800           0
      5554 MEMB     56       POPC     H2Y      HAL2     0.900000E-01   1.00800           0
      5555 MEMB     56       POPC     C23      CTL2    -0.180000       12.0110           0
      5556 MEMB     56       POPC     H3R      HAL2     0.900000E-01   1.00800           0
      5557 MEMB     56       POPC     H3S      HAL2     0.900000E-01   1.00800           0
      5558 MEMB     56       POPC     C24      CTL2    -0.180000       12.0110           0
      5559 MEMB     56       POPC     H4R      HAL2     0.900000E-01   1.00800           0
      5560 MEMB     56       POPC     H4S      HAL2     0.900000E-01   1.00800           0
      5561 MEMB     56       POPC     C25      CTL2    -0.180000       12.0110           0
      5562 MEMB     56       POPC     H5R      HAL2     0.900000E-01   1.00800           0
      5563 MEMB     56       POPC     H5S      HAL2     0.900000E-01   1.00800           0
      5564 MEMB     56       POPC     C26      CTL2    -0.180000       12.0110           0
      5565 MEMB     56       POPC     H6R      HAL2     0.900000E-01   1.00800           0
      5566 MEMB     56       POPC     H6S      HAL2     0.900000E-01   1.00800           0
      5567 MEMB     56       POPC     C27      CTL2    -0.180000       12.0110           0
      5568 MEMB     56       POPC     H7R      HAL2     0.900000E-01   1.00800           0
      5569 MEMB     56       POPC     H7S      HAL2     0.900000E-01   1.00800           0
      5570 MEMB     56       POPC     C28      CTL2    -0.180000       12.0110           0
      5571 MEMB     56       POPC     H8R      HAL2     0.900000E-01   1.00800           0
      5572 MEMB     56       POPC     H8S      HAL2     0.900000E-01   1.00800           0
      5573 MEMB     56       POPC     C29      CEL1    -0.150000       12.0110           0
      5574 MEMB     56       POPC     H91      HEL1     0.150000       1.00800           0
      5575 MEMB     56       POPC     C210     CEL1    -0.150000       12.0110           0
      5576 MEMB     56       POPC     H101     HEL1     0.150000       1.00800           0
      5577 MEMB     56       POPC     C211     CTL2    -0.180000       12.0110           0
      5578 MEMB     56       POPC     H11R     HAL2     0.900000E-01   1.00800           0
      5579 MEMB     56       POPC     H11S     HAL2     0.900000E-01   1.00800           0
      5580 MEMB     56       POPC     C212     CTL2    -0.180000       12.0110           0
      5581 MEMB     56       POPC     H12R     HAL2     0.900000E-01   1.00800           0
      5582 MEMB     56       POPC     H12S     HAL2     0.900000E-01   1.00800           0
      5583 MEMB     56       POPC     C213     CTL2    -0.180000       12.0110           0
      5584 MEMB     56       POPC     H13R     HAL2     0.900000E-01   1.00800           0
      5585 MEMB     56       POPC     H13S     HAL2     0.900000E-01   1.00800           0
      5586 MEMB     56       POPC     C214     CTL2    -0.180000       12.0110           0
      5587 MEMB     56       POPC     H14R     HAL2     0.900000E-01   1.00800           0
      5588 MEMB     56       POPC     H14S     HAL2     0.900000E-01   1.00800           0
      5589 MEMB     56       POPC     C215     CTL2    -0.180000       12.0110           0
      5590 MEMB     56       POPC     H15R     HAL2     0.900000E-01   1.00800           0
      5591 MEMB     56       POPC     H15S     HAL2     0.900000E-01   1.00800           0
      5592 MEMB     56       POPC     C216     CTL2    -0.180000       12.0110           0
      5593 MEMB     56       POPC     H16R     HAL2     0.900000E-01   1.00800           0
      5594 MEMB     56       POPC     H16S     HAL2     0.900000E-01   1.00800           0
      5595 MEMB     56       POPC     C217     CTL2    -0.180000       12.0110           0
      5596 MEMB     56       POPC     H17R     HAL2     0.900000E-01   1.00800           0
      5597 MEMB     56       POPC     H17S     HAL2     0.900000E-01   1.00800           0
      5598 MEMB     56       POPC     C218     CTL3    -0.270000       12.0110           0
      5599 MEMB     56       POPC     H18R     HAL3     0.900000E-01   1.00800           0
      5600 MEMB     56       POPC     H18S     HAL3     0.900000E-01   1.00800           0
      5601 MEMB     56       POPC     H18T     HAL3     0.900000E-01   1.00800           0
      5602 MEMB     56       POPC     C33      CTL2    -0.180000       12.0110           0
      5603 MEMB     56       POPC     H3X      HAL2     0.900000E-01   1.00800           0
      5604 MEMB     56       POPC     H3Y      HAL2     0.900000E-01   1.00800           0
      5605 MEMB     56       POPC     C34      CTL2    -0.180000       12.0110           0
      5606 MEMB     56       POPC     H4X      HAL2     0.900000E-01   1.00800           0
      5607 MEMB     56       POPC     H4Y      HAL2     0.900000E-01   1.00800           0
      5608 MEMB     56       POPC     C35      CTL2    -0.180000       12.0110           0
      5609 MEMB     56       POPC     H5X      HAL2     0.900000E-01   1.00800           0
      5610 MEMB     56       POPC     H5Y      HAL2     0.900000E-01   1.00800           0
      5611 MEMB     56       POPC     C36      CTL2    -0.180000       12.0110           0
      5612 MEMB     56       POPC     H6X      HAL2     0.900000E-01   1.00800           0
      5613 MEMB     56       POPC     H6Y      HAL2     0.900000E-01   1.00800           0
      5614 MEMB     56       POPC     C37      CTL2    -0.180000       12.0110           0
      5615 MEMB     56       POPC     H7X      HAL2     0.900000E-01   1.00800           0
      5616 MEMB     56       POPC     H7Y      HAL2     0.900000E-01   1.00800           0
      5617 MEMB     56       POPC     C38      CTL2    -0.180000       12.0110           0
      5618 MEMB     56       POPC     H8X      HAL2     0.900000E-01   1.00800           0
      5619 MEMB     56       POPC     H8Y      HAL2     0.900000E-01   1.00800           0
      5620 MEMB     56       POPC     C39      CTL2    -0.180000       12.0110           0
      5621 MEMB     56       POPC     H9X      HAL2     0.900000E-01   1.00800           0
      5622 MEMB     56       POPC     H9Y      HAL2     0.900000E-01   1.00800           0
      5623 MEMB     56       POPC     C310     CTL2    -0.180000       12.0110           0
      5624 MEMB     56       POPC     H10X     HAL2     0.900000E-01   1.00800           0
      5625 MEMB     56       POPC     H10Y     HAL2     0.900000E-01   1.00800           0
      5626 MEMB     56       POPC     C311     CTL2    -0.180000       12.0110           0
      5627 MEMB     56       POPC     H11X     HAL2     0.900000E-01   1.00800           0
      5628 MEMB     56       POPC     H11Y     HAL2     0.900000E-01   1.00800           0
      5629 MEMB     56       POPC     C312     CTL2    -0.180000       12.0110           0
      5630 MEMB     56       POPC     H12X     HAL2     0.900000E-01   1.00800           0
      5631 MEMB     56       POPC     H12Y     HAL2     0.900000E-01   1.00800           0
      5632 MEMB     56       POPC     C313     CTL2    -0.180000       12.0110           0
      5633 MEMB     56       POPC     H13X     HAL2     0.900000E-01   1.00800           0
      5634 MEMB     56       POPC     H13Y     HAL2     0.900000E-01   1.00800           0
      5635 MEMB     56       POPC     C314     CTL2    -0.180000       12.0110           0
      5636 MEMB     56       POPC     H14X     HAL2     0.900000E-01   1.00800           0
      5637 MEMB     56       POPC     H14Y     HAL2     0.900000E-01   1.00800           0
      5638 MEMB     56       POPC     C315     CTL2    -0.180000       12.0110           0
      5639 MEMB     56       POPC     H15X     HAL2     0.900000E-01   1.00800           0
      5640 MEMB     56       POPC     H15Y     HAL2     0.900000E-01   1.00800           0
      5641 MEMB     56       POPC     C316     CTL3    -0.270000       12.0110           0
      5642 MEMB     56       POPC     H16X     HAL3     0.900000E-01   1.00800           0
      5643 MEMB     56       POPC     H16Y     HAL3     0.900000E-01   1.00800           0
      5644 MEMB     56       POPC     H16Z     HAL3     0.900000E-01   1.00800           0
      5645 MEMB     57       POPC     N        NTL     -0.600000       14.0070           0
      5646 MEMB     57       POPC     C12      CTL2    -0.100000       12.0110           0
      5647 MEMB     57       POPC     H12A     HL       0.250000       1.00800           0
      5648 MEMB     57       POPC     H12B     HL       0.250000       1.00800           0
      5649 MEMB     57       POPC     C13      CTL5    -0.350000       12.0110           0
      5650 MEMB     57       POPC     H13A     HL       0.250000       1.00800           0
      5651 MEMB     57       POPC     H13B     HL       0.250000       1.00800           0
      5652 MEMB     57       POPC     H13C     HL       0.250000       1.00800           0
      5653 MEMB     57       POPC     C14      CTL5    -0.350000       12.0110           0
      5654 MEMB     57       POPC     H14A     HL       0.250000       1.00800           0
      5655 MEMB     57       POPC     H14B     HL       0.250000       1.00800           0
      5656 MEMB     57       POPC     H14C     HL       0.250000       1.00800           0
      5657 MEMB     57       POPC     C15      CTL5    -0.350000       12.0110           0
      5658 MEMB     57       POPC     H15A     HL       0.250000       1.00800           0
      5659 MEMB     57       POPC     H15B     HL       0.250000       1.00800           0
      5660 MEMB     57       POPC     H15C     HL       0.250000       1.00800           0
      5661 MEMB     57       POPC     C11      CTL2    -0.800000E-01   12.0110           0
      5662 MEMB     57       POPC     H11A     HAL2     0.900000E-01   1.00800           0
      5663 MEMB     57       POPC     H11B     HAL2     0.900000E-01   1.00800           0
      5664 MEMB     57       POPC     P        PL        1.50000       30.9740           0
      5665 MEMB     57       POPC     O13      O2L     -0.780000       15.9994           0
      5666 MEMB     57       POPC     O14      O2L     -0.780000       15.9994           0
      5667 MEMB     57       POPC     O12      OSLP    -0.570000       15.9994           0
      5668 MEMB     57       POPC     O11      OSLP    -0.570000       15.9994           0
      5669 MEMB     57       POPC     C1       CTL2    -0.800000E-01   12.0110           0
      5670 MEMB     57       POPC     HA       HAL2     0.900000E-01   1.00800           0
      5671 MEMB     57       POPC     HB       HAL2     0.900000E-01   1.00800           0
      5672 MEMB     57       POPC     C2       CTL1     0.170000       12.0110           0
      5673 MEMB     57       POPC     HS       HAL1     0.900000E-01   1.00800           0
      5674 MEMB     57       POPC     O21      OSL     -0.490000       15.9994           0
      5675 MEMB     57       POPC     C21      CL       0.900000       12.0110           0
      5676 MEMB     57       POPC     O22      OBL     -0.630000       15.9994           0
      5677 MEMB     57       POPC     C22      CTL2    -0.220000       12.0110           0
      5678 MEMB     57       POPC     H2R      HAL2     0.900000E-01   1.00800           0
      5679 MEMB     57       POPC     H2S      HAL2     0.900000E-01   1.00800           0
      5680 MEMB     57       POPC     C3       CTL2     0.800000E-01   12.0110           0
      5681 MEMB     57       POPC     HX       HAL2     0.900000E-01   1.00800           0
      5682 MEMB     57       POPC     HY       HAL2     0.900000E-01   1.00800           0
      5683 MEMB     57       POPC     O31      OSL     -0.490000       15.9994           0
      5684 MEMB     57       POPC     C31      CL       0.900000       12.0110           0
      5685 MEMB     57       POPC     O32      OBL     -0.630000       15.9994           0
      5686 MEMB     57       POPC     C32      CTL2    -0.220000       12.0110           0
      5687 MEMB     57       POPC     H2X      HAL2     0.900000E-01   1.00800           0
      5688 MEMB     57       POPC     H2Y      HAL2     0.900000E-01   1.00800           0
      5689 MEMB     57       POPC     C23      CTL2    -0.180000       12.0110           0
      5690 MEMB     57       POPC     H3R      HAL2     0.900000E-01   1.00800           0
      5691 MEMB     57       POPC     H3S      HAL2     0.900000E-01   1.00800           0
      5692 MEMB     57       POPC     C24      CTL2    -0.180000       12.0110           0
      5693 MEMB     57       POPC     H4R      HAL2     0.900000E-01   1.00800           0
      5694 MEMB     57       POPC     H4S      HAL2     0.900000E-01   1.00800           0
      5695 MEMB     57       POPC     C25      CTL2    -0.180000       12.0110           0
      5696 MEMB     57       POPC     H5R      HAL2     0.900000E-01   1.00800           0
      5697 MEMB     57       POPC     H5S      HAL2     0.900000E-01   1.00800           0
      5698 MEMB     57       POPC     C26      CTL2    -0.180000       12.0110           0
      5699 MEMB     57       POPC     H6R      HAL2     0.900000E-01   1.00800           0
      5700 MEMB     57       POPC     H6S      HAL2     0.900000E-01   1.00800           0
      5701 MEMB     57       POPC     C27      CTL2    -0.180000       12.0110           0
      5702 MEMB     57       POPC     H7R      HAL2     0.900000E-01   1.00800           0
      5703 MEMB     57       POPC     H7S      HAL2     0.900000E-01   1.00800           0
      5704 MEMB     57       POPC     C28      CTL2    -0.180000       12.0110           0
      5705 MEMB     57       POPC     H8R      HAL2     0.900000E-01   1.00800           0
      5706 MEMB     57       POPC     H8S      HAL2     0.900000E-01   1.00800           0
      5707 MEMB     57       POPC     C29      CEL1    -0.150000       12.0110           0
      5708 MEMB     57       POPC     H91      HEL1     0.150000       1.00800           0
      5709 MEMB     57       POPC     C210     CEL1    -0.150000       12.0110           0
      5710 MEMB     57       POPC     H101     HEL1     0.150000       1.00800           0
      5711 MEMB     57       POPC     C211     CTL2    -0.180000       12.0110           0
      5712 MEMB     57       POPC     H11R     HAL2     0.900000E-01   1.00800           0
      5713 MEMB     57       POPC     H11S     HAL2     0.900000E-01   1.00800           0
      5714 MEMB     57       POPC     C212     CTL2    -0.180000       12.0110           0
      5715 MEMB     57       POPC     H12R     HAL2     0.900000E-01   1.00800           0
      5716 MEMB     57       POPC     H12S     HAL2     0.900000E-01   1.00800           0
      5717 MEMB     57       POPC     C213     CTL2    -0.180000       12.0110           0
      5718 MEMB     57       POPC     H13R     HAL2     0.900000E-01   1.00800           0
      5719 MEMB     57       POPC     H13S     HAL2     0.900000E-01   1.00800           0
      5720 MEMB     57       POPC     C214     CTL2    -0.180000       12.0110           0
      5721 MEMB     57       POPC     H14R     HAL2     0.900000E-01   1.00800           0
      5722 MEMB     57       POPC     H14S     HAL2     0.900000E-01   1.00800           0
      5723 MEMB     57       POPC     C215     CTL2    -0.180000       12.0110           0
      5724 MEMB     57       POPC     H15R     HAL2     0.900000E-01   1.00800           0
      5725 MEMB     57       POPC     H15S     HAL2     0.900000E-01   1.00800           0
      5726 MEMB     57       POPC     C216     CTL2    -0.180000       12.0110           0
      5727 MEMB     57       POPC     H16R     HAL2     0.900000E-01   1.00800           0
      5728 MEMB     57       POPC     H16S     HAL2     0.900000E-01   1.00800           0
      5729 MEMB     57       POPC     C217     CTL2    -0.180000       12.0110           0
      5730 MEMB     57       POPC     H17R     HAL2     0.900000E-01   1.00800           0
      5731 MEMB     57       POPC     H17S     HAL2     0.900000E-01   1.00800           0
      5732 MEMB     57       POPC     C218     CTL3    -0.270000       12.0110           0
      5733 MEMB     57       POPC     H18R     HAL3     0.900000E-01   1.00800           0
      5734 MEMB     57       POPC     H18S     HAL3     0.900000E-01   1.00800           0
      5735 MEMB     57       POPC     H18T     HAL3     0.900000E-01   1.00800           0
      5736 MEMB     57       POPC     C33      CTL2    -0.180000       12.0110           0
      5737 MEMB     57       POPC     H3X      HAL2     0.900000E-01   1.00800           0
      5738 MEMB     57       POPC     H3Y      HAL2     0.900000E-01   1.00800           0
      5739 MEMB     57       POPC     C34      CTL2    -0.180000       12.0110           0
      5740 MEMB     57       POPC     H4X      HAL2     0.900000E-01   1.00800           0
      5741 MEMB     57       POPC     H4Y      HAL2     0.900000E-01   1.00800           0
      5742 MEMB     57       POPC     C35      CTL2    -0.180000       12.0110           0
      5743 MEMB     57       POPC     H5X      HAL2     0.900000E-01   1.00800           0
      5744 MEMB     57       POPC     H5Y      HAL2     0.900000E-01   1.00800           0
      5745 MEMB     57       POPC     C36      CTL2    -0.180000       12.0110           0
      5746 MEMB     57       POPC     H6X      HAL2     0.900000E-01   1.00800           0
      5747 MEMB     57       POPC     H6Y      HAL2     0.900000E-01   1.00800           0
      5748 MEMB     57       POPC     C37      CTL2    -0.180000       12.0110           0
      5749 MEMB     57       POPC     H7X      HAL2     0.900000E-01   1.00800           0
      5750 MEMB     57       POPC     H7Y      HAL2     0.900000E-01   1.00800           0
      5751 MEMB     57       POPC     C38      CTL2    -0.180000       12.0110           0
      5752 MEMB     57       POPC     H8X      HAL2     0.900000E-01   1.00800           0
      5753 MEMB     57       POPC     H8Y      HAL2     0.900000E-01   1.00800           0
      5754 MEMB     57       POPC     C39      CTL2    -0.180000       12.0110           0
      5755 MEMB     57       POPC     H9X      HAL2     0.900000E-01   1.00800           0
      5756 MEMB     57       POPC     H9Y      HAL2     0.900000E-01   1.00800           0
      5757 MEMB     57       POPC     C310     CTL2    -0.180000       12.0110           0
      5758 MEMB     57       POPC     H10X     HAL2     0.900000E-01   1.00800           0
      5759 MEMB     57       POPC     H10Y     HAL2     0.900000E-01   1.00800           0
      5760 MEMB     57       POPC     C311     CTL2    -0.180000       12.0110           0
      5761 MEMB     57       POPC     H11X     HAL2     0.900000E-01   1.00800           0
      5762 MEMB     57       POPC     H11Y     HAL2     0.900000E-01   1.00800           0
      5763 MEMB     57       POPC     C312     CTL2    -0.180000       12.0110           0
      5764 MEMB     57       POPC     H12X     HAL2     0.900000E-01   1.00800           0
      5765 MEMB     57       POPC     H12Y     HAL2     0.900000E-01   1.00800           0
      5766 MEMB     57       POPC     C313     CTL2    -0.180000       12.0110           0
      5767 MEMB     57       POPC     H13X     HAL2     0.900000E-01   1.00800           0
      5768 MEMB     57       POPC     H13Y     HAL2     0.900000E-01   1.00800           0
      5769 MEMB     57       POPC     C314     CTL2    -0.180000       12.0110           0
      5770 MEMB     57       POPC     H14X     HAL2     0.900000E-01   1.00800           0
      5771 MEMB     57       POPC     H14Y     HAL2     0.900000E-01   1.00800           0
      5772 MEMB     57       POPC     C315     CTL2    -0.180000       12.0110           0
      5773 MEMB     57       POPC     H15X     HAL2     0.900000E-01   1.00800           0
      5774 MEMB     57       POPC     H15Y     HAL2     0.900000E-01   1.00800           0
      5775 MEMB     57       POPC     C316     CTL3    -0.270000       12.0110           0
      5776 MEMB     57       POPC     H16X     HAL3     0.900000E-01   1.00800           0
      5777 MEMB     57       POPC     H16Y     HAL3     0.900000E-01   1.00800           0
      5778 MEMB     57       POPC     H16Z     HAL3     0.900000E-01   1.00800           0
      5779 MEMB     58       POPC     N        NTL     -0.600000       14.0070           0
      5780 MEMB     58       POPC     C12      CTL2    -0.100000       12.0110           0
      5781 MEMB     58       POPC     H12A     HL       0.250000       1.00800           0
      5782 MEMB     58       POPC     H12B     HL       0.250000       1.00800           0
      5783 MEMB     58       POPC     C13      CTL5    -0.350000       12.0110           0
      5784 MEMB     58       POPC     H13A     HL       0.250000       1.00800           0
      5785 MEMB     58       POPC     H13B     HL       0.250000       1.00800           0
      5786 MEMB     58       POPC     H13C     HL       0.250000       1.00800           0
      5787 MEMB     58       POPC     C14      CTL5    -0.350000       12.0110           0
      5788 MEMB     58       POPC     H14A     HL       0.250000       1.00800           0
      5789 MEMB     58       POPC     H14B     HL       0.250000       1.00800           0
      5790 MEMB     58       POPC     H14C     HL       0.250000       1.00800           0
      5791 MEMB     58       POPC     C15      CTL5    -0.350000       12.0110           0
      5792 MEMB     58       POPC     H15A     HL       0.250000       1.00800           0
      5793 MEMB     58       POPC     H15B     HL       0.250000       1.00800           0
      5794 MEMB     58       POPC     H15C     HL       0.250000       1.00800           0
      5795 MEMB     58       POPC     C11      CTL2    -0.800000E-01   12.0110           0
      5796 MEMB     58       POPC     H11A     HAL2     0.900000E-01   1.00800           0
      5797 MEMB     58       POPC     H11B     HAL2     0.900000E-01   1.00800           0
      5798 MEMB     58       POPC     P        PL        1.50000       30.9740           0
      5799 MEMB     58       POPC     O13      O2L     -0.780000       15.9994           0
      5800 MEMB     58       POPC     O14      O2L     -0.780000       15.9994           0
      5801 MEMB     58       POPC     O12      OSLP    -0.570000       15.9994           0
      5802 MEMB     58       POPC     O11      OSLP    -0.570000       15.9994           0
      5803 MEMB     58       POPC     C1       CTL2    -0.800000E-01   12.0110           0
      5804 MEMB     58       POPC     HA       HAL2     0.900000E-01   1.00800           0
      5805 MEMB     58       POPC     HB       HAL2     0.900000E-01   1.00800           0
      5806 MEMB     58       POPC     C2       CTL1     0.170000       12.0110           0
      5807 MEMB     58       POPC     HS       HAL1     0.900000E-01   1.00800           0
      5808 MEMB     58       POPC     O21      OSL     -0.490000       15.9994           0
      5809 MEMB     58       POPC     C21      CL       0.900000       12.0110           0
      5810 MEMB     58       POPC     O22      OBL     -0.630000       15.9994           0
      5811 MEMB     58       POPC     C22      CTL2    -0.220000       12.0110           0
      5812 MEMB     58       POPC     H2R      HAL2     0.900000E-01   1.00800           0
      5813 MEMB     58       POPC     H2S      HAL2     0.900000E-01   1.00800           0
      5814 MEMB     58       POPC     C3       CTL2     0.800000E-01   12.0110           0
      5815 MEMB     58       POPC     HX       HAL2     0.900000E-01   1.00800           0
      5816 MEMB     58       POPC     HY       HAL2     0.900000E-01   1.00800           0
      5817 MEMB     58       POPC     O31      OSL     -0.490000       15.9994           0
      5818 MEMB     58       POPC     C31      CL       0.900000       12.0110           0
      5819 MEMB     58       POPC     O32      OBL     -0.630000       15.9994           0
      5820 MEMB     58       POPC     C32      CTL2    -0.220000       12.0110           0
      5821 MEMB     58       POPC     H2X      HAL2     0.900000E-01   1.00800           0
      5822 MEMB     58       POPC     H2Y      HAL2     0.900000E-01   1.00800           0
      5823 MEMB     58       POPC     C23      CTL2    -0.180000       12.0110           0
      5824 MEMB     58       POPC     H3R      HAL2     0.900000E-01   1.00800           0
      5825 MEMB     58       POPC     H3S      HAL2     0.900000E-01   1.00800           0
      5826 MEMB     58       POPC     C24      CTL2    -0.180000       12.0110           0
      5827 MEMB     58       POPC     H4R      HAL2     0.900000E-01   1.00800           0
      5828 MEMB     58       POPC     H4S      HAL2     0.900000E-01   1.00800           0
      5829 MEMB     58       POPC     C25      CTL2    -0.180000       12.0110           0
      5830 MEMB     58       POPC     H5R      HAL2     0.900000E-01   1.00800           0
      5831 MEMB     58       POPC     H5S      HAL2     0.900000E-01   1.00800           0
      5832 MEMB     58       POPC     C26      CTL2    -0.180000       12.0110           0
      5833 MEMB     58       POPC     H6R      HAL2     0.900000E-01   1.00800           0
      5834 MEMB     58       POPC     H6S      HAL2     0.900000E-01   1.00800           0
      5835 MEMB     58       POPC     C27      CTL2    -0.180000       12.0110           0
      5836 MEMB     58       POPC     H7R      HAL2     0.900000E-01   1.00800           0
      5837 MEMB     58       POPC     H7S      HAL2     0.900000E-01   1.00800           0
      5838 MEMB     58       POPC     C28      CTL2    -0.180000       12.0110           0
      5839 MEMB     58       POPC     H8R      HAL2     0.900000E-01   1.00800           0
      5840 MEMB     58       POPC     H8S      HAL2     0.900000E-01   1.00800           0
      5841 MEMB     58       POPC     C29      CEL1    -0.150000       12.0110           0
      5842 MEMB     58       POPC     H91      HEL1     0.150000       1.00800           0
      5843 MEMB     58       POPC     C210     CEL1    -0.150000       12.0110           0
      5844 MEMB     58       POPC     H101     HEL1     0.150000       1.00800           0
      5845 MEMB     58       POPC     C211     CTL2    -0.180000       12.0110           0
      5846 MEMB     58       POPC     H11R     HAL2     0.900000E-01   1.00800           0
      5847 MEMB     58       POPC     H11S     HAL2     0.900000E-01   1.00800           0
      5848 MEMB     58       POPC     C212     CTL2    -0.180000       12.0110           0
      5849 MEMB     58       POPC     H12R     HAL2     0.900000E-01   1.00800           0
      5850 MEMB     58       POPC     H12S     HAL2     0.900000E-01   1.00800           0
      5851 MEMB     58       POPC     C213     CTL2    -0.180000       12.0110           0
      5852 MEMB     58       POPC     H13R     HAL2     0.900000E-01   1.00800           0
      5853 MEMB     58       POPC     H13S     HAL2     0.900000E-01   1.00800           0
      5854 MEMB     58       POPC     C214     CTL2    -0.180000       12.0110           0
      5855 MEMB     58       POPC     H14R     HAL2     0.900000E-01   1.00800           0
      5856 MEMB     58       POPC     H14S     HAL2     0.900000E-01   1.00800           0
      5857 MEMB     58       POPC     C215     CTL2    -0.180000       12.0110           0
      5858 MEMB     58       POPC     H15R     HAL2     0.900000E-01   1.00800           0
      5859 MEMB     58       POPC     H15S     HAL2     0.900000E-01   1.00800           0
      5860 MEMB     58       POPC     C216     CTL2    -0.180000       12.0110           0
      5861 MEMB     58       POPC     H16R     HAL2     0.900000E-01   1.00800           0
      5862 MEMB     58       POPC     H16S     HAL2     0.900000E-01   1.00800           0
      5863 MEMB     58       POPC     C217     CTL2    -0.180000       12.0110           0
      5864 MEMB     58       POPC     H17R     HAL2     0.900000E-01   1.00800           0
      5865 MEMB     58       POPC     H17S     HAL2     0.900000E-01   1.00800           0
      5866 MEMB     58       POPC     C218     CTL3    -0.270000       12.0110           0
      5867 MEMB     58       POPC     H18R     HAL3     0.900000E-01   1.00800           0
      5868 MEMB     58       POPC     H18S     HAL3     0.900000E-01   1.00800           0
      5869 MEMB     58       POPC     H18T     HAL3     0.900000E-01   1.00800           0
      5870 MEMB     58       POPC     C33      CTL2    -0.180000       12.0110           0
      5871 MEMB     58       POPC     H3X      HAL2     0.900000E-01   1.00800           0
      5872 MEMB     58       POPC     H3Y      HAL2     0.900000E-01   1.00800           0
      5873 MEMB     58       POPC     C34      CTL2    -0.180000       12.0110           0
      5874 MEMB     58       POPC     H4X      HAL2     0.900000E-01   1.00800           0
      5875 MEMB     58       POPC     H4Y      HAL2     0.900000E-01   1.00800           0
      5876 MEMB     58       POPC     C35      CTL2    -0.180000       12.0110           0
      5877 MEMB     58       POPC     H5X      HAL2     0.900000E-01   1.00800           0
      5878 MEMB     58       POPC     H5Y      HAL2     0.900000E-01   1.00800           0
      5879 MEMB     58       POPC     C36      CTL2    -0.180000       12.0110           0
      5880 MEMB     58       POPC     H6X      HAL2     0.900000E-01   1.00800           0
      5881 MEMB     58       POPC     H6Y      HAL2     0.900000E-01   1.00800           0
      5882 MEMB     58       POPC     C37      CTL2    -0.180000       12.0110           0
      5883 MEMB     58       POPC     H7X      HAL2     0.900000E-01   1.00800           0
      5884 MEMB     58       POPC     H7Y      HAL2     0.900000E-01   1.00800           0
      5885 MEMB     58       POPC     C38      CTL2    -0.180000       12.0110           0
      5886 MEMB     58       POPC     H8X      HAL2     0.900000E-01   1.00800           0
      5887 MEMB     58       POPC     H8Y      HAL2     0.900000E-01   1.00800           0
      5888 MEMB     58       POPC     C39      CTL2    -0.180000       12.0110           0
      5889 MEMB     58       POPC     H9X      HAL2     0.900000E-01   1.00800           0
      5890 MEMB     58       POPC     H9Y      HAL2     0.900000E-01   1.00800           0
      5891 MEMB     58       POPC     C310     CTL2    -0.180000       12.0110           0
      5892 MEMB     58       POPC     H10X     HAL2     0.900000E-01   1.00800           0
      5893 MEMB     58       POPC     H10Y     HAL2     0.900000E-01   1.00800           0
      5894 MEMB     58       POPC     C311     CTL2    -0.180000       12.0110           0
      5895 MEMB     58       POPC     H11X     HAL2     0.900000E-01   1.00800           0
      5896 MEMB     58       POPC     H11Y     HAL2     0.900000E-01   1.00800           0
      5897 MEMB     58       POPC     C312     CTL2    -0.180000       12.0110           0
      5898 MEMB     58       POPC     H12X     HAL2     0.900000E-01   1.00800           0
      5899 MEMB     58       POPC     H12Y     HAL2     0.900000E-01   1.00800           0
      5900 MEMB     58       POPC     C313     CTL2    -0.180000       12.0110           0
      5901 MEMB     58       POPC     H13X     HAL2     0.900000E-01   1.00800           0
      5902 MEMB     58       POPC     H13Y     HAL2     0.900000E-01   1.00800           0
      5903 MEMB     58       POPC     C314     CTL2    -0.180000       12.0110           0
      5904 MEMB     58       POPC     H14X     HAL2     0.900000E-01   1.00800           0
      5905 MEMB     58       POPC     H14Y     HAL2     0.900000E-01   1.00800           0
      5906 MEMB     58       POPC     C315     CTL2    -0.180000       12.0110           0
      5907 MEMB     58       POPC     H15X     HAL2     0.900000E-01   1.00800           0
      5908 MEMB     58       POPC     H15Y     HAL2     0.900000E-01   1.00800           0
      5909 MEMB     58       POPC     C316     CTL3    -0.270000       12.0110           0
      5910 MEMB     58       POPC     H16X     HAL3     0.900000E-01   1.00800           0
      5911 MEMB     58       POPC     H16Y     HAL3     0.900000E-01   1.00800           0
      5912 MEMB     58       POPC     H16Z     HAL3     0.900000E-01   1.00800           0
      5913 MEMB     59       POPC     N        NTL     -0.600000       14.0070           0
      5914 MEMB     59       POPC     C12      CTL2    -0.100000       12.0110           0
      5915 MEMB     59       POPC     H12A     HL       0.250000       1.00800           0
      5916 MEMB     59       POPC     H12B     HL       0.250000       1.00800           0
      5917 MEMB     59       POPC     C13      CTL5    -0.350000       12.0110           0
      5918 MEMB     59       POPC     H13A     HL       0.250000       1.00800           0
      5919 MEMB     59       POPC     H13B     HL       0.250000       1.00800           0
      5920 MEMB     59       POPC     H13C     HL       0.250000       1.00800           0
      5921 MEMB     59       POPC     C14      CTL5    -0.350000       12.0110           0
      5922 MEMB     59       POPC     H14A     HL       0.250000       1.00800           0
      5923 MEMB     59       POPC     H14B     HL       0.250000       1.00800           0
      5924 MEMB     59       POPC     H14C     HL       0.250000       1.00800           0
      5925 MEMB     59       POPC     C15      CTL5    -0.350000       12.0110           0
      5926 MEMB     59       POPC     H15A     HL       0.250000       1.00800           0
      5927 MEMB     59       POPC     H15B     HL       0.250000       1.00800           0
      5928 MEMB     59       POPC     H15C     HL       0.250000       1.00800           0
      5929 MEMB     59       POPC     C11      CTL2    -0.800000E-01   12.0110           0
      5930 MEMB     59       POPC     H11A     HAL2     0.900000E-01   1.00800           0
      5931 MEMB     59       POPC     H11B     HAL2     0.900000E-01   1.00800           0
      5932 MEMB     59       POPC     P        PL        1.50000       30.9740           0
      5933 MEMB     59       POPC     O13      O2L     -0.780000       15.9994           0
      5934 MEMB     59       POPC     O14      O2L     -0.780000       15.9994           0
      5935 MEMB     59       POPC     O12      OSLP    -0.570000       15.9994           0
      5936 MEMB     59       POPC     O11      OSLP    -0.570000       15.9994           0
      5937 MEMB     59       POPC     C1       CTL2    -0.800000E-01   12.0110           0
      5938 MEMB     59       POPC     HA       HAL2     0.900000E-01   1.00800           0
      5939 MEMB     59       POPC     HB       HAL2     0.900000E-01   1.00800           0
      5940 MEMB     59       POPC     C2       CTL1     0.170000       12.0110           0
      5941 MEMB     59       POPC     HS       HAL1     0.900000E-01   1.00800           0
      5942 MEMB     59       POPC     O21      OSL     -0.490000       15.9994           0
      5943 MEMB     59       POPC     C21      CL       0.900000       12.0110           0
      5944 MEMB     59       POPC     O22      OBL     -0.630000       15.9994           0
      5945 MEMB     59       POPC     C22      CTL2    -0.220000       12.0110           0
      5946 MEMB     59       POPC     H2R      HAL2     0.900000E-01   1.00800           0
      5947 MEMB     59       POPC     H2S      HAL2     0.900000E-01   1.00800           0
      5948 MEMB     59       POPC     C3       CTL2     0.800000E-01   12.0110           0
      5949 MEMB     59       POPC     HX       HAL2     0.900000E-01   1.00800           0
      5950 MEMB     59       POPC     HY       HAL2     0.900000E-01   1.00800           0
      5951 MEMB     59       POPC     O31      OSL     -0.490000       15.9994           0
      5952 MEMB     59       POPC     C31      CL       0.900000       12.0110           0
      5953 MEMB     59       POPC     O32      OBL     -0.630000       15.9994           0
      5954 MEMB     59       POPC     C32      CTL2    -0.220000       12.0110           0
      5955 MEMB     59       POPC     H2X      HAL2     0.900000E-01   1.00800           0
      5956 MEMB     59       POPC     H2Y      HAL2     0.900000E-01   1.00800           0
      5957 MEMB     59       POPC     C23      CTL2    -0.180000       12.0110           0
      5958 MEMB     59       POPC     H3R      HAL2     0.900000E-01   1.00800           0
      5959 MEMB     59       POPC     H3S      HAL2     0.900000E-01   1.00800           0
      5960 MEMB     59       POPC     C24      CTL2    -0.180000       12.0110           0
      5961 MEMB     59       POPC     H4R      HAL2     0.900000E-01   1.00800           0
      5962 MEMB     59       POPC     H4S      HAL2     0.900000E-01   1.00800           0
      5963 MEMB     59       POPC     C25      CTL2    -0.180000       12.0110           0
      5964 MEMB     59       POPC     H5R      HAL2     0.900000E-01   1.00800           0
      5965 MEMB     59       POPC     H5S      HAL2     0.900000E-01   1.00800           0
      5966 MEMB     59       POPC     C26      CTL2    -0.180000       12.0110           0
      5967 MEMB     59       POPC     H6R      HAL2     0.900000E-01   1.00800           0
      5968 MEMB     59       POPC     H6S      HAL2     0.900000E-01   1.00800           0
      5969 MEMB     59       POPC     C27      CTL2    -0.180000       12.0110           0
      5970 MEMB     59       POPC     H7R      HAL2     0.900000E-01   1.00800           0
      5971 MEMB     59       POPC     H7S      HAL2     0.900000E-01   1.00800           0
      5972 MEMB     59       POPC     C28      CTL2    -0.180000       12.0110           0
      5973 MEMB     59       POPC     H8R      HAL2     0.900000E-01   1.00800           0
      5974 MEMB     59       POPC     H8S      HAL2     0.900000E-01   1.00800           0
      5975 MEMB     59       POPC     C29      CEL1    -0.150000       12.0110           0
      5976 MEMB     59       POPC     H91      HEL1     0.150000       1.00800           0
      5977 MEMB     59       POPC     C210     CEL1    -0.150000       12.0110           0
      5978 MEMB     59       POPC     H101     HEL1     0.150000       1.00800           0
      5979 MEMB     59       POPC     C211     CTL2    -0.180000       12.0110           0
      5980 MEMB     59       POPC     H11R     HAL2     0.900000E-01   1.00800           0
      5981 MEMB     59       POPC     H11S     HAL2     0.900000E-01   1.00800           0
      5982 MEMB     59       POPC     C212     CTL2    -0.180000       12.0110           0
      5983 MEMB     59       POPC     H12R     HAL2     0.900000E-01   1.00800           0
      5984 MEMB     59       POPC     H12S     HAL2     0.900000E-01   1.00800           0
      5985 MEMB     59       POPC     C213     CTL2    -0.180000       12.0110           0
      5986 MEMB     59       POPC     H13R     HAL2     0.900000E-01   1.00800           0
      5987 MEMB     59       POPC     H13S     HAL2     0.900000E-01   1.00800           0
      5988 MEMB     59       POPC     C214     CTL2    -0.180000       12.0110           0
      5989 MEMB     59       POPC     H14R     HAL2     0.900000E-01   1.00800           0
      5990 MEMB     59       POPC     H14S     HAL2     0.900000E-01   1.00800           0
      5991 MEMB     59       POPC     C215     CTL2    -0.180000       12.0110           0
      5992 MEMB     59       POPC     H15R     HAL2     0.900000E-01   1.00800           0
      5993 MEMB     59       POPC     H15S     HAL2     0.900000E-01   1.00800           0
      5994 MEMB     59       POPC     C216     CTL2    -0.180000       12.0110           0
      5995 MEMB     59       POPC     H16R     HAL2     0.900000E-01   1.00800           0
      5996 MEMB     59       POPC     H16S     HAL2     0.900000E-01   1.00800           0
      5997 MEMB     59       POPC     C217     CTL2    -0.180000       12.0110           0
      5998 MEMB     59       POPC     H17R     HAL2     0.900000E-01   1.00800           0
      5999 MEMB     59       POPC     H17S     HAL2     0.900000E-01   1.00800           0
      6000 MEMB     59       POPC     C218     CTL3    -0.270000       12.0110           0
      6001 MEMB     59       POPC     H18R     HAL3     0.900000E-01   1.00800           0
      6002 MEMB     59       POPC     H18S     HAL3     0.900000E-01   1.00800           0
      6003 MEMB     59       POPC     H18T     HAL3     0.900000E-01   1.00800           0
      6004 MEMB     59       POPC     C33      CTL2    -0.180000       12.0110           0
      6005 MEMB     59       POPC     H3X      HAL2     0.900000E-01   1.00800           0
      6006 MEMB     59       POPC     H3Y      HAL2     0.900000E-01   1.00800           0
      6007 MEMB     59       POPC     C34      CTL2    -0.180000       12.0110           0
      6008 MEMB     59       POPC     H4X      HAL2     0.900000E-01   1.00800           0
      6009 MEMB     59       POPC     H4Y      HAL2     0.900000E-01   1.00800           0
      6010 MEMB     59       POPC     C35      CTL2    -0.180000       12.0110           0
      6011 MEMB     59       POPC     H5X      HAL2     0.900000E-01   1.00800           0
      6012 MEMB     59       POPC     H5Y      HAL2     0.900000E-01   1.00800           0
      6013 MEMB     59       POPC     C36      CTL2    -0.180000       12.0110           0
      6014 MEMB     59       POPC     H6X      HAL2     0.900000E-01   1.00800           0
      6015 MEMB     59       POPC     H6Y      HAL2     0.900000E-01   1.00800           0
      6016 MEMB     59       POPC     C37      CTL2    -0.180000       12.0110           0
      6017 MEMB     59       POPC     H7X      HAL2     0.900000E-01   1.00800           0
      6018 MEMB     59       POPC     H7Y      HAL2     0.900000E-01   1.00800           0
      6019 MEMB     59       POPC     C38      CTL2    -0.180000       12.0110           0
      6020 MEMB     59       POPC     H8X      HAL2     0.900000E-01   1.00800           0
      6021 MEMB     59       POPC     H8Y      HAL2     0.900000E-01   1.00800           0
      6022 MEMB     59       POPC     C39      CTL2    -0.180000       12.0110           0
      6023 MEMB     59       POPC     H9X      HAL2     0.900000E-01   1.00800           0
      6024 MEMB     59       POPC     H9Y      HAL2     0.900000E-01   1.00800           0
      6025 MEMB     59       POPC     C310     CTL2    -0.180000       12.0110           0
      6026 MEMB     59       POPC     H10X     HAL2     0.900000E-01   1.00800           0
      6027 MEMB     59       POPC     H10Y     HAL2     0.900000E-01   1.00800           0
      6028 MEMB     59       POPC     C311     CTL2    -0.180000       12.0110           0
      6029 MEMB     59       POPC     H11X     HAL2     0.900000E-01   1.00800           0
      6030 MEMB     59       POPC     H11Y     HAL2     0.900000E-01   1.00800           0
      6031 MEMB     59       POPC     C312     CTL2    -0.180000       12.0110           0
      6032 MEMB     59       POPC     H12X     HAL2     0.900000E-01   1.00800           0
      6033 MEMB     59       POPC     H12Y     HAL2     0.900000E-01   1.00800           0
      6034 MEMB     59       POPC     C313     CTL2    -0.180000       12.0110           0
      6035 MEMB     59       POPC     H13X     HAL2     0.900000E-01   1.00800           0
      6036 MEMB     59       POPC     H13Y     HAL2     0.900000E-01   1.00800           0
      6037 MEMB     59       POPC     C314     CTL2    -0.180000       12.0110           0
      6038 MEMB     59       POPC     H14X     HAL2     0.900000E-01   1.00800           0
      6039 MEMB     59       POPC     H14Y     HAL2     0.900000E-01   1.00800           0
      6040 MEMB     59       POPC     C315     CTL2    -0.180000       12.0110           0
      6041 MEMB     59       POPC     H15X     HAL2     0.900000E-01   1.00800           0
      6042 MEMB     59       POPC     H15Y     HAL2     0.900000E-01   1.00800           0
      6043 MEMB     59       POPC     C316     CTL3    -0.270000       12.0110           0
      6044 MEMB     59       POPC     H16X     HAL3     0.900000E-01   1.00800           0
      6045 MEMB     59       POPC     H16Y     HAL3     0.900000E-01   1.00800           0
      6046 MEMB     59       POPC     H16Z     HAL3     0.900000E-01   1.00800           0
      6047 MEMB     60       POPC     N        NTL     -0.600000       14.0070           0
      6048 MEMB     60       POPC     C12      CTL2    -0.100000       12.0110           0
      6049 MEMB     60       POPC     H12A     HL       0.250000       1.00800           0
      6050 MEMB     60       POPC     H12B     HL       0.250000       1.00800           0
      6051 MEMB     60       POPC     C13      CTL5    -0.350000       12.0110           0
      6052 MEMB     60       POPC     H13A     HL       0.250000       1.00800           0
      6053 MEMB     60       POPC     H13B     HL       0.250000       1.00800           0
      6054 MEMB     60       POPC     H13C     HL       0.250000       1.00800           0
      6055 MEMB     60       POPC     C14      CTL5    -0.350000       12.0110           0
      6056 MEMB     60       POPC     H14A     HL       0.250000       1.00800           0
      6057 MEMB     60       POPC     H14B     HL       0.250000       1.00800           0
      6058 MEMB     60       POPC     H14C     HL       0.250000       1.00800           0
      6059 MEMB     60       POPC     C15      CTL5    -0.350000       12.0110           0
      6060 MEMB     60       POPC     H15A     HL       0.250000       1.00800           0
      6061 MEMB     60       POPC     H15B     HL       0.250000       1.00800           0
      6062 MEMB     60       POPC     H15C     HL       0.250000       1.00800           0
      6063 MEMB     60       POPC     C11      CTL2    -0.800000E-01   12.0110           0
      6064 MEMB     60       POPC     H11A     HAL2     0.900000E-01   1.00800           0
      6065 MEMB     60       POPC     H11B     HAL2     0.900000E-01   1.00800           0
      6066 MEMB     60       POPC     P        PL        1.50000       30.9740           0
      6067 MEMB     60       POPC     O13      O2L     -0.780000       15.9994           0
      6068 MEMB     60       POPC     O14      O2L     -0.780000       15.9994           0
      6069 MEMB     60       POPC     O12      OSLP    -0.570000       15.9994           0
      6070 MEMB     60       POPC     O11      OSLP    -0.570000       15.9994           0
      6071 MEMB     60       POPC     C1       CTL2    -0.800000E-01   12.0110           0
      6072 MEMB     60       POPC     HA       HAL2     0.900000E-01   1.00800           0
      6073 MEMB     60       POPC     HB       HAL2     0.900000E-01   1.00800           0
      6074 MEMB     60       POPC     C2       CTL1     0.170000       12.0110           0
      6075 MEMB     60       POPC     HS       HAL1     0.900000E-01   1.00800           0
      6076 MEMB     60       POPC     O21      OSL     -0.490000       15.9994           0
      6077 MEMB     60       POPC     C21      CL       0.900000       12.0110           0
      6078 MEMB     60       POPC     O22      OBL     -0.630000       15.9994           0
      6079 MEMB     60       POPC     C22      CTL2    -0.220000       12.0110           0
      6080 MEMB     60       POPC     H2R      HAL2     0.900000E-01   1.00800           0
      6081 MEMB     60       POPC     H2S      HAL2     0.900000E-01   1.00800           0
      6082 MEMB     60       POPC     C3       CTL2     0.800000E-01   12.0110           0
      6083 MEMB     60       POPC     HX       HAL2     0.900000E-01   1.00800           0
      6084 MEMB     60       POPC     HY       HAL2     0.900000E-01   1.00800           0
      6085 MEMB     60       POPC     O31      OSL     -0.490000       15.9994           0
      6086 MEMB     60       POPC     C31      CL       0.900000       12.0110           0
      6087 MEMB     60       POPC     O32      OBL     -0.630000       15.9994           0
      6088 MEMB     60       POPC     C32      CTL2    -0.220000       12.0110           0
      6089 MEMB     60       POPC     H2X      HAL2     0.900000E-01   1.00800           0
      6090 MEMB     60       POPC     H2Y      HAL2     0.900000E-01   1.00800           0
      6091 MEMB     60       POPC     C23      CTL2    -0.180000       12.0110           0
      6092 MEMB     60       POPC     H3R      HAL2     0.900000E-01   1.00800           0
      6093 MEMB     60       POPC     H3S      HAL2     0.900000E-01   1.00800           0
      6094 MEMB     60       POPC     C24      CTL2    -0.180000       12.0110           0
      6095 MEMB     60       POPC     H4R      HAL2     0.900000E-01   1.00800           0
      6096 MEMB     60       POPC     H4S      HAL2     0.900000E-01   1.00800           0
      6097 MEMB     60       POPC     C25      CTL2    -0.180000       12.0110           0
      6098 MEMB     60       POPC     H5R      HAL2     0.900000E-01   1.00800           0
      6099 MEMB     60       POPC     H5S      HAL2     0.900000E-01   1.00800           0
      6100 MEMB     60       POPC     C26      CTL2    -0.180000       12.0110           0
      6101 MEMB     60       POPC     H6R      HAL2     0.900000E-01   1.00800           0
      6102 MEMB     60       POPC     H6S      HAL2     0.900000E-01   1.00800           0
      6103 MEMB     60       POPC     C27      CTL2    -0.180000       12.0110           0
      6104 MEMB     60       POPC     H7R      HAL2     0.900000E-01   1.00800           0
      6105 MEMB     60       POPC     H7S      HAL2     0.900000E-01   1.00800           0
      6106 MEMB     60       POPC     C28      CTL2    -0.180000       12.0110           0
      6107 MEMB     60       POPC     H8R      HAL2     0.900000E-01   1.00800           0
      6108 MEMB     60       POPC     H8S      HAL2     0.900000E-01   1.00800           0
      6109 MEMB     60       POPC     C29      CEL1    -0.150000       12.0110           0
      6110 MEMB     60       POPC     H91      HEL1     0.150000       1.00800           0
      6111 MEMB     60       POPC     C210     CEL1    -0.150000       12.0110           0
      6112 MEMB     60       POPC     H101     HEL1     0.150000       1.00800           0
      6113 MEMB     60       POPC     C211     CTL2    -0.180000       12.0110           0
      6114 MEMB     60       POPC     H11R     HAL2     0.900000E-01   1.00800           0
      6115 MEMB     60       POPC     H11S     HAL2     0.900000E-01   1.00800           0
      6116 MEMB     60       POPC     C212     CTL2    -0.180000       12.0110           0
      6117 MEMB     60       POPC     H12R     HAL2     0.900000E-01   1.00800           0
      6118 MEMB     60       POPC     H12S     HAL2     0.900000E-01   1.00800           0
      6119 MEMB     60       POPC     C213     CTL2    -0.180000       12.0110           0
      6120 MEMB     60       POPC     H13R     HAL2     0.900000E-01   1.00800           0
      6121 MEMB     60       POPC     H13S     HAL2     0.900000E-01   1.00800           0
      6122 MEMB     60       POPC     C214     CTL2    -0.180000       12.0110           0
      6123 MEMB     60       POPC     H14R     HAL2     0.900000E-01   1.00800           0
      6124 MEMB     60       POPC     H14S     HAL2     0.900000E-01   1.00800           0
      6125 MEMB     60       POPC     C215     CTL2    -0.180000       12.0110           0
      6126 MEMB     60       POPC     H15R     HAL2     0.900000E-01   1.00800           0
      6127 MEMB     60       POPC     H15S     HAL2     0.900000E-01   1.00800           0
      6128 MEMB     60       POPC     C216     CTL2    -0.180000       12.0110           0
      6129 MEMB     60       POPC     H16R     HAL2     0.900000E-01   1.00800           0
      6130 MEMB     60       POPC     H16S     HAL2     0.900000E-01   1.00800           0
      6131 MEMB     60       POPC     C217     CTL2    -0.180000       12.0110           0
      6132 MEMB     60       POPC     H17R     HAL2     0.900000E-01   1.00800           0
      6133 MEMB     60       POPC     H17S     HAL2     0.900000E-01   1.00800           0
      6134 MEMB     60       POPC     C218     CTL3    -0.270000       12.0110           0
      6135 MEMB     60       POPC     H18R     HAL3     0.900000E-01   1.00800           0
      6136 MEMB     60       POPC     H18S     HAL3     0.900000E-01   1.00800           0
      6137 MEMB     60       POPC     H18T     HAL3     0.900000E-01   1.00800           0
      6138 MEMB     60       POPC     C33      CTL2    -0.180000       12.0110           0
      6139 MEMB     60       POPC     H3X      HAL2     0.900000E-01   1.00800           0
      6140 MEMB     60       POPC     H3Y      HAL2     0.900000E-01   1.00800           0
      6141 MEMB     60       POPC     C34      CTL2    -0.180000       12.0110           0
      6142 MEMB     60       POPC     H4X      HAL2     0.900000E-01   1.00800           0
      6143 MEMB     60       POPC     H4Y      HAL2     0.900000E-01   1.00800           0
      6144 MEMB     60       POPC     C35      CTL2    -0.180000       12.0110           0
      6145 MEMB     60       POPC     H5X      HAL2     0.900000E-01   1.00800           0
      6146 MEMB     60       POPC     H5Y      HAL2     0.900000E-01   1.00800           0
      6147 MEMB     60       POPC     C36      CTL2    -0.180000       12.0110           0
      6148 MEMB     60       POPC     H6X      HAL2     0.900000E-01   1.00800           0
      6149 MEMB     60       POPC     H6Y      HAL2     0.900000E-01   1.00800           0
      6150 MEMB     60       POPC     C37      CTL2    -0.180000       12.0110           0
      6151 MEMB     60       POPC     H7X      HAL2     0.900000E-01   1.00800           0
      6152 MEMB     60       POPC     H7Y      HAL2     0.900000E-01   1.00800           0
      6153 MEMB     60       POPC     C38      CTL2    -0.180000       12.0110           0
      6154 MEMB     60       POPC     H8X      HAL2     0.900000E-01   1.00800           0
      6155 MEMB     60       POPC     H8Y      HAL2     0.900000E-01   1.00800           0
      6156 MEMB     60       POPC     C39      CTL2    -0.180000       12.0110           0
      6157 MEMB     60       POPC     H9X      HAL2     0.900000E-01   1.00800           0
      6158 MEMB     60       POPC     H9Y      HAL2     0.900000E-01   1.00800           0
      6159 MEMB     60       POPC     C310     CTL2    -0.180000       12.0110           0
      6160 MEMB     60       POPC     H10X     HAL2     0.900000E-01   1.00800           0
      6161 MEMB     60       POPC     H10Y     HAL2     0.900000E-01   1.00800           0
      6162 MEMB     60       POPC     C311     CTL2    -0.180000       12.0110           0
      6163 MEMB     60       POPC     H11X     HAL2     0.900000E-01   1.00800           0
      6164 MEMB     60       POPC     H11Y     HAL2     0.900000E-01   1.00800           0
      6165 MEMB     60       POPC     C312     CTL2    -0.180000       12.0110           0
      6166 MEMB     60       POPC     H12X     HAL2     0.900000E-01   1.00800           0
      6167 MEMB     60       POPC     H12Y     HAL2     0.900000E-01   1.00800           0
      6168 MEMB     60       POPC     C313     CTL2    -0.180000       12.0110           0
      6169 MEMB     60       POPC     H13X     HAL2     0.900000E-01   1.00800           0
      6170 MEMB     60       POPC     H13Y     HAL2     0.900000E-01   1.00800           0
      6171 MEMB     60       POPC     C314     CTL2    -0.180000       12.0110           0
      6172 MEMB     60       POPC     H14X     HAL2     0.900000E-01   1.00800           0
      6173 MEMB     60       POPC     H14Y     HAL2     0.900000E-01   1.00800           0
      6174 MEMB     60       POPC     C315     CTL2    -0.180000       12.0110           0
      6175 MEMB     60       POPC     H15X     HAL2     0.900000E-01   1.00800           0
      6176 MEMB     60       POPC     H15Y     HAL2     0.900000E-01   1.00800           0
      6177 MEMB     60       POPC     C316     CTL3    -0.270000       12.0110           0
      6178 MEMB     60       POPC     H16X     HAL3     0.900000E-01   1.00800           0
      6179 MEMB     60       POPC     H16Y     HAL3     0.900000E-01   1.00800           0
      6180 MEMB     60       POPC     H16Z     HAL3     0.900000E-01   1.00800           0
      6181 MEMB     61       POPC     N        NTL     -0.600000       14.0070           0
      6182 MEMB     61       POPC     C12      CTL2    -0.100000       12.0110           0
      6183 MEMB     61       POPC     H12A     HL       0.250000       1.00800           0
      6184 MEMB     61       POPC     H12B     HL       0.250000       1.00800           0
      6185 MEMB     61       POPC     C13      CTL5    -0.350000       12.0110           0
      6186 MEMB     61       POPC     H13A     HL       0.250000       1.00800           0
      6187 MEMB     61       POPC     H13B     HL       0.250000       1.00800           0
      6188 MEMB     61       POPC     H13C     HL       0.250000       1.00800           0
      6189 MEMB     61       POPC     C14      CTL5    -0.350000       12.0110           0
      6190 MEMB     61       POPC     H14A     HL       0.250000       1.00800           0
      6191 MEMB     61       POPC     H14B     HL       0.250000       1.00800           0
      6192 MEMB     61       POPC     H14C     HL       0.250000       1.00800           0
      6193 MEMB     61       POPC     C15      CTL5    -0.350000       12.0110           0
      6194 MEMB     61       POPC     H15A     HL       0.250000       1.00800           0
      6195 MEMB     61       POPC     H15B     HL       0.250000       1.00800           0
      6196 MEMB     61       POPC     H15C     HL       0.250000       1.00800           0
      6197 MEMB     61       POPC     C11      CTL2    -0.800000E-01   12.0110           0
      6198 MEMB     61       POPC     H11A     HAL2     0.900000E-01   1.00800           0
      6199 MEMB     61       POPC     H11B     HAL2     0.900000E-01   1.00800           0
      6200 MEMB     61       POPC     P        PL        1.50000       30.9740           0
      6201 MEMB     61       POPC     O13      O2L     -0.780000       15.9994           0
      6202 MEMB     61       POPC     O14      O2L     -0.780000       15.9994           0
      6203 MEMB     61       POPC     O12      OSLP    -0.570000       15.9994           0
      6204 MEMB     61       POPC     O11      OSLP    -0.570000       15.9994           0
      6205 MEMB     61       POPC     C1       CTL2    -0.800000E-01   12.0110           0
      6206 MEMB     61       POPC     HA       HAL2     0.900000E-01   1.00800           0
      6207 MEMB     61       POPC     HB       HAL2     0.900000E-01   1.00800           0
      6208 MEMB     61       POPC     C2       CTL1     0.170000       12.0110           0
      6209 MEMB     61       POPC     HS       HAL1     0.900000E-01   1.00800           0
      6210 MEMB     61       POPC     O21      OSL     -0.490000       15.9994           0
      6211 MEMB     61       POPC     C21      CL       0.900000       12.0110           0
      6212 MEMB     61       POPC     O22      OBL     -0.630000       15.9994           0
      6213 MEMB     61       POPC     C22      CTL2    -0.220000       12.0110           0
      6214 MEMB     61       POPC     H2R      HAL2     0.900000E-01   1.00800           0
      6215 MEMB     61       POPC     H2S      HAL2     0.900000E-01   1.00800           0
      6216 MEMB     61       POPC     C3       CTL2     0.800000E-01   12.0110           0
      6217 MEMB     61       POPC     HX       HAL2     0.900000E-01   1.00800           0
      6218 MEMB     61       POPC     HY       HAL2     0.900000E-01   1.00800           0
      6219 MEMB     61       POPC     O31      OSL     -0.490000       15.9994           0
      6220 MEMB     61       POPC     C31      CL       0.900000       12.0110           0
      6221 MEMB     61       POPC     O32      OBL     -0.630000       15.9994           0
      6222 MEMB     61       POPC     C32      CTL2    -0.220000       12.0110           0
      6223 MEMB     61       POPC     H2X      HAL2     0.900000E-01   1.00800           0
      6224 MEMB     61       POPC     H2Y      HAL2     0.900000E-01   1.00800           0
      6225 MEMB     61       POPC     C23      CTL2    -0.180000       12.0110           0
      6226 MEMB     61       POPC     H3R      HAL2     0.900000E-01   1.00800           0
      6227 MEMB     61       POPC     H3S      HAL2     0.900000E-01   1.00800           0
      6228 MEMB     61       POPC     C24      CTL2    -0.180000       12.0110           0
      6229 MEMB     61       POPC     H4R      HAL2     0.900000E-01   1.00800           0
      6230 MEMB     61       POPC     H4S      HAL2     0.900000E-01   1.00800           0
      6231 MEMB     61       POPC     C25      CTL2    -0.180000       12.0110           0
      6232 MEMB     61       POPC     H5R      HAL2     0.900000E-01   1.00800           0
      6233 MEMB     61       POPC     H5S      HAL2     0.900000E-01   1.00800           0
      6234 MEMB     61       POPC     C26      CTL2    -0.180000       12.0110           0
      6235 MEMB     61       POPC     H6R      HAL2     0.900000E-01   1.00800           0
      6236 MEMB     61       POPC     H6S      HAL2     0.900000E-01   1.00800           0
      6237 MEMB     61       POPC     C27      CTL2    -0.180000       12.0110           0
      6238 MEMB     61       POPC     H7R      HAL2     0.900000E-01   1.00800           0
      6239 MEMB     61       POPC     H7S      HAL2     0.900000E-01   1.00800           0
      6240 MEMB     61       POPC     C28      CTL2    -0.180000       12.0110           0
      6241 MEMB     61       POPC     H8R      HAL2     0.900000E-01   1.00800           0
      6242 MEMB     61       POPC     H8S      HAL2     0.900000E-01   1.00800           0
      6243 MEMB     61       POPC     C29      CEL1    -0.150000       12.0110           0
      6244 MEMB     61       POPC     H91      HEL1     0.150000       1.00800           0
      6245 MEMB     61       POPC     C210     CEL1    -0.150000       12.0110           0
      6246 MEMB     61       POPC     H101     HEL1     0.150000       1.00800           0
      6247 MEMB     61       POPC     C211     CTL2    -0.180000       12.0110           0
      6248 MEMB     61       POPC     H11R     HAL2     0.900000E-01   1.00800           0
      6249 MEMB     61       POPC     H11S     HAL2     0.900000E-01   1.00800           0
      6250 MEMB     61       POPC     C212     CTL2    -0.180000       12.0110           0
      6251 MEMB     61       POPC     H12R     HAL2     0.900000E-01   1.00800           0
      6252 MEMB     61       POPC     H12S     HAL2     0.900000E-01   1.00800           0
      6253 MEMB     61       POPC     C213     CTL2    -0.180000       12.0110           0
      6254 MEMB     61       POPC     H13R     HAL2     0.900000E-01   1.00800           0
      6255 MEMB     61       POPC     H13S     HAL2     0.900000E-01   1.00800           0
      6256 MEMB     61       POPC     C214     CTL2    -0.180000       12.0110           0
      6257 MEMB     61       POPC     H14R     HAL2     0.900000E-01   1.00800           0
      6258 MEMB     61       POPC     H14S     HAL2     0.900000E-01   1.00800           0
      6259 MEMB     61       POPC     C215     CTL2    -0.180000       12.0110           0
      6260 MEMB     61       POPC     H15R     HAL2     0.900000E-01   1.00800           0
      6261 MEMB     61       POPC     H15S     HAL2     0.900000E-01   1.00800           0
      6262 MEMB     61       POPC     C216     CTL2    -0.180000       12.0110           0
      6263 MEMB     61       POPC     H16R     HAL2     0.900000E-01   1.00800           0
      6264 MEMB     61       POPC     H16S     HAL2     0.900000E-01   1.00800           0
      6265 MEMB     61       POPC     C217     CTL2    -0.180000       12.0110           0
      6266 MEMB     61       POPC     H17R     HAL2     0.900000E-01   1.00800           0
      6267 MEMB     61       POPC     H17S     HAL2     0.900000E-01   1.00800           0
      6268 MEMB     61       POPC     C218     CTL3    -0.270000       12.0110           0
      6269 MEMB     61       POPC     H18R     HAL3     0.900000E-01   1.00800           0
      6270 MEMB     61       POPC     H18S     HAL3     0.900000E-01   1.00800           0
      6271 MEMB     61       POPC     H18T     HAL3     0.900000E-01   1.00800           0
      6272 MEMB     61       POPC     C33      CTL2    -0.180000       12.0110           0
      6273 MEMB     61       POPC     H3X      HAL2     0.900000E-01   1.00800           0
      6274 MEMB     61       POPC     H3Y      HAL2     0.900000E-01   1.00800           0
      6275 MEMB     61       POPC     C34      CTL2    -0.180000       12.0110           0
      6276 MEMB     61       POPC     H4X      HAL2     0.900000E-01   1.00800           0
      6277 MEMB     61       POPC     H4Y      HAL2     0.900000E-01   1.00800           0
      6278 MEMB     61       POPC     C35      CTL2    -0.180000       12.0110           0
      6279 MEMB     61       POPC     H5X      HAL2     0.900000E-01   1.00800           0
      6280 MEMB     61       POPC     H5Y      HAL2     0.900000E-01   1.00800           0
      6281 MEMB     61       POPC     C36      CTL2    -0.180000       12.0110           0
      6282 MEMB     61       POPC     H6X      HAL2     0.900000E-01   1.00800           0
      6283 MEMB     61       POPC     H6Y      HAL2     0.900000E-01   1.00800           0
      6284 MEMB     61       POPC     C37      CTL2    -0.180000       12.0110           0
      6285 MEMB     61       POPC     H7X      HAL2     0.900000E-01   1.00800           0
      6286 MEMB     61       POPC     H7Y      HAL2     0.900000E-01   1.00800           0
      6287 MEMB     61       POPC     C38      CTL2    -0.180000       12.0110           0
      6288 MEMB     61       POPC     H8X      HAL2     0.900000E-01   1.00800           0
      6289 MEMB     61       POPC     H8Y      HAL2     0.900000E-01   1.00800           0
      6290 MEMB     61       POPC     C39      CTL2    -0.180000       12.0110           0
      6291 MEMB     61       POPC     H9X      HAL2     0.900000E-01   1.00800           0
      6292 MEMB     61       POPC     H9Y      HAL2     0.900000E-01   1.00800           0
      6293 MEMB     61       POPC     C310     CTL2    -0.180000       12.0110           0
      6294 MEMB     61       POPC     H10X     HAL2     0.900000E-01   1.00800           0
      6295 MEMB     61       POPC     H10Y     HAL2     0.900000E-01   1.00800           0
      6296 MEMB     61       POPC     C311     CTL2    -0.180000       12.0110           0
      6297 MEMB     61       POPC     H11X     HAL2     0.900000E-01   1.00800           0
      6298 MEMB     61       POPC     H11Y     HAL2     0.900000E-01   1.00800           0
      6299 MEMB     61       POPC     C312     CTL2    -0.180000       12.0110           0
      6300 MEMB     61       POPC     H12X     HAL2     0.900000E-01   1.00800           0
      6301 MEMB     61       POPC     H12Y     HAL2     0.900000E-01   1.00800           0
      6302 MEMB     61       POPC     C313     CTL2    -0.180000       12.0110           0
      6303 MEMB     61       POPC     H13X     HAL2     0.900000E-01   1.00800           0
      6304 MEMB     61       POPC     H13Y     HAL2     0.900000E-01   1.00800           0
      6305 MEMB     61       POPC     C314     CTL2    -0.180000       12.0110           0
      6306 MEMB     61       POPC     H14X     HAL2     0.900000E-01   1.00800           0
      6307 MEMB     61       POPC     H14Y     HAL2     0.900000E-01   1.00800           0
      6308 MEMB     61       POPC     C315     CTL2    -0.180000       12.0110           0
      6309 MEMB     61       POPC     H15X     HAL2     0.900000E-01   1.00800           0
      6310 MEMB     61       POPC     H15Y     HAL2     0.900000E-01   1.00800           0
      6311 MEMB     61       POPC     C316     CTL3    -0.270000       12.0110           0
      6312 MEMB     61       POPC     H16X     HAL3     0.900000E-01   1.00800           0
      6313 MEMB     61       POPC     H16Y     HAL3     0.900000E-01   1.00800           0
      6314 MEMB     61       POPC     H16Z     HAL3     0.900000E-01   1.00800           0
      6315 MEMB     62       POPC     N        NTL     -0.600000       14.0070           0
      6316 MEMB     62       POPC     C12      CTL2    -0.100000       12.0110           0
      6317 MEMB     62       POPC     H12A     HL       0.250000       1.00800           0
      6318 MEMB     62       POPC     H12B     HL       0.250000       1.00800           0
      6319 MEMB     62       POPC     C13      CTL5    -0.350000       12.0110           0
      6320 MEMB     62       POPC     H13A     HL       0.250000       1.00800           0
      6321 MEMB     62       POPC     H13B     HL       0.250000       1.00800           0
      6322 MEMB     62       POPC     H13C     HL       0.250000       1.00800           0
      6323 MEMB     62       POPC     C14      CTL5    -0.350000       12.0110           0
      6324 MEMB     62       POPC     H14A     HL       0.250000       1.00800           0
      6325 MEMB     62       POPC     H14B     HL       0.250000       1.00800           0
      6326 MEMB     62       POPC     H14C     HL       0.250000       1.00800           0
      6327 MEMB     62       POPC     C15      CTL5    -0.350000       12.0110           0
      6328 MEMB     62       POPC     H15A     HL       0.250000       1.00800           0
      6329 MEMB     62       POPC     H15B     HL       0.250000       1.00800           0
      6330 MEMB     62       POPC     H15C     HL       0.250000       1.00800           0
      6331 MEMB     62       POPC     C11      CTL2    -0.800000E-01   12.0110           0
      6332 MEMB     62       POPC     H11A     HAL2     0.900000E-01   1.00800           0
      6333 MEMB     62       POPC     H11B     HAL2     0.900000E-01   1.00800           0
      6334 MEMB     62       POPC     P        PL        1.50000       30.9740           0
      6335 MEMB     62       POPC     O13      O2L     -0.780000       15.9994           0
      6336 MEMB     62       POPC     O14      O2L     -0.780000       15.9994           0
      6337 MEMB     62       POPC     O12      OSLP    -0.570000       15.9994           0
      6338 MEMB     62       POPC     O11      OSLP    -0.570000       15.9994           0
      6339 MEMB     62       POPC     C1       CTL2    -0.800000E-01   12.0110           0
      6340 MEMB     62       POPC     HA       HAL2     0.900000E-01   1.00800           0
      6341 MEMB     62       POPC     HB       HAL2     0.900000E-01   1.00800           0
      6342 MEMB     62       POPC     C2       CTL1     0.170000       12.0110           0
      6343 MEMB     62       POPC     HS       HAL1     0.900000E-01   1.00800           0
      6344 MEMB     62       POPC     O21      OSL     -0.490000       15.9994           0
      6345 MEMB     62       POPC     C21      CL       0.900000       12.0110           0
      6346 MEMB     62       POPC     O22      OBL     -0.630000       15.9994           0
      6347 MEMB     62       POPC     C22      CTL2    -0.220000       12.0110           0
      6348 MEMB     62       POPC     H2R      HAL2     0.900000E-01   1.00800           0
      6349 MEMB     62       POPC     H2S      HAL2     0.900000E-01   1.00800           0
      6350 MEMB     62       POPC     C3       CTL2     0.800000E-01   12.0110           0
      6351 MEMB     62       POPC     HX       HAL2     0.900000E-01   1.00800           0
      6352 MEMB     62       POPC     HY       HAL2     0.900000E-01   1.00800           0
      6353 MEMB     62       POPC     O31      OSL     -0.490000       15.9994           0
      6354 MEMB     62       POPC     C31      CL       0.900000       12.0110           0
      6355 MEMB     62       POPC     O32      OBL     -0.630000       15.9994           0
      6356 MEMB     62       POPC     C32      CTL2    -0.220000       12.0110           0
      6357 MEMB     62       POPC     H2X      HAL2     0.900000E-01   1.00800           0
      6358 MEMB     62       POPC     H2Y      HAL2     0.900000E-01   1.00800           0
      6359 MEMB     62       POPC     C23      CTL2    -0.180000       12.0110           0
      6360 MEMB     62       POPC     H3R      HAL2     0.900000E-01   1.00800           0
      6361 MEMB     62       POPC     H3S      HAL2     0.900000E-01   1.00800           0
      6362 MEMB     62       POPC     C24      CTL2    -0.180000       12.0110           0
      6363 MEMB     62       POPC     H4R      HAL2     0.900000E-01   1.00800           0
      6364 MEMB     62       POPC     H4S      HAL2     0.900000E-01   1.00800           0
      6365 MEMB     62       POPC     C25      CTL2    -0.180000       12.0110           0
      6366 MEMB     62       POPC     H5R      HAL2     0.900000E-01   1.00800           0
      6367 MEMB     62       POPC     H5S      HAL2     0.900000E-01   1.00800           0
      6368 MEMB     62       POPC     C26      CTL2    -0.180000       12.0110           0
      6369 MEMB     62       POPC     H6R      HAL2     0.900000E-01   1.00800           0
      6370 MEMB     62       POPC     H6S      HAL2     0.900000E-01   1.00800           0
      6371 MEMB     62       POPC     C27      CTL2    -0.180000       12.0110           0
      6372 MEMB     62       POPC     H7R      HAL2     0.900000E-01   1.00800           0
      6373 MEMB     62       POPC     H7S      HAL2     0.900000E-01   1.00800           0
      6374 MEMB     62       POPC     C28      CTL2    -0.180000       12.0110           0
      6375 MEMB     62       POPC     H8R      HAL2     0.900000E-01   1.00800           0
      6376 MEMB     62       POPC     H8S      HAL2     0.900000E-01   1.00800           0
      6377 MEMB     62       POPC     C29      CEL1    -0.150000       12.0110           0
      6378 MEMB     62       POPC     H91      HEL1     0.150000       1.00800           0
      6379 MEMB     62       POPC     C210     CEL1    -0.150000       12.0110           0
      6380 MEMB     62       POPC     H101     HEL1     0.150000       1.00800           0
      6381 MEMB     62       POPC     C211     CTL2    -0.180000       12.0110           0
      6382 MEMB     62       POPC     H11R     HAL2     0.900000E-01   1.00800           0
      6383 MEMB     62       POPC     H11S     HAL2     0.900000E-01   1.00800           0
      6384 MEMB     62       POPC     C212     CTL2    -0.180000       12.0110           0
      6385 MEMB     62       POPC     H12R     HAL2     0.900000E-01   1.00800           0
      6386 MEMB     62       POPC     H12S     HAL2     0.900000E-01   1.00800           0
      6387 MEMB     62       POPC     C213     CTL2    -0.180000       12.0110           0
      6388 MEMB     62       POPC     H13R     HAL2     0.900000E-01   1.00800           0
      6389 MEMB     62       POPC     H13S     HAL2     0.900000E-01   1.00800           0
      6390 MEMB     62       POPC     C214     CTL2    -0.180000       12.0110           0
      6391 MEMB     62       POPC     H14R     HAL2     0.900000E-01   1.00800           0
      6392 MEMB     62       POPC     H14S     HAL2     0.900000E-01   1.00800           0
      6393 MEMB     62       POPC     C215     CTL2    -0.180000       12.0110           0
      6394 MEMB     62       POPC     H15R     HAL2     0.900000E-01   1.00800           0
      6395 MEMB     62       POPC     H15S     HAL2     0.900000E-01   1.00800           0
      6396 MEMB     62       POPC     C216     CTL2    -0.180000       12.0110           0
      6397 MEMB     62       POPC     H16R     HAL2     0.900000E-01   1.00800           0
      6398 MEMB     62       POPC     H16S     HAL2     0.900000E-01   1.00800           0
      6399 MEMB     62       POPC     C217     CTL2    -0.180000       12.0110           0
      6400 MEMB     62       POPC     H17R     HAL2     0.900000E-01   1.00800           0
      6401 MEMB     62       POPC     H17S     HAL2     0.900000E-01   1.00800           0
      6402 MEMB     62       POPC     C218     CTL3    -0.270000       12.0110           0
      6403 MEMB     62       POPC     H18R     HAL3     0.900000E-01   1.00800           0
      6404 MEMB     62       POPC     H18S     HAL3     0.900000E-01   1.00800           0
      6405 MEMB     62       POPC     H18T     HAL3     0.900000E-01   1.00800           0
      6406 MEMB     62       POPC     C33      CTL2    -0.180000       12.0110           0
      6407 MEMB     62       POPC     H3X      HAL2     0.900000E-01   1.00800           0
      6408 MEMB     62       POPC     H3Y      HAL2     0.900000E-01   1.00800           0
      6409 MEMB     62       POPC     C34      CTL2    -0.180000       12.0110           0
      6410 MEMB     62       POPC     H4X      HAL2     0.900000E-01   1.00800           0
      6411 MEMB     62       POPC     H4Y      HAL2     0.900000E-01   1.00800           0
      6412 MEMB     62       POPC     C35      CTL2    -0.180000       12.0110           0
      6413 MEMB     62       POPC     H5X      HAL2     0.900000E-01   1.00800           0
      6414 MEMB     62       POPC     H5Y      HAL2     0.900000E-01   1.00800           0
      6415 MEMB     62       POPC     C36      CTL2    -0.180000       12.0110           0
      6416 MEMB     62       POPC     H6X      HAL2     0.900000E-01   1.00800           0
      6417 MEMB     62       POPC     H6Y      HAL2     0.900000E-01   1.00800           0
      6418 MEMB     62       POPC     C37      CTL2    -0.180000       12.0110           0
      6419 MEMB     62       POPC     H7X      HAL2     0.900000E-01   1.00800           0
      6420 MEMB     62       POPC     H7Y      HAL2     0.900000E-01   1.00800           0
      6421 MEMB     62       POPC     C38      CTL2    -0.180000       12.0110           0
      6422 MEMB     62       POPC     H8X      HAL2     0.900000E-01   1.00800           0
      6423 MEMB     62       POPC     H8Y      HAL2     0.900000E-01   1.00800           0
      6424 MEMB     62       POPC     C39      CTL2    -0.180000       12.0110           0
      6425 MEMB     62       POPC     H9X      HAL2     0.900000E-01   1.00800           0
      6426 MEMB     62       POPC     H9Y      HAL2     0.900000E-01   1.00800           0
      6427 MEMB     62       POPC     C310     CTL2    -0.180000       12.0110           0
      6428 MEMB     62       POPC     H10X     HAL2     0.900000E-01   1.00800           0
      6429 MEMB     62       POPC     H10Y     HAL2     0.900000E-01   1.00800           0
      6430 MEMB     62       POPC     C311     CTL2    -0.180000       12.0110           0
      6431 MEMB     62       POPC     H11X     HAL2     0.900000E-01   1.00800           0
      6432 MEMB     62       POPC     H11Y     HAL2     0.900000E-01   1.00800           0
      6433 MEMB     62       POPC     C312     CTL2    -0.180000       12.0110           0
      6434 MEMB     62       POPC     H12X     HAL2     0.900000E-01   1.00800           0
      6435 MEMB     62       POPC     H12Y     HAL2     0.900000E-01   1.00800           0
      6436 MEMB     62       POPC     C313     CTL2    -0.180000       12.0110           0
      6437 MEMB     62       POPC     H13X     HAL2     0.900000E-01   1.00800           0
      6438 MEMB     62       POPC     H13Y     HAL2     0.900000E-01   1.00800           0
      6439 MEMB     62       POPC     C314     CTL2    -0.180000       12.0110           0
      6440 MEMB     62       POPC     H14X     HAL2     0.900000E-01   1.00800           0
      6441 MEMB     62       POPC     H14Y     HAL2     0.900000E-01   1.00800           0
      6442 MEMB     62       POPC     C315     CTL2    -0.180000       12.0110           0
      6443 MEMB     62       POPC     H15X     HAL2     0.900000E-01   1.00800           0
      6444 MEMB     62       POPC     H15Y     HAL2     0.900000E-01   1.00800           0
      6445 MEMB     62       POPC     C316     CTL3    -0.270000       12.0110           0
      6446 MEMB     62       POPC     H16X     HAL3     0.900000E-01   1.00800           0
      6447 MEMB     62       POPC     H16Y     HAL3     0.900000E-01   1.00800           0
      6448 MEMB     62       POPC     H16Z     HAL3     0.900000E-01   1.00800           0
      6449 MEMB     63       POPC     N        NTL     -0.600000       14.0070           0
      6450 MEMB     63       POPC     C12      CTL2    -0.100000       12.0110           0
      6451 MEMB     63       POPC     H12A     HL       0.250000       1.00800           0
      6452 MEMB     63       POPC     H12B     HL       0.250000       1.00800           0
      6453 MEMB     63       POPC     C13      CTL5    -0.350000       12.0110           0
      6454 MEMB     63       POPC     H13A     HL       0.250000       1.00800           0
      6455 MEMB     63       POPC     H13B     HL       0.250000       1.00800           0
      6456 MEMB     63       POPC     H13C     HL       0.250000       1.00800           0
      6457 MEMB     63       POPC     C14      CTL5    -0.350000       12.0110           0
      6458 MEMB     63       POPC     H14A     HL       0.250000       1.00800           0
      6459 MEMB     63       POPC     H14B     HL       0.250000       1.00800           0
      6460 MEMB     63       POPC     H14C     HL       0.250000       1.00800           0
      6461 MEMB     63       POPC     C15      CTL5    -0.350000       12.0110           0
      6462 MEMB     63       POPC     H15A     HL       0.250000       1.00800           0
      6463 MEMB     63       POPC     H15B     HL       0.250000       1.00800           0
      6464 MEMB     63       POPC     H15C     HL       0.250000       1.00800           0
      6465 MEMB     63       POPC     C11      CTL2    -0.800000E-01   12.0110           0
      6466 MEMB     63       POPC     H11A     HAL2     0.900000E-01   1.00800           0
      6467 MEMB     63       POPC     H11B     HAL2     0.900000E-01   1.00800           0
      6468 MEMB     63       POPC     P        PL        1.50000       30.9740           0
      6469 MEMB     63       POPC     O13      O2L     -0.780000       15.9994           0
      6470 MEMB     63       POPC     O14      O2L     -0.780000       15.9994           0
      6471 MEMB     63       POPC     O12      OSLP    -0.570000       15.9994           0
      6472 MEMB     63       POPC     O11      OSLP    -0.570000       15.9994           0
      6473 MEMB     63       POPC     C1       CTL2    -0.800000E-01   12.0110           0
      6474 MEMB     63       POPC     HA       HAL2     0.900000E-01   1.00800           0
      6475 MEMB     63       POPC     HB       HAL2     0.900000E-01   1.00800           0
      6476 MEMB     63       POPC     C2       CTL1     0.170000       12.0110           0
      6477 MEMB     63       POPC     HS       HAL1     0.900000E-01   1.00800           0
      6478 MEMB     63       POPC     O21      OSL     -0.490000       15.9994           0
      6479 MEMB     63       POPC     C21      CL       0.900000       12.0110           0
      6480 MEMB     63       POPC     O22      OBL     -0.630000       15.9994           0
      6481 MEMB     63       POPC     C22      CTL2    -0.220000       12.0110           0
      6482 MEMB     63       POPC     H2R      HAL2     0.900000E-01   1.00800           0
      6483 MEMB     63       POPC     H2S      HAL2     0.900000E-01   1.00800           0
      6484 MEMB     63       POPC     C3       CTL2     0.800000E-01   12.0110           0
      6485 MEMB     63       POPC     HX       HAL2     0.900000E-01   1.00800           0
      6486 MEMB     63       POPC     HY       HAL2     0.900000E-01   1.00800           0
      6487 MEMB     63       POPC     O31      OSL     -0.490000       15.9994           0
      6488 MEMB     63       POPC     C31      CL       0.900000       12.0110           0
      6489 MEMB     63       POPC     O32      OBL     -0.630000       15.9994           0
      6490 MEMB     63       POPC     C32      CTL2    -0.220000       12.0110           0
      6491 MEMB     63       POPC     H2X      HAL2     0.900000E-01   1.00800           0
      6492 MEMB     63       POPC     H2Y      HAL2     0.900000E-01   1.00800           0
      6493 MEMB     63       POPC     C23      CTL2    -0.180000       12.0110           0
      6494 MEMB     63       POPC     H3R      HAL2     0.900000E-01   1.00800           0
      6495 MEMB     63       POPC     H3S      HAL2     0.900000E-01   1.00800           0
      6496 MEMB     63       POPC     C24      CTL2    -0.180000       12.0110           0
      6497 MEMB     63       POPC     H4R      HAL2     0.900000E-01   1.00800           0
      6498 MEMB     63       POPC     H4S      HAL2     0.900000E-01   1.00800           0
      6499 MEMB     63       POPC     C25      CTL2    -0.180000       12.0110           0
      6500 MEMB     63       POPC     H5R      HAL2     0.900000E-01   1.00800           0
      6501 MEMB     63       POPC     H5S      HAL2     0.900000E-01   1.00800           0
      6502 MEMB     63       POPC     C26      CTL2    -0.180000       12.0110           0
      6503 MEMB     63       POPC     H6R      HAL2     0.900000E-01   1.00800           0
      6504 MEMB     63       POPC     H6S      HAL2     0.900000E-01   1.00800           0
      6505 MEMB     63       POPC     C27      CTL2    -0.180000       12.0110           0
      6506 MEMB     63       POPC     H7R      HAL2     0.900000E-01   1.00800           0
      6507 MEMB     63       POPC     H7S      HAL2     0.900000E-01   1.00800           0
      6508 MEMB     63       POPC     C28      CTL2    -0.180000       12.0110           0
      6509 MEMB     63       POPC     H8R      HAL2     0.900000E-01   1.00800           0
      6510 MEMB     63       POPC     H8S      HAL2     0.900000E-01   1.00800           0
      6511 MEMB     63       POPC     C29      CEL1    -0.150000       12.0110           0
      6512 MEMB     63       POPC     H91      HEL1     0.150000       1.00800           0
      6513 MEMB     63       POPC     C210     CEL1    -0.150000       12.0110           0
      6514 MEMB     63       POPC     H101     HEL1     0.150000       1.00800           0
      6515 MEMB     63       POPC     C211     CTL2    -0.180000       12.0110           0
      6516 MEMB     63       POPC     H11R     HAL2     0.900000E-01   1.00800           0
      6517 MEMB     63       POPC     H11S     HAL2     0.900000E-01   1.00800           0
      6518 MEMB     63       POPC     C212     CTL2    -0.180000       12.0110           0
      6519 MEMB     63       POPC     H12R     HAL2     0.900000E-01   1.00800           0
      6520 MEMB     63       POPC     H12S     HAL2     0.900000E-01   1.00800           0
      6521 MEMB     63       POPC     C213     CTL2    -0.180000       12.0110           0
      6522 MEMB     63       POPC     H13R     HAL2     0.900000E-01   1.00800           0
      6523 MEMB     63       POPC     H13S     HAL2     0.900000E-01   1.00800           0
      6524 MEMB     63       POPC     C214     CTL2    -0.180000       12.0110           0
      6525 MEMB     63       POPC     H14R     HAL2     0.900000E-01   1.00800           0
      6526 MEMB     63       POPC     H14S     HAL2     0.900000E-01   1.00800           0
      6527 MEMB     63       POPC     C215     CTL2    -0.180000       12.0110           0
      6528 MEMB     63       POPC     H15R     HAL2     0.900000E-01   1.00800           0
      6529 MEMB     63       POPC     H15S     HAL2     0.900000E-01   1.00800           0
      6530 MEMB     63       POPC     C216     CTL2    -0.180000       12.0110           0
      6531 MEMB     63       POPC     H16R     HAL2     0.900000E-01   1.00800           0
      6532 MEMB     63       POPC     H16S     HAL2     0.900000E-01   1.00800           0
      6533 MEMB     63       POPC     C217     CTL2    -0.180000       12.0110           0
      6534 MEMB     63       POPC     H17R     HAL2     0.900000E-01   1.00800           0
      6535 MEMB     63       POPC     H17S     HAL2     0.900000E-01   1.00800           0
      6536 MEMB     63       POPC     C218     CTL3    -0.270000       12.0110           0
      6537 MEMB     63       POPC     H18R     HAL3     0.900000E-01   1.00800           0
      6538 MEMB     63       POPC     H18S     HAL3     0.900000E-01   1.00800           0
      6539 MEMB     63       POPC     H18T     HAL3     0.900000E-01   1.00800           0
      6540 MEMB     63       POPC     C33      CTL2    -0.180000       12.0110           0
      6541 MEMB     63       POPC     H3X      HAL2     0.900000E-01   1.00800           0
      6542 MEMB     63       POPC     H3Y      HAL2     0.900000E-01   1.00800           0
      6543 MEMB     63       POPC     C34      CTL2    -0.180000       12.0110           0
      6544 MEMB     63       POPC     H4X      HAL2     0.900000E-01   1.00800           0
      6545 MEMB     63       POPC     H4Y      HAL2     0.900000E-01   1.00800           0
      6546 MEMB     63       POPC     C35      CTL2    -0.180000       12.0110           0
      6547 MEMB     63       POPC     H5X      HAL2     0.900000E-01   1.00800           0
      6548 MEMB     63       POPC     H5Y      HAL2     0.900000E-01   1.00800           0
      6549 MEMB     63       POPC     C36      CTL2    -0.180000       12.0110           0
      6550 MEMB     63       POPC     H6X      HAL2     0.900000E-01   1.00800           0
      6551 MEMB     63       POPC     H6Y      HAL2     0.900000E-01   1.00800           0
      6552 MEMB     63       POPC     C37      CTL2    -0.180000       12.0110           0
      6553 MEMB     63       POPC     H7X      HAL2     0.900000E-01   1.00800           0
      6554 MEMB     63       POPC     H7Y      HAL2     0.900000E-01   1.00800           0
      6555 MEMB     63       POPC     C38      CTL2    -0.180000       12.0110           0
      6556 MEMB     63       POPC     H8X      HAL2     0.900000E-01   1.00800           0
      6557 MEMB     63       POPC     H8Y      HAL2     0.900000E-01   1.00800           0
      6558 MEMB     63       POPC     C39      CTL2    -0.180000       12.0110           0
      6559 MEMB     63       POPC     H9X      HAL2     0.900000E-01   1.00800           0
      6560 MEMB     63       POPC     H9Y      HAL2     0.900000E-01   1.00800           0
      6561 MEMB     63       POPC     C310     CTL2    -0.180000       12.0110           0
      6562 MEMB     63       POPC     H10X     HAL2     0.900000E-01   1.00800           0
      6563 MEMB     63       POPC     H10Y     HAL2     0.900000E-01   1.00800           0
      6564 MEMB     63       POPC     C311     CTL2    -0.180000       12.0110           0
      6565 MEMB     63       POPC     H11X     HAL2     0.900000E-01   1.00800           0
      6566 MEMB     63       POPC     H11Y     HAL2     0.900000E-01   1.00800           0
      6567 MEMB     63       POPC     C312     CTL2    -0.180000       12.0110           0
      6568 MEMB     63       POPC     H12X     HAL2     0.900000E-01   1.00800           0
      6569 MEMB     63       POPC     H12Y     HAL2     0.900000E-01   1.00800           0
      6570 MEMB     63       POPC     C313     CTL2    -0.180000       12.0110           0
      6571 MEMB     63       POPC     H13X     HAL2     0.900000E-01   1.00800           0
      6572 MEMB     63       POPC     H13Y     HAL2     0.900000E-01   1.00800           0
      6573 MEMB     63       POPC     C314     CTL2    -0.180000       12.0110           0
      6574 MEMB     63       POPC     H14X     HAL2     0.900000E-01   1.00800           0
      6575 MEMB     63       POPC     H14Y     HAL2     0.900000E-01   1.00800           0
      6576 MEMB     63       POPC     C315     CTL2    -0.180000       12.0110           0
      6577 MEMB     63       POPC     H15X     HAL2     0.900000E-01   1.00800           0
      6578 MEMB     63       POPC     H15Y     HAL2     0.900000E-01   1.00800           0
      6579 MEMB     63       POPC     C316     CTL3    -0.270000       12.0110           0
      6580 MEMB     63       POPC     H16X     HAL3     0.900000E-01   1.00800           0
      6581 MEMB     63       POPC     H16Y     HAL3     0.900000E-01   1.00800           0
      6582 MEMB     63       POPC     H16Z     HAL3     0.900000E-01   1.00800           0
      6583 MEMB     64       POPC     N        NTL     -0.600000       14.0070           0
      6584 MEMB     64       POPC     C12      CTL2    -0.100000       12.0110           0
      6585 MEMB     64       POPC     H12A     HL       0.250000       1.00800           0
      6586 MEMB     64       POPC     H12B     HL       0.250000       1.00800           0
      6587 MEMB     64       POPC     C13      CTL5    -0.350000       12.0110           0
      6588 MEMB     64       POPC     H13A     HL       0.250000       1.00800           0
      6589 MEMB     64       POPC     H13B     HL       0.250000       1.00800           0
      6590 MEMB     64       POPC     H13C     HL       0.250000       1.00800           0
      6591 MEMB     64       POPC     C14      CTL5    -0.350000       12.0110           0
      6592 MEMB     64       POPC     H14A     HL       0.250000       1.00800           0
      6593 MEMB     64       POPC     H14B     HL       0.250000       1.00800           0
      6594 MEMB     64       POPC     H14C     HL       0.250000       1.00800           0
      6595 MEMB     64       POPC     C15      CTL5    -0.350000       12.0110           0
      6596 MEMB     64       POPC     H15A     HL       0.250000       1.00800           0
      6597 MEMB     64       POPC     H15B     HL       0.250000       1.00800           0
      6598 MEMB     64       POPC     H15C     HL       0.250000       1.00800           0
      6599 MEMB     64       POPC     C11      CTL2    -0.800000E-01   12.0110           0
      6600 MEMB     64       POPC     H11A     HAL2     0.900000E-01   1.00800           0
      6601 MEMB     64       POPC     H11B     HAL2     0.900000E-01   1.00800           0
      6602 MEMB     64       POPC     P        PL        1.50000       30.9740           0
      6603 MEMB     64       POPC     O13      O2L     -0.780000       15.9994           0
      6604 MEMB     64       POPC     O14      O2L     -0.780000       15.9994           0
      6605 MEMB     64       POPC     O12      OSLP    -0.570000       15.9994           0
      6606 MEMB     64       POPC     O11      OSLP    -0.570000       15.9994           0
      6607 MEMB     64       POPC     C1       CTL2    -0.800000E-01   12.0110           0
      6608 MEMB     64       POPC     HA       HAL2     0.900000E-01   1.00800           0
      6609 MEMB     64       POPC     HB       HAL2     0.900000E-01   1.00800           0
      6610 MEMB     64       POPC     C2       CTL1     0.170000       12.0110           0
      6611 MEMB     64       POPC     HS       HAL1     0.900000E-01   1.00800           0
      6612 MEMB     64       POPC     O21      OSL     -0.490000       15.9994           0
      6613 MEMB     64       POPC     C21      CL       0.900000       12.0110           0
      6614 MEMB     64       POPC     O22      OBL     -0.630000       15.9994           0
      6615 MEMB     64       POPC     C22      CTL2    -0.220000       12.0110           0
      6616 MEMB     64       POPC     H2R      HAL2     0.900000E-01   1.00800           0
      6617 MEMB     64       POPC     H2S      HAL2     0.900000E-01   1.00800           0
      6618 MEMB     64       POPC     C3       CTL2     0.800000E-01   12.0110           0
      6619 MEMB     64       POPC     HX       HAL2     0.900000E-01   1.00800           0
      6620 MEMB     64       POPC     HY       HAL2     0.900000E-01   1.00800           0
      6621 MEMB     64       POPC     O31      OSL     -0.490000       15.9994           0
      6622 MEMB     64       POPC     C31      CL       0.900000       12.0110           0
      6623 MEMB     64       POPC     O32      OBL     -0.630000       15.9994           0
      6624 MEMB     64       POPC     C32      CTL2    -0.220000       12.0110           0
      6625 MEMB     64       POPC     H2X      HAL2     0.900000E-01   1.00800           0
      6626 MEMB     64       POPC     H2Y      HAL2     0.900000E-01   1.00800           0
      6627 MEMB     64       POPC     C23      CTL2    -0.180000       12.0110           0
      6628 MEMB     64       POPC     H3R      HAL2     0.900000E-01   1.00800           0
      6629 MEMB     64       POPC     H3S      HAL2     0.900000E-01   1.00800           0
      6630 MEMB     64       POPC     C24      CTL2    -0.180000       12.0110           0
      6631 MEMB     64       POPC     H4R      HAL2     0.900000E-01   1.00800           0
      6632 MEMB     64       POPC     H4S      HAL2     0.900000E-01   1.00800           0
      6633 MEMB     64       POPC     C25      CTL2    -0.180000       12.0110           0
      6634 MEMB     64       POPC     H5R      HAL2     0.900000E-01   1.00800           0
      6635 MEMB     64       POPC     H5S      HAL2     0.900000E-01   1.00800           0
      6636 MEMB     64       POPC     C26      CTL2    -0.180000       12.0110           0
      6637 MEMB     64       POPC     H6R      HAL2     0.900000E-01   1.00800           0
      6638 MEMB     64       POPC     H6S      HAL2     0.900000E-01   1.00800           0
      6639 MEMB     64       POPC     C27      CTL2    -0.180000       12.0110           0
      6640 MEMB     64       POPC     H7R      HAL2     0.900000E-01   1.00800           0
      6641 MEMB     64       POPC     H7S      HAL2     0.900000E-01   1.00800           0
      6642 MEMB     64       POPC     C28      CTL2    -0.180000       12.0110           0
      6643 MEMB     64       POPC     H8R      HAL2     0.900000E-01   1.00800           0
      6644 MEMB     64       POPC     H8S      HAL2     0.900000E-01   1.00800           0
      6645 MEMB     64       POPC     C29      CEL1    -0.150000       12.0110           0
      6646 MEMB     64       POPC     H91      HEL1     0.150000       1.00800           0
      6647 MEMB     64       POPC     C210     CEL1    -0.150000       12.0110           0
      6648 MEMB     64       POPC     H101     HEL1     0.150000       1.00800           0
      6649 MEMB     64       POPC     C211     CTL2    -0.180000       12.0110           0
      6650 MEMB     64       POPC     H11R     HAL2     0.900000E-01   1.00800           0
      6651 MEMB     64       POPC     H11S     HAL2     0.900000E-01   1.00800           0
      6652 MEMB     64       POPC     C212     CTL2    -0.180000       12.0110           0
      6653 MEMB     64       POPC     H12R     HAL2     0.900000E-01   1.00800           0
      6654 MEMB     64       POPC     H12S     HAL2     0.900000E-01   1.00800           0
      6655 MEMB     64       POPC     C213     CTL2    -0.180000       12.0110           0
      6656 MEMB     64       POPC     H13R     HAL2     0.900000E-01   1.00800           0
      6657 MEMB     64       POPC     H13S     HAL2     0.900000E-01   1.00800           0
      6658 MEMB     64       POPC     C214     CTL2    -0.180000       12.0110           0
      6659 MEMB     64       POPC     H14R     HAL2     0.900000E-01   1.00800           0
      6660 MEMB     64       POPC     H14S     HAL2     0.900000E-01   1.00800           0
      6661 MEMB     64       POPC     C215     CTL2    -0.180000       12.0110           0
      6662 MEMB     64       POPC     H15R     HAL2     0.900000E-01   1.00800           0
      6663 MEMB     64       POPC     H15S     HAL2     0.900000E-01   1.00800           0
      6664 MEMB     64       POPC     C216     CTL2    -0.180000       12.0110           0
      6665 MEMB     64       POPC     H16R     HAL2     0.900000E-01   1.00800           0
      6666 MEMB     64       POPC     H16S     HAL2     0.900000E-01   1.00800           0
      6667 MEMB     64       POPC     C217     CTL2    -0.180000       12.0110           0
      6668 MEMB     64       POPC     H17R     HAL2     0.900000E-01   1.00800           0
      6669 MEMB     64       POPC     H17S     HAL2     0.900000E-01   1.00800           0
      6670 MEMB     64       POPC     C218     CTL3    -0.270000       12.0110           0
      6671 MEMB     64       POPC     H18R     HAL3     0.900000E-01   1.00800           0
      6672 MEMB     64       POPC     H18S     HAL3     0.900000E-01   1.00800           0
      6673 MEMB     64       POPC     H18T     HAL3     0.900000E-01   1.00800           0
      6674 MEMB     64       POPC     C33      CTL2    -0.180000       12.0110           0
      6675 MEMB     64       POPC     H3X      HAL2     0.900000E-01   1.00800           0
      6676 MEMB     64       POPC     H3Y      HAL2     0.900000E-01   1.00800           0
      6677 MEMB     64       POPC     C34      CTL2    -0.180000       12.0110           0
      6678 MEMB     64       POPC     H4X      HAL2     0.900000E-01   1.00800           0
      6679 MEMB     64       POPC     H4Y      HAL2     0.900000E-01   1.00800           0
      6680 MEMB     64       POPC     C35      CTL2    -0.180000       12.0110           0
      6681 MEMB     64       POPC     H5X      HAL2     0.900000E-01   1.00800           0
      6682 MEMB     64       POPC     H5Y      HAL2     0.900000E-01   1.00800           0
      6683 MEMB     64       POPC     C36      CTL2    -0.180000       12.0110           0
      6684 MEMB     64       POPC     H6X      HAL2     0.900000E-01   1.00800           0
      6685 MEMB     64       POPC     H6Y      HAL2     0.900000E-01   1.00800           0
      6686 MEMB     64       POPC     C37      CTL2    -0.180000       12.0110           0
      6687 MEMB     64       POPC     H7X      HAL2     0.900000E-01   1.00800           0
      6688 MEMB     64       POPC     H7Y      HAL2     0.900000E-01   1.00800           0
      6689 MEMB     64       POPC     C38      CTL2    -0.180000       12.0110           0
      6690 MEMB     64       POPC     H8X      HAL2     0.900000E-01   1.00800           0
      6691 MEMB     64       POPC     H8Y      HAL2     0.900000E-01   1.00800           0
      6692 MEMB     64       POPC     C39      CTL2    -0.180000       12.0110           0
      6693 MEMB     64       POPC     H9X      HAL2     0.900000E-01   1.00800           0
      6694 MEMB     64       POPC     H9Y      HAL2     0.900000E-01   1.00800           0
      6695 MEMB     64       POPC     C310     CTL2    -0.180000       12.0110           0
      6696 MEMB     64       POPC     H10X     HAL2     0.900000E-01   1.00800           0
      6697 MEMB     64       POPC     H10Y     HAL2     0.900000E-01   1.00800           0
      6698 MEMB     64       POPC     C311     CTL2    -0.180000       12.0110           0
      6699 MEMB     64       POPC     H11X     HAL2     0.900000E-01   1.00800           0
      6700 MEMB     64       POPC     H11Y     HAL2     0.900000E-01   1.00800           0
      6701 MEMB     64       POPC     C312     CTL2    -0.180000       12.0110           0
      6702 MEMB     64       POPC     H12X     HAL2     0.900000E-01   1.00800           0
      6703 MEMB     64       POPC     H12Y     HAL2     0.900000E-01   1.00800           0
      6704 MEMB     64       POPC     C313     CTL2    -0.180000       12.0110           0
      6705 MEMB     64       POPC     H13X     HAL2     0.900000E-01   1.00800           0
      6706 MEMB     64       POPC     H13Y     HAL2     0.900000E-01   1.00800           0
      6707 MEMB     64       POPC     C314     CTL2    -0.180000       12.0110           0
      6708 MEMB     64       POPC     H14X     HAL2     0.900000E-01   1.00800           0
      6709 MEMB     64       POPC     H14Y     HAL2     0.900000E-01   1.00800           0
      6710 MEMB     64       POPC     C315     CTL2    -0.180000       12.0110           0
      6711 MEMB     64       POPC     H15X     HAL2     0.900000E-01   1.00800           0
      6712 MEMB     64       POPC     H15Y     HAL2     0.900000E-01   1.00800           0
      6713 MEMB     64       POPC     C316     CTL3    -0.270000       12.0110           0
      6714 MEMB     64       POPC     H16X     HAL3     0.900000E-01   1.00800           0
      6715 MEMB     64       POPC     H16Y     HAL3     0.900000E-01   1.00800           0
      6716 MEMB     64       POPC     H16Z     HAL3     0.900000E-01   1.00800           0
      6717 MEMB     65       POPC     N        NTL     -0.600000       14.0070           0
      6718 MEMB     65       POPC     C12      CTL2    -0.100000       12.0110           0
      6719 MEMB     65       POPC     H12A     HL       0.250000       1.00800           0
      6720 MEMB     65       POPC     H12B     HL       0.250000       1.00800           0
      6721 MEMB     65       POPC     C13      CTL5    -0.350000       12.0110           0
      6722 MEMB     65       POPC     H13A     HL       0.250000       1.00800           0
      6723 MEMB     65       POPC     H13B     HL       0.250000       1.00800           0
      6724 MEMB     65       POPC     H13C     HL       0.250000       1.00800           0
      6725 MEMB     65       POPC     C14      CTL5    -0.350000       12.0110           0
      6726 MEMB     65       POPC     H14A     HL       0.250000       1.00800           0
      6727 MEMB     65       POPC     H14B     HL       0.250000       1.00800           0
      6728 MEMB     65       POPC     H14C     HL       0.250000       1.00800           0
      6729 MEMB     65       POPC     C15      CTL5    -0.350000       12.0110           0
      6730 MEMB     65       POPC     H15A     HL       0.250000       1.00800           0
      6731 MEMB     65       POPC     H15B     HL       0.250000       1.00800           0
      6732 MEMB     65       POPC     H15C     HL       0.250000       1.00800           0
      6733 MEMB     65       POPC     C11      CTL2    -0.800000E-01   12.0110           0
      6734 MEMB     65       POPC     H11A     HAL2     0.900000E-01   1.00800           0
      6735 MEMB     65       POPC     H11B     HAL2     0.900000E-01   1.00800           0
      6736 MEMB     65       POPC     P        PL        1.50000       30.9740           0
      6737 MEMB     65       POPC     O13      O2L     -0.780000       15.9994           0
      6738 MEMB     65       POPC     O14      O2L     -0.780000       15.9994           0
      6739 MEMB     65       POPC     O12      OSLP    -0.570000       15.9994           0
      6740 MEMB     65       POPC     O11      OSLP    -0.570000       15.9994           0
      6741 MEMB     65       POPC     C1       CTL2    -0.800000E-01   12.0110           0
      6742 MEMB     65       POPC     HA       HAL2     0.900000E-01   1.00800           0
      6743 MEMB     65       POPC     HB       HAL2     0.900000E-01   1.00800           0
      6744 MEMB     65       POPC     C2       CTL1     0.170000       12.0110           0
      6745 MEMB     65       POPC     HS       HAL1     0.900000E-01   1.00800           0
      6746 MEMB     65       POPC     O21      OSL     -0.490000       15.9994           0
      6747 MEMB     65       POPC     C21      CL       0.900000       12.0110           0
      6748 MEMB     65       POPC     O22      OBL     -0.630000       15.9994           0
      6749 MEMB     65       POPC     C22      CTL2    -0.220000       12.0110           0
      6750 MEMB     65       POPC     H2R      HAL2     0.900000E-01   1.00800           0
      6751 MEMB     65       POPC     H2S      HAL2     0.900000E-01   1.00800           0
      6752 MEMB     65       POPC     C3       CTL2     0.800000E-01   12.0110           0
      6753 MEMB     65       POPC     HX       HAL2     0.900000E-01   1.00800           0
      6754 MEMB     65       POPC     HY       HAL2     0.900000E-01   1.00800           0
      6755 MEMB     65       POPC     O31      OSL     -0.490000       15.9994           0
      6756 MEMB     65       POPC     C31      CL       0.900000       12.0110           0
      6757 MEMB     65       POPC     O32      OBL     -0.630000       15.9994           0
      6758 MEMB     65       POPC     C32      CTL2    -0.220000       12.0110           0
      6759 MEMB     65       POPC     H2X      HAL2     0.900000E-01   1.00800           0
      6760 MEMB     65       POPC     H2Y      HAL2     0.900000E-01   1.00800           0
      6761 MEMB     65       POPC     C23      CTL2    -0.180000       12.0110           0
      6762 MEMB     65       POPC     H3R      HAL2     0.900000E-01   1.00800           0
      6763 MEMB     65       POPC     H3S      HAL2     0.900000E-01   1.00800           0
      6764 MEMB     65       POPC     C24      CTL2    -0.180000       12.0110           0
      6765 MEMB     65       POPC     H4R      HAL2     0.900000E-01   1.00800           0
      6766 MEMB     65       POPC     H4S      HAL2     0.900000E-01   1.00800           0
      6767 MEMB     65       POPC     C25      CTL2    -0.180000       12.0110           0
      6768 MEMB     65       POPC     H5R      HAL2     0.900000E-01   1.00800           0
      6769 MEMB     65       POPC     H5S      HAL2     0.900000E-01   1.00800           0
      6770 MEMB     65       POPC     C26      CTL2    -0.180000       12.0110           0
      6771 MEMB     65       POPC     H6R      HAL2     0.900000E-01   1.00800           0
      6772 MEMB     65       POPC     H6S      HAL2     0.900000E-01   1.00800           0
      6773 MEMB     65       POPC     C27      CTL2    -0.180000       12.0110           0
      6774 MEMB     65       POPC     H7R      HAL2     0.900000E-01   1.00800           0
      6775 MEMB     65       POPC     H7S      HAL2     0.900000E-01   1.00800           0
      6776 MEMB     65       POPC     C28      CTL2    -0.180000       12.0110           0
      6777 MEMB     65       POPC     H8R      HAL2     0.900000E-01   1.00800           0
      6778 MEMB     65       POPC     H8S      HAL2     0.900000E-01   1.00800           0
      6779 MEMB     65       POPC     C29      CEL1    -0.150000       12.0110           0
      6780 MEMB     65       POPC     H91      HEL1     0.150000       1.00800           0
      6781 MEMB     65       POPC     C210     CEL1    -0.150000       12.0110           0
      6782 MEMB     65       POPC     H101     HEL1     0.150000       1.00800           0
      6783 MEMB     65       POPC     C211     CTL2    -0.180000       12.0110           0
      6784 MEMB     65       POPC     H11R     HAL2     0.900000E-01   1.00800           0
      6785 MEMB     65       POPC     H11S     HAL2     0.900000E-01   1.00800           0
      6786 MEMB     65       POPC     C212     CTL2    -0.180000       12.0110           0
      6787 MEMB     65       POPC     H12R     HAL2     0.900000E-01   1.00800           0
      6788 MEMB     65       POPC     H12S     HAL2     0.900000E-01   1.00800           0
      6789 MEMB     65       POPC     C213     CTL2    -0.180000       12.0110           0
      6790 MEMB     65       POPC     H13R     HAL2     0.900000E-01   1.00800           0
      6791 MEMB     65       POPC     H13S     HAL2     0.900000E-01   1.00800           0
      6792 MEMB     65       POPC     C214     CTL2    -0.180000       12.0110           0
      6793 MEMB     65       POPC     H14R     HAL2     0.900000E-01   1.00800           0
      6794 MEMB     65       POPC     H14S     HAL2     0.900000E-01   1.00800           0
      6795 MEMB     65       POPC     C215     CTL2    -0.180000       12.0110           0
      6796 MEMB     65       POPC     H15R     HAL2     0.900000E-01   1.00800           0
      6797 MEMB     65       POPC     H15S     HAL2     0.900000E-01   1.00800           0
      6798 MEMB     65       POPC     C216     CTL2    -0.180000       12.0110           0
      6799 MEMB     65       POPC     H16R     HAL2     0.900000E-01   1.00800           0
      6800 MEMB     65       POPC     H16S     HAL2     0.900000E-01   1.00800           0
      6801 MEMB     65       POPC     C217     CTL2    -0.180000       12.0110           0
      6802 MEMB     65       POPC     H17R     HAL2     0.900000E-01   1.00800           0
      6803 MEMB     65       POPC     H17S     HAL2     0.900000E-01   1.00800           0
      6804 MEMB     65       POPC     C218     CTL3    -0.270000       12.0110           0
      6805 MEMB     65       POPC     H18R     HAL3     0.900000E-01   1.00800           0
      6806 MEMB     65       POPC     H18S     HAL3     0.900000E-01   1.00800           0
      6807 MEMB     65       POPC     H18T     HAL3     0.900000E-01   1.00800           0
      6808 MEMB     65       POPC     C33      CTL2    -0.180000       12.0110           0
      6809 MEMB     65       POPC     H3X      HAL2     0.900000E-01   1.00800           0
      6810 MEMB     65       POPC     H3Y      HAL2     0.900000E-01   1.00800           0
      6811 MEMB     65       POPC     C34      CTL2    -0.180000       12.0110           0
      6812 MEMB     65       POPC     H4X      HAL2     0.900000E-01   1.00800           0
      6813 MEMB     65       POPC     H4Y      HAL2     0.900000E-01   1.00800           0
      6814 MEMB     65       POPC     C35      CTL2    -0.180000       12.0110           0
      6815 MEMB     65       POPC     H5X      HAL2     0.900000E-01   1.00800           0
      6816 MEMB     65       POPC     H5Y      HAL2     0.900000E-01   1.00800           0
      6817 MEMB     65       POPC     C36      CTL2    -0.180000       12.0110           0
      6818 MEMB     65       POPC     H6X      HAL2     0.900000E-01   1.00800           0
      6819 MEMB     65       POPC     H6Y      HAL2     0.900000E-01   1.00800           0
      6820 MEMB     65       POPC     C37      CTL2    -0.180000       12.0110           0
      6821 MEMB     65       POPC     H7X      HAL2     0.900000E-01   1.00800           0
      6822 MEMB     65       POPC     H7Y      HAL2     0.900000E-01   1.00800           0
      6823 MEMB     65       POPC     C38      CTL2    -0.180000       12.0110           0
      6824 MEMB     65       POPC     H8X      HAL2     0.900000E-01   1.00800           0
      6825 MEMB     65       POPC     H8Y      HAL2     0.900000E-01   1.00800           0
      6826 MEMB     65       POPC     C39      CTL2    -0.180000       12.0110           0
      6827 MEMB     65       POPC     H9X      HAL2     0.900000E-01   1.00800           0
      6828 MEMB     65       POPC     H9Y      HAL2     0.900000E-01   1.00800           0
      6829 MEMB     65       POPC     C310     CTL2    -0.180000       12.0110           0
      6830 MEMB     65       POPC     H10X     HAL2     0.900000E-01   1.00800           0
      6831 MEMB     65       POPC     H10Y     HAL2     0.900000E-01   1.00800           0
      6832 MEMB     65       POPC     C311     CTL2    -0.180000       12.0110           0
      6833 MEMB     65       POPC     H11X     HAL2     0.900000E-01   1.00800           0
      6834 MEMB     65       POPC     H11Y     HAL2     0.900000E-01   1.00800           0
      6835 MEMB     65       POPC     C312     CTL2    -0.180000       12.0110           0
      6836 MEMB     65       POPC     H12X     HAL2     0.900000E-01   1.00800           0
      6837 MEMB     65       POPC     H12Y     HAL2     0.900000E-01   1.00800           0
      6838 MEMB     65       POPC     C313     CTL2    -0.180000       12.0110           0
      6839 MEMB     65       POPC     H13X     HAL2     0.900000E-01   1.00800           0
      6840 MEMB     65       POPC     H13Y     HAL2     0.900000E-01   1.00800           0
      6841 MEMB     65       POPC     C314     CTL2    -0.180000       12.0110           0
      6842 MEMB     65       POPC     H14X     HAL2     0.900000E-01   1.00800           0
      6843 MEMB     65       POPC     H14Y     HAL2     0.900000E-01   1.00800           0
      6844 MEMB     65       POPC     C315     CTL2    -0.180000       12.0110           0
      6845 MEMB     65       POPC     H15X     HAL2     0.900000E-01   1.00800           0
      6846 MEMB     65       POPC     H15Y     HAL2     0.900000E-01   1.00800           0
      6847 MEMB     65       POPC     C316     CTL3    -0.270000       12.0110           0
      6848 MEMB     65       POPC     H16X     HAL3     0.900000E-01   1.00800           0
      6849 MEMB     65       POPC     H16Y     HAL3     0.900000E-01   1.00800           0
      6850 MEMB     65       POPC     H16Z     HAL3     0.900000E-01   1.00800           0
      6851 MEMB     66       POPC     N        NTL     -0.600000       14.0070           0
      6852 MEMB     66       POPC     C12      CTL2    -0.100000       12.0110           0
      6853 MEMB     66       POPC     H12A     HL       0.250000       1.00800           0
      6854 MEMB     66       POPC     H12B     HL       0.250000       1.00800           0
      6855 MEMB     66       POPC     C13      CTL5    -0.350000       12.0110           0
      6856 MEMB     66       POPC     H13A     HL       0.250000       1.00800           0
      6857 MEMB     66       POPC     H13B     HL       0.250000       1.00800           0
      6858 MEMB     66       POPC     H13C     HL       0.250000       1.00800           0
      6859 MEMB     66       POPC     C14      CTL5    -0.350000       12.0110           0
      6860 MEMB     66       POPC     H14A     HL       0.250000       1.00800           0
      6861 MEMB     66       POPC     H14B     HL       0.250000       1.00800           0
      6862 MEMB     66       POPC     H14C     HL       0.250000       1.00800           0
      6863 MEMB     66       POPC     C15      CTL5    -0.350000       12.0110           0
      6864 MEMB     66       POPC     H15A     HL       0.250000       1.00800           0
      6865 MEMB     66       POPC     H15B     HL       0.250000       1.00800           0
      6866 MEMB     66       POPC     H15C     HL       0.250000       1.00800           0
      6867 MEMB     66       POPC     C11      CTL2    -0.800000E-01   12.0110           0
      6868 MEMB     66       POPC     H11A     HAL2     0.900000E-01   1.00800           0
      6869 MEMB     66       POPC     H11B     HAL2     0.900000E-01   1.00800           0
      6870 MEMB     66       POPC     P        PL        1.50000       30.9740           0
      6871 MEMB     66       POPC     O13      O2L     -0.780000       15.9994           0
      6872 MEMB     66       POPC     O14      O2L     -0.780000       15.9994           0
      6873 MEMB     66       POPC     O12      OSLP    -0.570000       15.9994           0
      6874 MEMB     66       POPC     O11      OSLP    -0.570000       15.9994           0
      6875 MEMB     66       POPC     C1       CTL2    -0.800000E-01   12.0110           0
      6876 MEMB     66       POPC     HA       HAL2     0.900000E-01   1.00800           0
      6877 MEMB     66       POPC     HB       HAL2     0.900000E-01   1.00800           0
      6878 MEMB     66       POPC     C2       CTL1     0.170000       12.0110           0
      6879 MEMB     66       POPC     HS       HAL1     0.900000E-01   1.00800           0
      6880 MEMB     66       POPC     O21      OSL     -0.490000       15.9994           0
      6881 MEMB     66       POPC     C21      CL       0.900000       12.0110           0
      6882 MEMB     66       POPC     O22      OBL     -0.630000       15.9994           0
      6883 MEMB     66       POPC     C22      CTL2    -0.220000       12.0110           0
      6884 MEMB     66       POPC     H2R      HAL2     0.900000E-01   1.00800           0
      6885 MEMB     66       POPC     H2S      HAL2     0.900000E-01   1.00800           0
      6886 MEMB     66       POPC     C3       CTL2     0.800000E-01   12.0110           0
      6887 MEMB     66       POPC     HX       HAL2     0.900000E-01   1.00800           0
      6888 MEMB     66       POPC     HY       HAL2     0.900000E-01   1.00800           0
      6889 MEMB     66       POPC     O31      OSL     -0.490000       15.9994           0
      6890 MEMB     66       POPC     C31      CL       0.900000       12.0110           0
      6891 MEMB     66       POPC     O32      OBL     -0.630000       15.9994           0
      6892 MEMB     66       POPC     C32      CTL2    -0.220000       12.0110           0
      6893 MEMB     66       POPC     H2X      HAL2     0.900000E-01   1.00800           0
      6894 MEMB     66       POPC     H2Y      HAL2     0.900000E-01   1.00800           0
      6895 MEMB     66       POPC     C23      CTL2    -0.180000       12.0110           0
      6896 MEMB     66       POPC     H3R      HAL2     0.900000E-01   1.00800           0
      6897 MEMB     66       POPC     H3S      HAL2     0.900000E-01   1.00800           0
      6898 MEMB     66       POPC     C24      CTL2    -0.180000       12.0110           0
      6899 MEMB     66       POPC     H4R      HAL2     0.900000E-01   1.00800           0
      6900 MEMB     66       POPC     H4S      HAL2     0.900000E-01   1.00800           0
      6901 MEMB     66       POPC     C25      CTL2    -0.180000       12.0110           0
      6902 MEMB     66       POPC     H5R      HAL2     0.900000E-01   1.00800           0
      6903 MEMB     66       POPC     H5S      HAL2     0.900000E-01   1.00800           0
      6904 MEMB     66       POPC     C26      CTL2    -0.180000       12.0110           0
      6905 MEMB     66       POPC     H6R      HAL2     0.900000E-01   1.00800           0
      6906 MEMB     66       POPC     H6S      HAL2     0.900000E-01   1.00800           0
      6907 MEMB     66       POPC     C27      CTL2    -0.180000       12.0110           0
      6908 MEMB     66       POPC     H7R      HAL2     0.900000E-01   1.00800           0
      6909 MEMB     66       POPC     H7S      HAL2     0.900000E-01   1.00800           0
      6910 MEMB     66       POPC     C28      CTL2    -0.180000       12.0110           0
      6911 MEMB     66       POPC     H8R      HAL2     0.900000E-01   1.00800           0
      6912 MEMB     66       POPC     H8S      HAL2     0.900000E-01   1.00800           0
      6913 MEMB     66       POPC     C29      CEL1    -0.150000       12.0110           0
      6914 MEMB     66       POPC     H91      HEL1     0.150000       1.00800           0
      6915 MEMB     66       POPC     C210     CEL1    -0.150000       12.0110           0
      6916 MEMB     66       POPC     H101     HEL1     0.150000       1.00800           0
      6917 MEMB     66       POPC     C211     CTL2    -0.180000       12.0110           0
      6918 MEMB     66       POPC     H11R     HAL2     0.900000E-01   1.00800           0
      6919 MEMB     66       POPC     H11S     HAL2     0.900000E-01   1.00800           0
      6920 MEMB     66       POPC     C212     CTL2    -0.180000       12.0110           0
      6921 MEMB     66       POPC     H12R     HAL2     0.900000E-01   1.00800           0
      6922 MEMB     66       POPC     H12S     HAL2     0.900000E-01   1.00800           0
      6923 MEMB     66       POPC     C213     CTL2    -0.180000       12.0110           0
      6924 MEMB     66       POPC     H13R     HAL2     0.900000E-01   1.00800           0
      6925 MEMB     66       POPC     H13S     HAL2     0.900000E-01   1.00800           0
      6926 MEMB     66       POPC     C214     CTL2    -0.180000       12.0110           0
      6927 MEMB     66       POPC     H14R     HAL2     0.900000E-01   1.00800           0
      6928 MEMB     66       POPC     H14S     HAL2     0.900000E-01   1.00800           0
      6929 MEMB     66       POPC     C215     CTL2    -0.180000       12.0110           0
      6930 MEMB     66       POPC     H15R     HAL2     0.900000E-01   1.00800           0
      6931 MEMB     66       POPC     H15S     HAL2     0.900000E-01   1.00800           0
      6932 MEMB     66       POPC     C216     CTL2    -0.180000       12.0110           0
      6933 MEMB     66       POPC     H16R     HAL2     0.900000E-01   1.00800           0
      6934 MEMB     66       POPC     H16S     HAL2     0.900000E-01   1.00800           0
      6935 MEMB     66       POPC     C217     CTL2    -0.180000       12.0110           0
      6936 MEMB     66       POPC     H17R     HAL2     0.900000E-01   1.00800           0
      6937 MEMB     66       POPC     H17S     HAL2     0.900000E-01   1.00800           0
      6938 MEMB     66       POPC     C218     CTL3    -0.270000       12.0110           0
      6939 MEMB     66       POPC     H18R     HAL3     0.900000E-01   1.00800           0
      6940 MEMB     66       POPC     H18S     HAL3     0.900000E-01   1.00800           0
      6941 MEMB     66       POPC     H18T     HAL3     0.900000E-01   1.00800           0
      6942 MEMB     66       POPC     C33      CTL2    -0.180000       12.0110           0
      6943 MEMB     66       POPC     H3X      HAL2     0.900000E-01   1.00800           0
      6944 MEMB     66       POPC     H3Y      HAL2     0.900000E-01   1.00800           0
      6945 MEMB     66       POPC     C34      CTL2    -0.180000       12.0110           0
      6946 MEMB     66       POPC     H4X      HAL2     0.900000E-01   1.00800           0
      6947 MEMB     66       POPC     H4Y      HAL2     0.900000E-01   1.00800           0
      6948 MEMB     66       POPC     C35      CTL2    -0.180000       12.0110           0
      6949 MEMB     66       POPC     H5X      HAL2     0.900000E-01   1.00800           0
      6950 MEMB     66       POPC     H5Y      HAL2     0.900000E-01   1.00800           0
      6951 MEMB     66       POPC     C36      CTL2    -0.180000       12.0110           0
      6952 MEMB     66       POPC     H6X      HAL2     0.900000E-01   1.00800           0
      6953 MEMB     66       POPC     H6Y      HAL2     0.900000E-01   1.00800           0
      6954 MEMB     66       POPC     C37      CTL2    -0.180000       12.0110           0
      6955 MEMB     66       POPC     H7X      HAL2     0.900000E-01   1.00800           0
      6956 MEMB     66       POPC     H7Y      HAL2     0.900000E-01   1.00800           0
      6957 MEMB     66       POPC     C38      CTL2    -0.180000       12.0110           0
      6958 MEMB     66       POPC     H8X      HAL2     0.900000E-01   1.00800           0
      6959 MEMB     66       POPC     H8Y      HAL2     0.900000E-01   1.00800           0
      6960 MEMB     66       POPC     C39      CTL2    -0.180000       12.0110           0
      6961 MEMB     66       POPC     H9X      HAL2     0.900000E-01   1.00800           0
      6962 MEMB     66       POPC     H9Y      HAL2     0.900000E-01   1.00800           0
      6963 MEMB     66       POPC     C310     CTL2    -0.180000       12.0110           0
      6964 MEMB     66       POPC     H10X     HAL2     0.900000E-01   1.00800           0
      6965 MEMB     66       POPC     H10Y     HAL2     0.900000E-01   1.00800           0
      6966 MEMB     66       POPC     C311     CTL2    -0.180000       12.0110           0
      6967 MEMB     66       POPC     H11X     HAL2     0.900000E-01   1.00800           0
      6968 MEMB     66       POPC     H11Y     HAL2     0.900000E-01   1.00800           0
      6969 MEMB     66       POPC     C312     CTL2    -0.180000       12.0110           0
      6970 MEMB     66       POPC     H12X     HAL2     0.900000E-01   1.00800           0
      6971 MEMB     66       POPC     H12Y     HAL2     0.900000E-01   1.00800           0
      6972 MEMB     66       POPC     C313     CTL2    -0.180000       12.0110           0
      6973 MEMB     66       POPC     H13X     HAL2     0.900000E-01   1.00800           0
      6974 MEMB     66       POPC     H13Y     HAL2     0.900000E-01   1.00800           0
      6975 MEMB     66       POPC     C314     CTL2    -0.180000       12.0110           0
      6976 MEMB     66       POPC     H14X     HAL2     0.900000E-01   1.00800           0
      6977 MEMB     66       POPC     H14Y     HAL2     0.900000E-01   1.00800           0
      6978 MEMB     66       POPC     C315     CTL2    -0.180000       12.0110           0
      6979 MEMB     66       POPC     H15X     HAL2     0.900000E-01   1.00800           0
      6980 MEMB     66       POPC     H15Y     HAL2     0.900000E-01   1.00800           0
      6981 MEMB     66       POPC     C316     CTL3    -0.270000       12.0110           0
      6982 MEMB     66       POPC     H16X     HAL3     0.900000E-01   1.00800           0
      6983 MEMB     66       POPC     H16Y     HAL3     0.900000E-01   1.00800           0
      6984 MEMB     66       POPC     H16Z     HAL3     0.900000E-01   1.00800           0
      6985 MEMB     67       POPC     N        NTL     -0.600000       14.0070           0
      6986 MEMB     67       POPC     C12      CTL2    -0.100000       12.0110           0
      6987 MEMB     67       POPC     H12A     HL       0.250000       1.00800           0
      6988 MEMB     67       POPC     H12B     HL       0.250000       1.00800           0
      6989 MEMB     67       POPC     C13      CTL5    -0.350000       12.0110           0
      6990 MEMB     67       POPC     H13A     HL       0.250000       1.00800           0
      6991 MEMB     67       POPC     H13B     HL       0.250000       1.00800           0
      6992 MEMB     67       POPC     H13C     HL       0.250000       1.00800           0
      6993 MEMB     67       POPC     C14      CTL5    -0.350000       12.0110           0
      6994 MEMB     67       POPC     H14A     HL       0.250000       1.00800           0
      6995 MEMB     67       POPC     H14B     HL       0.250000       1.00800           0
      6996 MEMB     67       POPC     H14C     HL       0.250000       1.00800           0
      6997 MEMB     67       POPC     C15      CTL5    -0.350000       12.0110           0
      6998 MEMB     67       POPC     H15A     HL       0.250000       1.00800           0
      6999 MEMB     67       POPC     H15B     HL       0.250000       1.00800           0
      7000 MEMB     67       POPC     H15C     HL       0.250000       1.00800           0
      7001 MEMB     67       POPC     C11      CTL2    -0.800000E-01   12.0110           0
      7002 MEMB     67       POPC     H11A     HAL2     0.900000E-01   1.00800           0
      7003 MEMB     67       POPC     H11B     HAL2     0.900000E-01   1.00800           0
      7004 MEMB     67       POPC     P        PL        1.50000       30.9740           0
      7005 MEMB     67       POPC     O13      O2L     -0.780000       15.9994           0
      7006 MEMB     67       POPC     O14      O2L     -0.780000       15.9994           0
      7007 MEMB     67       POPC     O12      OSLP    -0.570000       15.9994           0
      7008 MEMB     67       POPC     O11      OSLP    -0.570000       15.9994           0
      7009 MEMB     67       POPC     C1       CTL2    -0.800000E-01   12.0110           0
      7010 MEMB     67       POPC     HA       HAL2     0.900000E-01   1.00800           0
      7011 MEMB     67       POPC     HB       HAL2     0.900000E-01   1.00800           0
      7012 MEMB     67       POPC     C2       CTL1     0.170000       12.0110           0
      7013 MEMB     67       POPC     HS       HAL1     0.900000E-01   1.00800           0
      7014 MEMB     67       POPC     O21      OSL     -0.490000       15.9994           0
      7015 MEMB     67       POPC     C21      CL       0.900000       12.0110           0
      7016 MEMB     67       POPC     O22      OBL     -0.630000       15.9994           0
      7017 MEMB     67       POPC     C22      CTL2    -0.220000       12.0110           0
      7018 MEMB     67       POPC     H2R      HAL2     0.900000E-01   1.00800           0
      7019 MEMB     67       POPC     H2S      HAL2     0.900000E-01   1.00800           0
      7020 MEMB     67       POPC     C3       CTL2     0.800000E-01   12.0110           0
      7021 MEMB     67       POPC     HX       HAL2     0.900000E-01   1.00800           0
      7022 MEMB     67       POPC     HY       HAL2     0.900000E-01   1.00800           0
      7023 MEMB     67       POPC     O31      OSL     -0.490000       15.9994           0
      7024 MEMB     67       POPC     C31      CL       0.900000       12.0110           0
      7025 MEMB     67       POPC     O32      OBL     -0.630000       15.9994           0
      7026 MEMB     67       POPC     C32      CTL2    -0.220000       12.0110           0
      7027 MEMB     67       POPC     H2X      HAL2     0.900000E-01   1.00800           0
      7028 MEMB     67       POPC     H2Y      HAL2     0.900000E-01   1.00800           0
      7029 MEMB     67       POPC     C23      CTL2    -0.180000       12.0110           0
      7030 MEMB     67       POPC     H3R      HAL2     0.900000E-01   1.00800           0
      7031 MEMB     67       POPC     H3S      HAL2     0.900000E-01   1.00800           0
      7032 MEMB     67       POPC     C24      CTL2    -0.180000       12.0110           0
      7033 MEMB     67       POPC     H4R      HAL2     0.900000E-01   1.00800           0
      7034 MEMB     67       POPC     H4S      HAL2     0.900000E-01   1.00800           0
      7035 MEMB     67       POPC     C25      CTL2    -0.180000       12.0110           0
      7036 MEMB     67       POPC     H5R      HAL2     0.900000E-01   1.00800           0
      7037 MEMB     67       POPC     H5S      HAL2     0.900000E-01   1.00800           0
      7038 MEMB     67       POPC     C26      CTL2    -0.180000       12.0110           0
      7039 MEMB     67       POPC     H6R      HAL2     0.900000E-01   1.00800           0
      7040 MEMB     67       POPC     H6S      HAL2     0.900000E-01   1.00800           0
      7041 MEMB     67       POPC     C27      CTL2    -0.180000       12.0110           0
      7042 MEMB     67       POPC     H7R      HAL2     0.900000E-01   1.00800           0
      7043 MEMB     67       POPC     H7S      HAL2     0.900000E-01   1.00800           0
      7044 MEMB     67       POPC     C28      CTL2    -0.180000       12.0110           0
      7045 MEMB     67       POPC     H8R      HAL2     0.900000E-01   1.00800           0
      7046 MEMB     67       POPC     H8S      HAL2     0.900000E-01   1.00800           0
      7047 MEMB     67       POPC     C29      CEL1    -0.150000       12.0110           0
      7048 MEMB     67       POPC     H91      HEL1     0.150000       1.00800           0
      7049 MEMB     67       POPC     C210     CEL1    -0.150000       12.0110           0
      7050 MEMB     67       POPC     H101     HEL1     0.150000       1.00800           0
      7051 MEMB     67       POPC     C211     CTL2    -0.180000       12.0110           0
      7052 MEMB     67       POPC     H11R     HAL2     0.900000E-01   1.00800           0
      7053 MEMB     67       POPC     H11S     HAL2     0.900000E-01   1.00800           0
      7054 MEMB     67       POPC     C212     CTL2    -0.180000       12.0110           0
      7055 MEMB     67       POPC     H12R     HAL2     0.900000E-01   1.00800           0
      7056 MEMB     67       POPC     H12S     HAL2     0.900000E-01   1.00800           0
      7057 MEMB     67       POPC     C213     CTL2    -0.180000       12.0110           0
      7058 MEMB     67       POPC     H13R     HAL2     0.900000E-01   1.00800           0
      7059 MEMB     67       POPC     H13S     HAL2     0.900000E-01   1.00800           0
      7060 MEMB     67       POPC     C214     CTL2    -0.180000       12.0110           0
      7061 MEMB     67       POPC     H14R     HAL2     0.900000E-01   1.00800           0
      7062 MEMB     67       POPC     H14S     HAL2     0.900000E-01   1.00800           0
      7063 MEMB     67       POPC     C215     CTL2    -0.180000       12.0110           0
      7064 MEMB     67       POPC     H15R     HAL2     0.900000E-01   1.00800           0
      7065 MEMB     67       POPC     H15S     HAL2     0.900000E-01   1.00800           0
      7066 MEMB     67       POPC     C216     CTL2    -0.180000       12.0110           0
      7067 MEMB     67       POPC     H16R     HAL2     0.900000E-01   1.00800           0
      7068 MEMB     67       POPC     H16S     HAL2     0.900000E-01   1.00800           0
      7069 MEMB     67       POPC     C217     CTL2    -0.180000       12.0110           0
      7070 MEMB     67       POPC     H17R     HAL2     0.900000E-01   1.00800           0
      7071 MEMB     67       POPC     H17S     HAL2     0.900000E-01   1.00800           0
      7072 MEMB     67       POPC     C218     CTL3    -0.270000       12.0110           0
      7073 MEMB     67       POPC     H18R     HAL3     0.900000E-01   1.00800           0
      7074 MEMB     67       POPC     H18S     HAL3     0.900000E-01   1.00800           0
      7075 MEMB     67       POPC     H18T     HAL3     0.900000E-01   1.00800           0
      7076 MEMB     67       POPC     C33      CTL2    -0.180000       12.0110           0
      7077 MEMB     67       POPC     H3X      HAL2     0.900000E-01   1.00800           0
      7078 MEMB     67       POPC     H3Y      HAL2     0.900000E-01   1.00800           0
      7079 MEMB     67       POPC     C34      CTL2    -0.180000       12.0110           0
      7080 MEMB     67       POPC     H4X      HAL2     0.900000E-01   1.00800           0
      7081 MEMB     67       POPC     H4Y      HAL2     0.900000E-01   1.00800           0
      7082 MEMB     67       POPC     C35      CTL2    -0.180000       12.0110           0
      7083 MEMB     67       POPC     H5X      HAL2     0.900000E-01   1.00800           0
      7084 MEMB     67       POPC     H5Y      HAL2     0.900000E-01   1.00800           0
      7085 MEMB     67       POPC     C36      CTL2    -0.180000       12.0110           0
      7086 MEMB     67       POPC     H6X      HAL2     0.900000E-01   1.00800           0
      7087 MEMB     67       POPC     H6Y      HAL2     0.900000E-01   1.00800           0
      7088 MEMB     67       POPC     C37      CTL2    -0.180000       12.0110           0
      7089 MEMB     67       POPC     H7X      HAL2     0.900000E-01   1.00800           0
      7090 MEMB     67       POPC     H7Y      HAL2     0.900000E-01   1.00800           0
      7091 MEMB     67       POPC     C38      CTL2    -0.180000       12.0110           0
      7092 MEMB     67       POPC     H8X      HAL2     0.900000E-01   1.00800           0
      7093 MEMB     67       POPC     H8Y      HAL2     0.900000E-01   1.00800           0
      7094 MEMB     67       POPC     C39      CTL2    -0.180000       12.0110           0
      7095 MEMB     67       POPC     H9X      HAL2     0.900000E-01   1.00800           0
      7096 MEMB     67       POPC     H9Y      HAL2     0.900000E-01   1.00800           0
      7097 MEMB     67       POPC     C310     CTL2    -0.180000       12.0110           0
      7098 MEMB     67       POPC     H10X     HAL2     0.900000E-01   1.00800           0
      7099 MEMB     67       POPC     H10Y     HAL2     0.900000E-01   1.00800           0
      7100 MEMB     67       POPC     C311     CTL2    -0.180000       12.0110           0
      7101 MEMB     67       POPC     H11X     HAL2     0.900000E-01   1.00800           0
      7102 MEMB     67       POPC     H11Y     HAL2     0.900000E-01   1.00800           0
      7103 MEMB     67       POPC     C312     CTL2    -0.180000       12.0110           0
      7104 MEMB     67       POPC     H12X     HAL2     0.900000E-01   1.00800           0
      7105 MEMB     67       POPC     H12Y     HAL2     0.900000E-01   1.00800           0
      7106 MEMB     67       POPC     C313     CTL2    -0.180000       12.0110           0
      7107 MEMB     67       POPC     H13X     HAL2     0.900000E-01   1.00800           0
      7108 MEMB     67       POPC     H13Y     HAL2     0.900000E-01   1.00800           0
      7109 MEMB     67       POPC     C314     CTL2    -0.180000       12.0110           0
      7110 MEMB     67       POPC     H14X     HAL2     0.900000E-01   1.00800           0
      7111 MEMB     67       POPC     H14Y     HAL2     0.900000E-01   1.00800           0
      7112 MEMB     67       POPC     C315     CTL2    -0.180000       12.0110           0
      7113 MEMB     67       POPC     H15X     HAL2     0.900000E-01   1.00800           0
      7114 MEMB     67       POPC     H15Y     HAL2     0.900000E-01   1.00800           0
      7115 MEMB     67       POPC     C316     CTL3    -0.270000       12.0110           0
      7116 MEMB     67       POPC     H16X     HAL3     0.900000E-01   1.00800           0
      7117 MEMB     67       POPC     H16Y     HAL3     0.900000E-01   1.00800           0
      7118 MEMB     67       POPC     H16Z     HAL3     0.900000E-01   1.00800           0
      7119 MEMB     68       POPC     N        NTL     -0.600000       14.0070           0
      7120 MEMB     68       POPC     C12      CTL2    -0.100000       12.0110           0
      7121 MEMB     68       POPC     H12A     HL       0.250000       1.00800           0
      7122 MEMB     68       POPC     H12B     HL       0.250000       1.00800           0
      7123 MEMB     68       POPC     C13      CTL5    -0.350000       12.0110           0
      7124 MEMB     68       POPC     H13A     HL       0.250000       1.00800           0
      7125 MEMB     68       POPC     H13B     HL       0.250000       1.00800           0
      7126 MEMB     68       POPC     H13C     HL       0.250000       1.00800           0
      7127 MEMB     68       POPC     C14      CTL5    -0.350000       12.0110           0
      7128 MEMB     68       POPC     H14A     HL       0.250000       1.00800           0
      7129 MEMB     68       POPC     H14B     HL       0.250000       1.00800           0
      7130 MEMB     68       POPC     H14C     HL       0.250000       1.00800           0
      7131 MEMB     68       POPC     C15      CTL5    -0.350000       12.0110           0
      7132 MEMB     68       POPC     H15A     HL       0.250000       1.00800           0
      7133 MEMB     68       POPC     H15B     HL       0.250000       1.00800           0
      7134 MEMB     68       POPC     H15C     HL       0.250000       1.00800           0
      7135 MEMB     68       POPC     C11      CTL2    -0.800000E-01   12.0110           0
      7136 MEMB     68       POPC     H11A     HAL2     0.900000E-01   1.00800           0
      7137 MEMB     68       POPC     H11B     HAL2     0.900000E-01   1.00800           0
      7138 MEMB     68       POPC     P        PL        1.50000       30.9740           0
      7139 MEMB     68       POPC     O13      O2L     -0.780000       15.9994           0
      7140 MEMB     68       POPC     O14      O2L     -0.780000       15.9994           0
      7141 MEMB     68       POPC     O12      OSLP    -0.570000       15.9994           0
      7142 MEMB     68       POPC     O11      OSLP    -0.570000       15.9994           0
      7143 MEMB     68       POPC     C1       CTL2    -0.800000E-01   12.0110           0
      7144 MEMB     68       POPC     HA       HAL2     0.900000E-01   1.00800           0
      7145 MEMB     68       POPC     HB       HAL2     0.900000E-01   1.00800           0
      7146 MEMB     68       POPC     C2       CTL1     0.170000       12.0110           0
      7147 MEMB     68       POPC     HS       HAL1     0.900000E-01   1.00800           0
      7148 MEMB     68       POPC     O21      OSL     -0.490000       15.9994           0
      7149 MEMB     68       POPC     C21      CL       0.900000       12.0110           0
      7150 MEMB     68       POPC     O22      OBL     -0.630000       15.9994           0
      7151 MEMB     68       POPC     C22      CTL2    -0.220000       12.0110           0
      7152 MEMB     68       POPC     H2R      HAL2     0.900000E-01   1.00800           0
      7153 MEMB     68       POPC     H2S      HAL2     0.900000E-01   1.00800           0
      7154 MEMB     68       POPC     C3       CTL2     0.800000E-01   12.0110           0
      7155 MEMB     68       POPC     HX       HAL2     0.900000E-01   1.00800           0
      7156 MEMB     68       POPC     HY       HAL2     0.900000E-01   1.00800           0
      7157 MEMB     68       POPC     O31      OSL     -0.490000       15.9994           0
      7158 MEMB     68       POPC     C31      CL       0.900000       12.0110           0
      7159 MEMB     68       POPC     O32      OBL     -0.630000       15.9994           0
      7160 MEMB     68       POPC     C32      CTL2    -0.220000       12.0110           0
      7161 MEMB     68       POPC     H2X      HAL2     0.900000E-01   1.00800           0
      7162 MEMB     68       POPC     H2Y      HAL2     0.900000E-01   1.00800           0
      7163 MEMB     68       POPC     C23      CTL2    -0.180000       12.0110           0
      7164 MEMB     68       POPC     H3R      HAL2     0.900000E-01   1.00800           0
      7165 MEMB     68       POPC     H3S      HAL2     0.900000E-01   1.00800           0
      7166 MEMB     68       POPC     C24      CTL2    -0.180000       12.0110           0
      7167 MEMB     68       POPC     H4R      HAL2     0.900000E-01   1.00800           0
      7168 MEMB     68       POPC     H4S      HAL2     0.900000E-01   1.00800           0
      7169 MEMB     68       POPC     C25      CTL2    -0.180000       12.0110           0
      7170 MEMB     68       POPC     H5R      HAL2     0.900000E-01   1.00800           0
      7171 MEMB     68       POPC     H5S      HAL2     0.900000E-01   1.00800           0
      7172 MEMB     68       POPC     C26      CTL2    -0.180000       12.0110           0
      7173 MEMB     68       POPC     H6R      HAL2     0.900000E-01   1.00800           0
      7174 MEMB     68       POPC     H6S      HAL2     0.900000E-01   1.00800           0
      7175 MEMB     68       POPC     C27      CTL2    -0.180000       12.0110           0
      7176 MEMB     68       POPC     H7R      HAL2     0.900000E-01   1.00800           0
      7177 MEMB     68       POPC     H7S      HAL2     0.900000E-01   1.00800           0
      7178 MEMB     68       POPC     C28      CTL2    -0.180000       12.0110           0
      7179 MEMB     68       POPC     H8R      HAL2     0.900000E-01   1.00800           0
      7180 MEMB     68       POPC     H8S      HAL2     0.900000E-01   1.00800           0
      7181 MEMB     68       POPC     C29      CEL1    -0.150000       12.0110           0
      7182 MEMB     68       POPC     H91      HEL1     0.150000       1.00800           0
      7183 MEMB     68       POPC     C210     CEL1    -0.150000       12.0110           0
      7184 MEMB     68       POPC     H101     HEL1     0.150000       1.00800           0
      7185 MEMB     68       POPC     C211     CTL2    -0.180000       12.0110           0
      7186 MEMB     68       POPC     H11R     HAL2     0.900000E-01   1.00800           0
      7187 MEMB     68       POPC     H11S     HAL2     0.900000E-01   1.00800           0
      7188 MEMB     68       POPC     C212     CTL2    -0.180000       12.0110           0
      7189 MEMB     68       POPC     H12R     HAL2     0.900000E-01   1.00800           0
      7190 MEMB     68       POPC     H12S     HAL2     0.900000E-01   1.00800           0
      7191 MEMB     68       POPC     C213     CTL2    -0.180000       12.0110           0
      7192 MEMB     68       POPC     H13R     HAL2     0.900000E-01   1.00800           0
      7193 MEMB     68       POPC     H13S     HAL2     0.900000E-01   1.00800           0
      7194 MEMB     68       POPC     C214     CTL2    -0.180000       12.0110           0
      7195 MEMB     68       POPC     H14R     HAL2     0.900000E-01   1.00800           0
      7196 MEMB     68       POPC     H14S     HAL2     0.900000E-01   1.00800           0
      7197 MEMB     68       POPC     C215     CTL2    -0.180000       12.0110           0
      7198 MEMB     68       POPC     H15R     HAL2     0.900000E-01   1.00800           0
      7199 MEMB     68       POPC     H15S     HAL2     0.900000E-01   1.00800           0
      7200 MEMB     68       POPC     C216     CTL2    -0.180000       12.0110           0
      7201 MEMB     68       POPC     H16R     HAL2     0.900000E-01   1.00800           0
      7202 MEMB     68       POPC     H16S     HAL2     0.900000E-01   1.00800           0
      7203 MEMB     68       POPC     C217     CTL2    -0.180000       12.0110           0
      7204 MEMB     68       POPC     H17R     HAL2     0.900000E-01   1.00800           0
      7205 MEMB     68       POPC     H17S     HAL2     0.900000E-01   1.00800           0
      7206 MEMB     68       POPC     C218     CTL3    -0.270000       12.0110           0
      7207 MEMB     68       POPC     H18R     HAL3     0.900000E-01   1.00800           0
      7208 MEMB     68       POPC     H18S     HAL3     0.900000E-01   1.00800           0
      7209 MEMB     68       POPC     H18T     HAL3     0.900000E-01   1.00800           0
      7210 MEMB     68       POPC     C33      CTL2    -0.180000       12.0110           0
      7211 MEMB     68       POPC     H3X      HAL2     0.900000E-01   1.00800           0
      7212 MEMB     68       POPC     H3Y      HAL2     0.900000E-01   1.00800           0
      7213 MEMB     68       POPC     C34      CTL2    -0.180000       12.0110           0
      7214 MEMB     68       POPC     H4X      HAL2     0.900000E-01   1.00800           0
      7215 MEMB     68       POPC     H4Y      HAL2     0.900000E-01   1.00800           0
      7216 MEMB     68       POPC     C35      CTL2    -0.180000       12.0110           0
      7217 MEMB     68       POPC     H5X      HAL2     0.900000E-01   1.00800           0
      7218 MEMB     68       POPC     H5Y      HAL2     0.900000E-01   1.00800           0
      7219 MEMB     68       POPC     C36      CTL2    -0.180000       12.0110           0
      7220 MEMB     68       POPC     H6X      HAL2     0.900000E-01   1.00800           0
      7221 MEMB     68       POPC     H6Y      HAL2     0.900000E-01   1.00800           0
      7222 MEMB     68       POPC     C37      CTL2    -0.180000       12.0110           0
      7223 MEMB     68       POPC     H7X      HAL2     0.900000E-01   1.00800           0
      7224 MEMB     68       POPC     H7Y      HAL2     0.900000E-01   1.00800           0
      7225 MEMB     68       POPC     C38      CTL2    -0.180000       12.0110           0
      7226 MEMB     68       POPC     H8X      HAL2     0.900000E-01   1.00800           0
      7227 MEMB     68       POPC     H8Y      HAL2     0.900000E-01   1.00800           0
      7228 MEMB     68       POPC     C39      CTL2    -0.180000       12.0110           0
      7229 MEMB     68       POPC     H9X      HAL2     0.900000E-01   1.00800           0
      7230 MEMB     68       POPC     H9Y      HAL2     0.900000E-01   1.00800           0
      7231 MEMB     68       POPC     C310     CTL2    -0.180000       12.0110           0
      7232 MEMB     68       POPC     H10X     HAL2     0.900000E-01   1.00800           0
      7233 MEMB     68       POPC     H10Y     HAL2     0.900000E-01   1.00800           0
      7234 MEMB     68       POPC     C311     CTL2    -0.180000       12.0110           0
      7235 MEMB     68       POPC     H11X     HAL2     0.900000E-01   1.00800           0
      7236 MEMB     68       POPC     H11Y     HAL2     0.900000E-01   1.00800           0
      7237 MEMB     68       POPC     C312     CTL2    -0.180000       12.0110           0
      7238 MEMB     68       POPC     H12X     HAL2     0.900000E-01   1.00800           0
      7239 MEMB     68       POPC     H12Y     HAL2     0.900000E-01   1.00800           0
      7240 MEMB     68       POPC     C313     CTL2    -0.180000       12.0110           0
      7241 MEMB     68       POPC     H13X     HAL2     0.900000E-01   1.00800           0
      7242 MEMB     68       POPC     H13Y     HAL2     0.900000E-01   1.00800           0
      7243 MEMB     68       POPC     C314     CTL2    -0.180000       12.0110           0
      7244 MEMB     68       POPC     H14X     HAL2     0.900000E-01   1.00800           0
      7245 MEMB     68       POPC     H14Y     HAL2     0.900000E-01   1.00800           0
      7246 MEMB     68       POPC     C315     CTL2    -0.180000       12.0110           0
      7247 MEMB     68       POPC     H15X     HAL2     0.900000E-01   1.00800           0
      7248 MEMB     68       POPC     H15Y     HAL2     0.900000E-01   1.00800           0
      7249 MEMB     68       POPC     C316     CTL3    -0.270000       12.0110           0
      7250 MEMB     68       POPC     H16X     HAL3     0.900000E-01   1.00800           0
      7251 MEMB     68       POPC     H16Y     HAL3     0.900000E-01   1.00800           0
      7252 MEMB     68       POPC     H16Z     HAL3     0.900000E-01   1.00800           0
      7253 MEMB     69       POPC     N        NTL     -0.600000       14.0070           0
      7254 MEMB     69       POPC     C12      CTL2    -0.100000       12.0110           0
      7255 MEMB     69       POPC     H12A     HL       0.250000       1.00800           0
      7256 MEMB     69       POPC     H12B     HL       0.250000       1.00800           0
      7257 MEMB     69       POPC     C13      CTL5    -0.350000       12.0110           0
      7258 MEMB     69       POPC     H13A     HL       0.250000       1.00800           0
      7259 MEMB     69       POPC     H13B     HL       0.250000       1.00800           0
      7260 MEMB     69       POPC     H13C     HL       0.250000       1.00800           0
      7261 MEMB     69       POPC     C14      CTL5    -0.350000       12.0110           0
      7262 MEMB     69       POPC     H14A     HL       0.250000       1.00800           0
      7263 MEMB     69       POPC     H14B     HL       0.250000       1.00800           0
      7264 MEMB     69       POPC     H14C     HL       0.250000       1.00800           0
      7265 MEMB     69       POPC     C15      CTL5    -0.350000       12.0110           0
      7266 MEMB     69       POPC     H15A     HL       0.250000       1.00800           0
      7267 MEMB     69       POPC     H15B     HL       0.250000       1.00800           0
      7268 MEMB     69       POPC     H15C     HL       0.250000       1.00800           0
      7269 MEMB     69       POPC     C11      CTL2    -0.800000E-01   12.0110           0
      7270 MEMB     69       POPC     H11A     HAL2     0.900000E-01   1.00800           0
      7271 MEMB     69       POPC     H11B     HAL2     0.900000E-01   1.00800           0
      7272 MEMB     69       POPC     P        PL        1.50000       30.9740           0
      7273 MEMB     69       POPC     O13      O2L     -0.780000       15.9994           0
      7274 MEMB     69       POPC     O14      O2L     -0.780000       15.9994           0
      7275 MEMB     69       POPC     O12      OSLP    -0.570000       15.9994           0
      7276 MEMB     69       POPC     O11      OSLP    -0.570000       15.9994           0
      7277 MEMB     69       POPC     C1       CTL2    -0.800000E-01   12.0110           0
      7278 MEMB     69       POPC     HA       HAL2     0.900000E-01   1.00800           0
      7279 MEMB     69       POPC     HB       HAL2     0.900000E-01   1.00800           0
      7280 MEMB     69       POPC     C2       CTL1     0.170000       12.0110           0
      7281 MEMB     69       POPC     HS       HAL1     0.900000E-01   1.00800           0
      7282 MEMB     69       POPC     O21      OSL     -0.490000       15.9994           0
      7283 MEMB     69       POPC     C21      CL       0.900000       12.0110           0
      7284 MEMB     69       POPC     O22      OBL     -0.630000       15.9994           0
      7285 MEMB     69       POPC     C22      CTL2    -0.220000       12.0110           0
      7286 MEMB     69       POPC     H2R      HAL2     0.900000E-01   1.00800           0
      7287 MEMB     69       POPC     H2S      HAL2     0.900000E-01   1.00800           0
      7288 MEMB     69       POPC     C3       CTL2     0.800000E-01   12.0110           0
      7289 MEMB     69       POPC     HX       HAL2     0.900000E-01   1.00800           0
      7290 MEMB     69       POPC     HY       HAL2     0.900000E-01   1.00800           0
      7291 MEMB     69       POPC     O31      OSL     -0.490000       15.9994           0
      7292 MEMB     69       POPC     C31      CL       0.900000       12.0110           0
      7293 MEMB     69       POPC     O32      OBL     -0.630000       15.9994           0
      7294 MEMB     69       POPC     C32      CTL2    -0.220000       12.0110           0
      7295 MEMB     69       POPC     H2X      HAL2     0.900000E-01   1.00800           0
      7296 MEMB     69       POPC     H2Y      HAL2     0.900000E-01   1.00800           0
      7297 MEMB     69       POPC     C23      CTL2    -0.180000       12.0110           0
      7298 MEMB     69       POPC     H3R      HAL2     0.900000E-01   1.00800           0
      7299 MEMB     69       POPC     H3S      HAL2     0.900000E-01   1.00800           0
      7300 MEMB     69       POPC     C24      CTL2    -0.180000       12.0110           0
      7301 MEMB     69       POPC     H4R      HAL2     0.900000E-01   1.00800           0
      7302 MEMB     69       POPC     H4S      HAL2     0.900000E-01   1.00800           0
      7303 MEMB     69       POPC     C25      CTL2    -0.180000       12.0110           0
      7304 MEMB     69       POPC     H5R      HAL2     0.900000E-01   1.00800           0
      7305 MEMB     69       POPC     H5S      HAL2     0.900000E-01   1.00800           0
      7306 MEMB     69       POPC     C26      CTL2    -0.180000       12.0110           0
      7307 MEMB     69       POPC     H6R      HAL2     0.900000E-01   1.00800           0
      7308 MEMB     69       POPC     H6S      HAL2     0.900000E-01   1.00800           0
      7309 MEMB     69       POPC     C27      CTL2    -0.180000       12.0110           0
      7310 MEMB     69       POPC     H7R      HAL2     0.900000E-01   1.00800           0
      7311 MEMB     69       POPC     H7S      HAL2     0.900000E-01   1.00800           0
      7312 MEMB     69       POPC     C28      CTL2    -0.180000       12.0110           0
      7313 MEMB     69       POPC     H8R      HAL2     0.900000E-01   1.00800           0
      7314 MEMB     69       POPC     H8S      HAL2     0.900000E-01   1.00800           0
      7315 MEMB     69       POPC     C29      CEL1    -0.150000       12.0110           0
      7316 MEMB     69       POPC     H91      HEL1     0.150000       1.00800           0
      7317 MEMB     69       POPC     C210     CEL1    -0.150000       12.0110           0
      7318 MEMB     69       POPC     H101     HEL1     0.150000       1.00800           0
      7319 MEMB     69       POPC     C211     CTL2    -0.180000       12.0110           0
      7320 MEMB     69       POPC     H11R     HAL2     0.900000E-01   1.00800           0
      7321 MEMB     69       POPC     H11S     HAL2     0.900000E-01   1.00800           0
      7322 MEMB     69       POPC     C212     CTL2    -0.180000       12.0110           0
      7323 MEMB     69       POPC     H12R     HAL2     0.900000E-01   1.00800           0
      7324 MEMB     69       POPC     H12S     HAL2     0.900000E-01   1.00800           0
      7325 MEMB     69       POPC     C213     CTL2    -0.180000       12.0110           0
      7326 MEMB     69       POPC     H13R     HAL2     0.900000E-01   1.00800           0
      7327 MEMB     69       POPC     H13S     HAL2     0.900000E-01   1.00800           0
      7328 MEMB     69       POPC     C214     CTL2    -0.180000       12.0110           0
      7329 MEMB     69       POPC     H14R     HAL2     0.900000E-01   1.00800           0
      7330 MEMB     69       POPC     H14S     HAL2     0.900000E-01   1.00800           0
      7331 MEMB     69       POPC     C215     CTL2    -0.180000       12.0110           0
      7332 MEMB     69       POPC     H15R     HAL2     0.900000E-01   1.00800           0
      7333 MEMB     69       POPC     H15S     HAL2     0.900000E-01   1.00800           0
      7334 MEMB     69       POPC     C216     CTL2    -0.180000       12.0110           0
      7335 MEMB     69       POPC     H16R     HAL2     0.900000E-01   1.00800           0
      7336 MEMB     69       POPC     H16S     HAL2     0.900000E-01   1.00800           0
      7337 MEMB     69       POPC     C217     CTL2    -0.180000       12.0110           0
      7338 MEMB     69       POPC     H17R     HAL2     0.900000E-01   1.00800           0
      7339 MEMB     69       POPC     H17S     HAL2     0.900000E-01   1.00800           0
      7340 MEMB     69       POPC     C218     CTL3    -0.270000       12.0110           0
      7341 MEMB     69       POPC     H18R     HAL3     0.900000E-01   1.00800           0
      7342 MEMB     69       POPC     H18S     HAL3     0.900000E-01   1.00800           0
      7343 MEMB     69       POPC     H18T     HAL3     0.900000E-01   1.00800           0
      7344 MEMB     69       POPC     C33      CTL2    -0.180000       12.0110           0
      7345 MEMB     69       POPC     H3X      HAL2     0.900000E-01   1.00800           0
      7346 MEMB     69       POPC     H3Y      HAL2     0.900000E-01   1.00800           0
      7347 MEMB     69       POPC     C34      CTL2    -0.180000       12.0110           0
      7348 MEMB     69       POPC     H4X      HAL2     0.900000E-01   1.00800           0
      7349 MEMB     69       POPC     H4Y      HAL2     0.900000E-01   1.00800           0
      7350 MEMB     69       POPC     C35      CTL2    -0.180000       12.0110           0
      7351 MEMB     69       POPC     H5X      HAL2     0.900000E-01   1.00800           0
      7352 MEMB     69       POPC     H5Y      HAL2     0.900000E-01   1.00800           0
      7353 MEMB     69       POPC     C36      CTL2    -0.180000       12.0110           0
      7354 MEMB     69       POPC     H6X      HAL2     0.900000E-01   1.00800           0
      7355 MEMB     69       POPC     H6Y      HAL2     0.900000E-01   1.00800           0
      7356 MEMB     69       POPC     C37      CTL2    -0.180000       12.0110           0
      7357 MEMB     69       POPC     H7X      HAL2     0.900000E-01   1.00800           0
      7358 MEMB     69       POPC     H7Y      HAL2     0.900000E-01   1.00800           0
      7359 MEMB     69       POPC     C38      CTL2    -0.180000       12.0110           0
      7360 MEMB     69       POPC     H8X      HAL2     0.900000E-01   1.00800           0
      7361 MEMB     69       POPC     H8Y      HAL2     0.900000E-01   1.00800           0
      7362 MEMB     69       POPC     C39      CTL2    -0.180000       12.0110           0
      7363 MEMB     69       POPC     H9X      HAL2     0.900000E-01   1.00800           0
      7364 MEMB     69       POPC     H9Y      HAL2     0.900000E-01   1.00800           0
      7365 MEMB     69       POPC     C310     CTL2    -0.180000       12.0110           0
      7366 MEMB     69       POPC     H10X     HAL2     0.900000E-01   1.00800           0
      7367 MEMB     69       POPC     H10Y     HAL2     0.900000E-01   1.00800           0
      7368 MEMB     69       POPC     C311     CTL2    -0.180000       12.0110           0
      7369 MEMB     69       POPC     H11X     HAL2     0.900000E-01   1.00800           0
      7370 MEMB     69       POPC     H11Y     HAL2     0.900000E-01   1.00800           0
      7371 MEMB     69       POPC     C312     CTL2    -0.180000       12.0110           0
      7372 MEMB     69       POPC     H12X     HAL2     0.900000E-01   1.00800           0
      7373 MEMB     69       POPC     H12Y     HAL2     0.900000E-01   1.00800           0
      7374 MEMB     69       POPC     C313     CTL2    -0.180000       12.0110           0
      7375 MEMB     69       POPC     H13X     HAL2     0.900000E-01   1.00800           0
      7376 MEMB     69       POPC     H13Y     HAL2     0.900000E-01   1.00800           0
      7377 MEMB     69       POPC     C314     CTL2    -0.180000       12.0110           0
      7378 MEMB     69       POPC     H14X     HAL2     0.900000E-01   1.00800           0
      7379 MEMB     69       POPC     H14Y     HAL2     0.900000E-01   1.00800           0
      7380 MEMB     69       POPC     C315     CTL2    -0.180000       12.0110           0
      7381 MEMB     69       POPC     H15X     HAL2     0.900000E-01   1.00800           0
      7382 MEMB     69       POPC     H15Y     HAL2     0.900000E-01   1.00800           0
      7383 MEMB     69       POPC     C316     CTL3    -0.270000       12.0110           0
      7384 MEMB     69       POPC     H16X     HAL3     0.900000E-01   1.00800           0
      7385 MEMB     69       POPC     H16Y     HAL3     0.900000E-01   1.00800           0
      7386 MEMB     69       POPC     H16Z     HAL3     0.900000E-01   1.00800           0
      7387 MEMB     70       POPC     N        NTL     -0.600000       14.0070           0
      7388 MEMB     70       POPC     C12      CTL2    -0.100000       12.0110           0
      7389 MEMB     70       POPC     H12A     HL       0.250000       1.00800           0
      7390 MEMB     70       POPC     H12B     HL       0.250000       1.00800           0
      7391 MEMB     70       POPC     C13      CTL5    -0.350000       12.0110           0
      7392 MEMB     70       POPC     H13A     HL       0.250000       1.00800           0
      7393 MEMB     70       POPC     H13B     HL       0.250000       1.00800           0
      7394 MEMB     70       POPC     H13C     HL       0.250000       1.00800           0
      7395 MEMB     70       POPC     C14      CTL5    -0.350000       12.0110           0
      7396 MEMB     70       POPC     H14A     HL       0.250000       1.00800           0
      7397 MEMB     70       POPC     H14B     HL       0.250000       1.00800           0
      7398 MEMB     70       POPC     H14C     HL       0.250000       1.00800           0
      7399 MEMB     70       POPC     C15      CTL5    -0.350000       12.0110           0
      7400 MEMB     70       POPC     H15A     HL       0.250000       1.00800           0
      7401 MEMB     70       POPC     H15B     HL       0.250000       1.00800           0
      7402 MEMB     70       POPC     H15C     HL       0.250000       1.00800           0
      7403 MEMB     70       POPC     C11      CTL2    -0.800000E-01   12.0110           0
      7404 MEMB     70       POPC     H11A     HAL2     0.900000E-01   1.00800           0
      7405 MEMB     70       POPC     H11B     HAL2     0.900000E-01   1.00800           0
      7406 MEMB     70       POPC     P        PL        1.50000       30.9740           0
      7407 MEMB     70       POPC     O13      O2L     -0.780000       15.9994           0
      7408 MEMB     70       POPC     O14      O2L     -0.780000       15.9994           0
      7409 MEMB     70       POPC     O12      OSLP    -0.570000       15.9994           0
      7410 MEMB     70       POPC     O11      OSLP    -0.570000       15.9994           0
      7411 MEMB     70       POPC     C1       CTL2    -0.800000E-01   12.0110           0
      7412 MEMB     70       POPC     HA       HAL2     0.900000E-01   1.00800           0
      7413 MEMB     70       POPC     HB       HAL2     0.900000E-01   1.00800           0
      7414 MEMB     70       POPC     C2       CTL1     0.170000       12.0110           0
      7415 MEMB     70       POPC     HS       HAL1     0.900000E-01   1.00800           0
      7416 MEMB     70       POPC     O21      OSL     -0.490000       15.9994           0
      7417 MEMB     70       POPC     C21      CL       0.900000       12.0110           0
      7418 MEMB     70       POPC     O22      OBL     -0.630000       15.9994           0
      7419 MEMB     70       POPC     C22      CTL2    -0.220000       12.0110           0
      7420 MEMB     70       POPC     H2R      HAL2     0.900000E-01   1.00800           0
      7421 MEMB     70       POPC     H2S      HAL2     0.900000E-01   1.00800           0
      7422 MEMB     70       POPC     C3       CTL2     0.800000E-01   12.0110           0
      7423 MEMB     70       POPC     HX       HAL2     0.900000E-01   1.00800           0
      7424 MEMB     70       POPC     HY       HAL2     0.900000E-01   1.00800           0
      7425 MEMB     70       POPC     O31      OSL     -0.490000       15.9994           0
      7426 MEMB     70       POPC     C31      CL       0.900000       12.0110           0
      7427 MEMB     70       POPC     O32      OBL     -0.630000       15.9994           0
      7428 MEMB     70       POPC     C32      CTL2    -0.220000       12.0110           0
      7429 MEMB     70       POPC     H2X      HAL2     0.900000E-01   1.00800           0
      7430 MEMB     70       POPC     H2Y      HAL2     0.900000E-01   1.00800           0
      7431 MEMB     70       POPC     C23      CTL2    -0.180000       12.0110           0
      7432 MEMB     70       POPC     H3R      HAL2     0.900000E-01   1.00800           0
      7433 MEMB     70       POPC     H3S      HAL2     0.900000E-01   1.00800           0
      7434 MEMB     70       POPC     C24      CTL2    -0.180000       12.0110           0
      7435 MEMB     70       POPC     H4R      HAL2     0.900000E-01   1.00800           0
      7436 MEMB     70       POPC     H4S      HAL2     0.900000E-01   1.00800           0
      7437 MEMB     70       POPC     C25      CTL2    -0.180000       12.0110           0
      7438 MEMB     70       POPC     H5R      HAL2     0.900000E-01   1.00800           0
      7439 MEMB     70       POPC     H5S      HAL2     0.900000E-01   1.00800           0
      7440 MEMB     70       POPC     C26      CTL2    -0.180000       12.0110           0
      7441 MEMB     70       POPC     H6R      HAL2     0.900000E-01   1.00800           0
      7442 MEMB     70       POPC     H6S      HAL2     0.900000E-01   1.00800           0
      7443 MEMB     70       POPC     C27      CTL2    -0.180000       12.0110           0
      7444 MEMB     70       POPC     H7R      HAL2     0.900000E-01   1.00800           0
      7445 MEMB     70       POPC     H7S      HAL2     0.900000E-01   1.00800           0
      7446 MEMB     70       POPC     C28      CTL2    -0.180000       12.0110           0
      7447 MEMB     70       POPC     H8R      HAL2     0.900000E-01   1.00800           0
      7448 MEMB     70       POPC     H8S      HAL2     0.900000E-01   1.00800           0
      7449 MEMB     70       POPC     C29      CEL1    -0.150000       12.0110           0
      7450 MEMB     70       POPC     H91      HEL1     0.150000       1.00800           0
      7451 MEMB     70       POPC     C210     CEL1    -0.150000       12.0110           0
      7452 MEMB     70       POPC     H101     HEL1     0.150000       1.00800           0
      7453 MEMB     70       POPC     C211     CTL2    -0.180000       12.0110           0
      7454 MEMB     70       POPC     H11R     HAL2     0.900000E-01   1.00800           0
      7455 MEMB     70       POPC     H11S     HAL2     0.900000E-01   1.00800           0
      7456 MEMB     70       POPC     C212     CTL2    -0.180000       12.0110           0
      7457 MEMB     70       POPC     H12R     HAL2     0.900000E-01   1.00800           0
      7458 MEMB     70       POPC     H12S     HAL2     0.900000E-01   1.00800           0
      7459 MEMB     70       POPC     C213     CTL2    -0.180000       12.0110           0
      7460 MEMB     70       POPC     H13R     HAL2     0.900000E-01   1.00800           0
      7461 MEMB     70       POPC     H13S     HAL2     0.900000E-01   1.00800           0
      7462 MEMB     70       POPC     C214     CTL2    -0.180000       12.0110           0
      7463 MEMB     70       POPC     H14R     HAL2     0.900000E-01   1.00800           0
      7464 MEMB     70       POPC     H14S     HAL2     0.900000E-01   1.00800           0
      7465 MEMB     70       POPC     C215     CTL2    -0.180000       12.0110           0
      7466 MEMB     70       POPC     H15R     HAL2     0.900000E-01   1.00800           0
      7467 MEMB     70       POPC     H15S     HAL2     0.900000E-01   1.00800           0
      7468 MEMB     70       POPC     C216     CTL2    -0.180000       12.0110           0
      7469 MEMB     70       POPC     H16R     HAL2     0.900000E-01   1.00800           0
      7470 MEMB     70       POPC     H16S     HAL2     0.900000E-01   1.00800           0
      7471 MEMB     70       POPC     C217     CTL2    -0.180000       12.0110           0
      7472 MEMB     70       POPC     H17R     HAL2     0.900000E-01   1.00800           0
      7473 MEMB     70       POPC     H17S     HAL2     0.900000E-01   1.00800           0
      7474 MEMB     70       POPC     C218     CTL3    -0.270000       12.0110           0
      7475 MEMB     70       POPC     H18R     HAL3     0.900000E-01   1.00800           0
      7476 MEMB     70       POPC     H18S     HAL3     0.900000E-01   1.00800           0
      7477 MEMB     70       POPC     H18T     HAL3     0.900000E-01   1.00800           0
      7478 MEMB     70       POPC     C33      CTL2    -0.180000       12.0110           0
      7479 MEMB     70       POPC     H3X      HAL2     0.900000E-01   1.00800           0
      7480 MEMB     70       POPC     H3Y      HAL2     0.900000E-01   1.00800           0
      7481 MEMB     70       POPC     C34      CTL2    -0.180000       12.0110           0
      7482 MEMB     70       POPC     H4X      HAL2     0.900000E-01   1.00800           0
      7483 MEMB     70       POPC     H4Y      HAL2     0.900000E-01   1.00800           0
      7484 MEMB     70       POPC     C35      CTL2    -0.180000       12.0110           0
      7485 MEMB     70       POPC     H5X      HAL2     0.900000E-01   1.00800           0
      7486 MEMB     70       POPC     H5Y      HAL2     0.900000E-01   1.00800           0
      7487 MEMB     70       POPC     C36      CTL2    -0.180000       12.0110           0
      7488 MEMB     70       POPC     H6X      HAL2     0.900000E-01   1.00800           0
      7489 MEMB     70       POPC     H6Y      HAL2     0.900000E-01   1.00800           0
      7490 MEMB     70       POPC     C37      CTL2    -0.180000       12.0110           0
      7491 MEMB     70       POPC     H7X      HAL2     0.900000E-01   1.00800           0
      7492 MEMB     70       POPC     H7Y      HAL2     0.900000E-01   1.00800           0
      7493 MEMB     70       POPC     C38      CTL2    -0.180000       12.0110           0
      7494 MEMB     70       POPC     H8X      HAL2     0.900000E-01   1.00800           0
      7495 MEMB     70       POPC     H8Y      HAL2     0.900000E-01   1.00800           0
      7496 MEMB     70       POPC     C39      CTL2    -0.180000       12.0110           0
      7497 MEMB     70       POPC     H9X      HAL2     0.900000E-01   1.00800           0
      7498 MEMB     70       POPC     H9Y      HAL2     0.900000E-01   1.00800           0
      7499 MEMB     70       POPC     C310     CTL2    -0.180000       12.0110           0
      7500 MEMB     70       POPC     H10X     HAL2     0.900000E-01   1.00800           0
      7501 MEMB     70       POPC     H10Y     HAL2     0.900000E-01   1.00800           0
      7502 MEMB     70       POPC     C311     CTL2    -0.180000       12.0110           0
      7503 MEMB     70       POPC     H11X     HAL2     0.900000E-01   1.00800           0
      7504 MEMB     70       POPC     H11Y     HAL2     0.900000E-01   1.00800           0
      7505 MEMB     70       POPC     C312     CTL2    -0.180000       12.0110           0
      7506 MEMB     70       POPC     H12X     HAL2     0.900000E-01   1.00800           0
      7507 MEMB     70       POPC     H12Y     HAL2     0.900000E-01   1.00800           0
      7508 MEMB     70       POPC     C313     CTL2    -0.180000       12.0110           0
      7509 MEMB     70       POPC     H13X     HAL2     0.900000E-01   1.00800           0
      7510 MEMB     70       POPC     H13Y     HAL2     0.900000E-01   1.00800           0
      7511 MEMB     70       POPC     C314     CTL2    -0.180000       12.0110           0
      7512 MEMB     70       POPC     H14X     HAL2     0.900000E-01   1.00800           0
      7513 MEMB     70       POPC     H14Y     HAL2     0.900000E-01   1.00800           0
      7514 MEMB     70       POPC     C315     CTL2    -0.180000       12.0110           0
      7515 MEMB     70       POPC     H15X     HAL2     0.900000E-01   1.00800           0
      7516 MEMB     70       POPC     H15Y     HAL2     0.900000E-01   1.00800           0
      7517 MEMB     70       POPC     C316     CTL3    -0.270000       12.0110           0
      7518 MEMB     70       POPC     H16X     HAL3     0.900000E-01   1.00800           0
      7519 MEMB     70       POPC     H16Y     HAL3     0.900000E-01   1.00800           0
      7520 MEMB     70       POPC     H16Z     HAL3     0.900000E-01   1.00800           0
      7521 MEMB     71       POPC     N        NTL     -0.600000       14.0070           0
      7522 MEMB     71       POPC     C12      CTL2    -0.100000       12.0110           0
      7523 MEMB     71       POPC     H12A     HL       0.250000       1.00800           0
      7524 MEMB     71       POPC     H12B     HL       0.250000       1.00800           0
      7525 MEMB     71       POPC     C13      CTL5    -0.350000       12.0110           0
      7526 MEMB     71       POPC     H13A     HL       0.250000       1.00800           0
      7527 MEMB     71       POPC     H13B     HL       0.250000       1.00800           0
      7528 MEMB     71       POPC     H13C     HL       0.250000       1.00800           0
      7529 MEMB     71       POPC     C14      CTL5    -0.350000       12.0110           0
      7530 MEMB     71       POPC     H14A     HL       0.250000       1.00800           0
      7531 MEMB     71       POPC     H14B     HL       0.250000       1.00800           0
      7532 MEMB     71       POPC     H14C     HL       0.250000       1.00800           0
      7533 MEMB     71       POPC     C15      CTL5    -0.350000       12.0110           0
      7534 MEMB     71       POPC     H15A     HL       0.250000       1.00800           0
      7535 MEMB     71       POPC     H15B     HL       0.250000       1.00800           0
      7536 MEMB     71       POPC     H15C     HL       0.250000       1.00800           0
      7537 MEMB     71       POPC     C11      CTL2    -0.800000E-01   12.0110           0
      7538 MEMB     71       POPC     H11A     HAL2     0.900000E-01   1.00800           0
      7539 MEMB     71       POPC     H11B     HAL2     0.900000E-01   1.00800           0
      7540 MEMB     71       POPC     P        PL        1.50000       30.9740           0
      7541 MEMB     71       POPC     O13      O2L     -0.780000       15.9994           0
      7542 MEMB     71       POPC     O14      O2L     -0.780000       15.9994           0
      7543 MEMB     71       POPC     O12      OSLP    -0.570000       15.9994           0
      7544 MEMB     71       POPC     O11      OSLP    -0.570000       15.9994           0
      7545 MEMB     71       POPC     C1       CTL2    -0.800000E-01   12.0110           0
      7546 MEMB     71       POPC     HA       HAL2     0.900000E-01   1.00800           0
      7547 MEMB     71       POPC     HB       HAL2     0.900000E-01   1.00800           0
      7548 MEMB     71       POPC     C2       CTL1     0.170000       12.0110           0
      7549 MEMB     71       POPC     HS       HAL1     0.900000E-01   1.00800           0
      7550 MEMB     71       POPC     O21      OSL     -0.490000       15.9994           0
      7551 MEMB     71       POPC     C21      CL       0.900000       12.0110           0
      7552 MEMB     71       POPC     O22      OBL     -0.630000       15.9994           0
      7553 MEMB     71       POPC     C22      CTL2    -0.220000       12.0110           0
      7554 MEMB     71       POPC     H2R      HAL2     0.900000E-01   1.00800           0
      7555 MEMB     71       POPC     H2S      HAL2     0.900000E-01   1.00800           0
      7556 MEMB     71       POPC     C3       CTL2     0.800000E-01   12.0110           0
      7557 MEMB     71       POPC     HX       HAL2     0.900000E-01   1.00800           0
      7558 MEMB     71       POPC     HY       HAL2     0.900000E-01   1.00800           0
      7559 MEMB     71       POPC     O31      OSL     -0.490000       15.9994           0
      7560 MEMB     71       POPC     C31      CL       0.900000       12.0110           0
      7561 MEMB     71       POPC     O32      OBL     -0.630000       15.9994           0
      7562 MEMB     71       POPC     C32      CTL2    -0.220000       12.0110           0
      7563 MEMB     71       POPC     H2X      HAL2     0.900000E-01   1.00800           0
      7564 MEMB     71       POPC     H2Y      HAL2     0.900000E-01   1.00800           0
      7565 MEMB     71       POPC     C23      CTL2    -0.180000       12.0110           0
      7566 MEMB     71       POPC     H3R      HAL2     0.900000E-01   1.00800           0
      7567 MEMB     71       POPC     H3S      HAL2     0.900000E-01   1.00800           0
      7568 MEMB     71       POPC     C24      CTL2    -0.180000       12.0110           0
      7569 MEMB     71       POPC     H4R      HAL2     0.900000E-01   1.00800           0
      7570 MEMB     71       POPC     H4S      HAL2     0.900000E-01   1.00800           0
      7571 MEMB     71       POPC     C25      CTL2    -0.180000       12.0110           0
      7572 MEMB     71       POPC     H5R      HAL2     0.900000E-01   1.00800           0
      7573 MEMB     71       POPC     H5S      HAL2     0.900000E-01   1.00800           0
      7574 MEMB     71       POPC     C26      CTL2    -0.180000       12.0110           0
      7575 MEMB     71       POPC     H6R      HAL2     0.900000E-01   1.00800           0
      7576 MEMB     71       POPC     H6S      HAL2     0.900000E-01   1.00800           0
      7577 MEMB     71       POPC     C27      CTL2    -0.180000       12.0110           0
      7578 MEMB     71       POPC     H7R      HAL2     0.900000E-01   1.00800           0
      7579 MEMB     71       POPC     H7S      HAL2     0.900000E-01   1.00800           0
      7580 MEMB     71       POPC     C28      CTL2    -0.180000       12.0110           0
      7581 MEMB     71       POPC     H8R      HAL2     0.900000E-01   1.00800           0
      7582 MEMB     71       POPC     H8S      HAL2     0.900000E-01   1.00800           0
      7583 MEMB     71       POPC     C29      CEL1    -0.150000       12.0110           0
      7584 MEMB     71       POPC     H91      HEL1     0.150000       1.00800           0
      7585 MEMB     71       POPC     C210     CEL1    -0.150000       12.0110           0
      7586 MEMB     71       POPC     H101     HEL1     0.150000       1.00800           0
      7587 MEMB     71       POPC     C211     CTL2    -0.180000       12.0110           0
      7588 MEMB     71       POPC     H11R     HAL2     0.900000E-01   1.00800           0
      7589 MEMB     71       POPC     H11S     HAL2     0.900000E-01   1.00800           0
      7590 MEMB     71       POPC     C212     CTL2    -0.180000       12.0110           0
      7591 MEMB     71       POPC     H12R     HAL2     0.900000E-01   1.00800           0
      7592 MEMB     71       POPC     H12S     HAL2     0.900000E-01   1.00800           0
      7593 MEMB     71       POPC     C213     CTL2    -0.180000       12.0110           0
      7594 MEMB     71       POPC     H13R     HAL2     0.900000E-01   1.00800           0
      7595 MEMB     71       POPC     H13S     HAL2     0.900000E-01   1.00800           0
      7596 MEMB     71       POPC     C214     CTL2    -0.180000       12.0110           0
      7597 MEMB     71       POPC     H14R     HAL2     0.900000E-01   1.00800           0
      7598 MEMB     71       POPC     H14S     HAL2     0.900000E-01   1.00800           0
      7599 MEMB     71       POPC     C215     CTL2    -0.180000       12.0110           0
      7600 MEMB     71       POPC     H15R     HAL2     0.900000E-01   1.00800           0
      7601 MEMB     71       POPC     H15S     HAL2     0.900000E-01   1.00800           0
      7602 MEMB     71       POPC     C216     CTL2    -0.180000       12.0110           0
      7603 MEMB     71       POPC     H16R     HAL2     0.900000E-01   1.00800           0
      7604 MEMB     71       POPC     H16S     HAL2     0.900000E-01   1.00800           0
      7605 MEMB     71       POPC     C217     CTL2    -0.180000       12.0110           0
      7606 MEMB     71       POPC     H17R     HAL2     0.900000E-01   1.00800           0
      7607 MEMB     71       POPC     H17S     HAL2     0.900000E-01   1.00800           0
      7608 MEMB     71       POPC     C218     CTL3    -0.270000       12.0110           0
      7609 MEMB     71       POPC     H18R     HAL3     0.900000E-01   1.00800           0
      7610 MEMB     71       POPC     H18S     HAL3     0.900000E-01   1.00800           0
      7611 MEMB     71       POPC     H18T     HAL3     0.900000E-01   1.00800           0
      7612 MEMB     71       POPC     C33      CTL2    -0.180000       12.0110           0
      7613 MEMB     71       POPC     H3X      HAL2     0.900000E-01   1.00800           0
      7614 MEMB     71       POPC     H3Y      HAL2     0.900000E-01   1.00800           0
      7615 MEMB     71       POPC     C34      CTL2    -0.180000       12.0110           0
      7616 MEMB     71       POPC     H4X      HAL2     0.900000E-01   1.00800           0
      7617 MEMB     71       POPC     H4Y      HAL2     0.900000E-01   1.00800           0
      7618 MEMB     71       POPC     C35      CTL2    -0.180000       12.0110           0
      7619 MEMB     71       POPC     H5X      HAL2     0.900000E-01   1.00800           0
      7620 MEMB     71       POPC     H5Y      HAL2     0.900000E-01   1.00800           0
      7621 MEMB     71       POPC     C36      CTL2    -0.180000       12.0110           0
      7622 MEMB     71       POPC     H6X      HAL2     0.900000E-01   1.00800           0
      7623 MEMB     71       POPC     H6Y      HAL2     0.900000E-01   1.00800           0
      7624 MEMB     71       POPC     C37      CTL2    -0.180000       12.0110           0
      7625 MEMB     71       POPC     H7X      HAL2     0.900000E-01   1.00800           0
      7626 MEMB     71       POPC     H7Y      HAL2     0.900000E-01   1.00800           0
      7627 MEMB     71       POPC     C38      CTL2    -0.180000       12.0110           0
      7628 MEMB     71       POPC     H8X      HAL2     0.900000E-01   1.00800           0
      7629 MEMB     71       POPC     H8Y      HAL2     0.900000E-01   1.00800           0
      7630 MEMB     71       POPC     C39      CTL2    -0.180000       12.0110           0
      7631 MEMB     71       POPC     H9X      HAL2     0.900000E-01   1.00800           0
      7632 MEMB     71       POPC     H9Y      HAL2     0.900000E-01   1.00800           0
      7633 MEMB     71       POPC     C310     CTL2    -0.180000       12.0110           0
      7634 MEMB     71       POPC     H10X     HAL2     0.900000E-01   1.00800           0
      7635 MEMB     71       POPC     H10Y     HAL2     0.900000E-01   1.00800           0
      7636 MEMB     71       POPC     C311     CTL2    -0.180000       12.0110           0
      7637 MEMB     71       POPC     H11X     HAL2     0.900000E-01   1.00800           0
      7638 MEMB     71       POPC     H11Y     HAL2     0.900000E-01   1.00800           0
      7639 MEMB     71       POPC     C312     CTL2    -0.180000       12.0110           0
      7640 MEMB     71       POPC     H12X     HAL2     0.900000E-01   1.00800           0
      7641 MEMB     71       POPC     H12Y     HAL2     0.900000E-01   1.00800           0
      7642 MEMB     71       POPC     C313     CTL2    -0.180000       12.0110           0
      7643 MEMB     71       POPC     H13X     HAL2     0.900000E-01   1.00800           0
      7644 MEMB     71       POPC     H13Y     HAL2     0.900000E-01   1.00800           0
      7645 MEMB     71       POPC     C314     CTL2    -0.180000       12.0110           0
      7646 MEMB     71       POPC     H14X     HAL2     0.900000E-01   1.00800           0
      7647 MEMB     71       POPC     H14Y     HAL2     0.900000E-01   1.00800           0
      7648 MEMB     71       POPC     C315     CTL2    -0.180000       12.0110           0
      7649 MEMB     71       POPC     H15X     HAL2     0.900000E-01   1.00800           0
      7650 MEMB     71       POPC     H15Y     HAL2     0.900000E-01   1.00800           0
      7651 MEMB     71       POPC     C316     CTL3    -0.270000       12.0110           0
      7652 MEMB     71       POPC     H16X     HAL3     0.900000E-01   1.00800           0
      7653 MEMB     71       POPC     H16Y     HAL3     0.900000E-01   1.00800           0
      7654 MEMB     71       POPC     H16Z     HAL3     0.900000E-01   1.00800           0
      7655 MEMB     72       POPC     N        NTL     -0.600000       14.0070           0
      7656 MEMB     72       POPC     C12      CTL2    -0.100000       12.0110           0
      7657 MEMB     72       POPC     H12A     HL       0.250000       1.00800           0
      7658 MEMB     72       POPC     H12B     HL       0.250000       1.00800           0
      7659 MEMB     72       POPC     C13      CTL5    -0.350000       12.0110           0
      7660 MEMB     72       POPC     H13A     HL       0.250000       1.00800           0
      7661 MEMB     72       POPC     H13B     HL       0.250000       1.00800           0
      7662 MEMB     72       POPC     H13C     HL       0.250000       1.00800           0
      7663 MEMB     72       POPC     C14      CTL5    -0.350000       12.0110           0
      7664 MEMB     72       POPC     H14A     HL       0.250000       1.00800           0
      7665 MEMB     72       POPC     H14B     HL       0.250000       1.00800           0
      7666 MEMB     72       POPC     H14C     HL       0.250000       1.00800           0
      7667 MEMB     72       POPC     C15      CTL5    -0.350000       12.0110           0
      7668 MEMB     72       POPC     H15A     HL       0.250000       1.00800           0
      7669 MEMB     72       POPC     H15B     HL       0.250000       1.00800           0
      7670 MEMB     72       POPC     H15C     HL       0.250000       1.00800           0
      7671 MEMB     72       POPC     C11      CTL2    -0.800000E-01   12.0110           0
      7672 MEMB     72       POPC     H11A     HAL2     0.900000E-01   1.00800           0
      7673 MEMB     72       POPC     H11B     HAL2     0.900000E-01   1.00800           0
      7674 MEMB     72       POPC     P        PL        1.50000       30.9740           0
      7675 MEMB     72       POPC     O13      O2L     -0.780000       15.9994           0
      7676 MEMB     72       POPC     O14      O2L     -0.780000       15.9994           0
      7677 MEMB     72       POPC     O12      OSLP    -0.570000       15.9994           0
      7678 MEMB     72       POPC     O11      OSLP    -0.570000       15.9994           0
      7679 MEMB     72       POPC     C1       CTL2    -0.800000E-01   12.0110           0
      7680 MEMB     72       POPC     HA       HAL2     0.900000E-01   1.00800           0
      7681 MEMB     72       POPC     HB       HAL2     0.900000E-01   1.00800           0
      7682 MEMB     72       POPC     C2       CTL1     0.170000       12.0110           0
      7683 MEMB     72       POPC     HS       HAL1     0.900000E-01   1.00800           0
      7684 MEMB     72       POPC     O21      OSL     -0.490000       15.9994           0
      7685 MEMB     72       POPC     C21      CL       0.900000       12.0110           0
      7686 MEMB     72       POPC     O22      OBL     -0.630000       15.9994           0
      7687 MEMB     72       POPC     C22      CTL2    -0.220000       12.0110           0
      7688 MEMB     72       POPC     H2R      HAL2     0.900000E-01   1.00800           0
      7689 MEMB     72       POPC     H2S      HAL2     0.900000E-01   1.00800           0
      7690 MEMB     72       POPC     C3       CTL2     0.800000E-01   12.0110           0
      7691 MEMB     72       POPC     HX       HAL2     0.900000E-01   1.00800           0
      7692 MEMB     72       POPC     HY       HAL2     0.900000E-01   1.00800           0
      7693 MEMB     72       POPC     O31      OSL     -0.490000       15.9994           0
      7694 MEMB     72       POPC     C31      CL       0.900000       12.0110           0
      7695 MEMB     72       POPC     O32      OBL     -0.630000       15.9994           0
      7696 MEMB     72       POPC     C32      CTL2    -0.220000       12.0110           0
      7697 MEMB     72       POPC     H2X      HAL2     0.900000E-01   1.00800           0
      7698 MEMB     72       POPC     H2Y      HAL2     0.900000E-01   1.00800           0
      7699 MEMB     72       POPC     C23      CTL2    -0.180000       12.0110           0
      7700 MEMB     72       POPC     H3R      HAL2     0.900000E-01   1.00800           0
      7701 MEMB     72       POPC     H3S      HAL2     0.900000E-01   1.00800           0
      7702 MEMB     72       POPC     C24      CTL2    -0.180000       12.0110           0
      7703 MEMB     72       POPC     H4R      HAL2     0.900000E-01   1.00800           0
      7704 MEMB     72       POPC     H4S      HAL2     0.900000E-01   1.00800           0
      7705 MEMB     72       POPC     C25      CTL2    -0.180000       12.0110           0
      7706 MEMB     72       POPC     H5R      HAL2     0.900000E-01   1.00800           0
      7707 MEMB     72       POPC     H5S      HAL2     0.900000E-01   1.00800           0
      7708 MEMB     72       POPC     C26      CTL2    -0.180000       12.0110           0
      7709 MEMB     72       POPC     H6R      HAL2     0.900000E-01   1.00800           0
      7710 MEMB     72       POPC     H6S      HAL2     0.900000E-01   1.00800           0
      7711 MEMB     72       POPC     C27      CTL2    -0.180000       12.0110           0
      7712 MEMB     72       POPC     H7R      HAL2     0.900000E-01   1.00800           0
      7713 MEMB     72       POPC     H7S      HAL2     0.900000E-01   1.00800           0
      7714 MEMB     72       POPC     C28      CTL2    -0.180000       12.0110           0
      7715 MEMB     72       POPC     H8R      HAL2     0.900000E-01   1.00800           0
      7716 MEMB     72       POPC     H8S      HAL2     0.900000E-01   1.00800           0
      7717 MEMB     72       POPC     C29      CEL1    -0.150000       12.0110           0
      7718 MEMB     72       POPC     H91      HEL1     0.150000       1.00800           0
      7719 MEMB     72       POPC     C210     CEL1    -0.150000       12.0110           0
      7720 MEMB     72       POPC     H101     HEL1     0.150000       1.00800           0
      7721 MEMB     72       POPC     C211     CTL2    -0.180000       12.0110           0
      7722 MEMB     72       POPC     H11R     HAL2     0.900000E-01   1.00800           0
      7723 MEMB     72       POPC     H11S     HAL2     0.900000E-01   1.00800           0
      7724 MEMB     72       POPC     C212     CTL2    -0.180000       12.0110           0
      7725 MEMB     72       POPC     H12R     HAL2     0.900000E-01   1.00800           0
      7726 MEMB     72       POPC     H12S     HAL2     0.900000E-01   1.00800           0
      7727 MEMB     72       POPC     C213     CTL2    -0.180000       12.0110           0
      7728 MEMB     72       POPC     H13R     HAL2     0.900000E-01   1.00800           0
      7729 MEMB     72       POPC     H13S     HAL2     0.900000E-01   1.00800           0
      7730 MEMB     72       POPC     C214     CTL2    -0.180000       12.0110           0
      7731 MEMB     72       POPC     H14R     HAL2     0.900000E-01   1.00800           0
      7732 MEMB     72       POPC     H14S     HAL2     0.900000E-01   1.00800           0
      7733 MEMB     72       POPC     C215     CTL2    -0.180000       12.0110           0
      7734 MEMB     72       POPC     H15R     HAL2     0.900000E-01   1.00800           0
      7735 MEMB     72       POPC     H15S     HAL2     0.900000E-01   1.00800           0
      7736 MEMB     72       POPC     C216     CTL2    -0.180000       12.0110           0
      7737 MEMB     72       POPC     H16R     HAL2     0.900000E-01   1.00800           0
      7738 MEMB     72       POPC     H16S     HAL2     0.900000E-01   1.00800           0
      7739 MEMB     72       POPC     C217     CTL2    -0.180000       12.0110           0
      7740 MEMB     72       POPC     H17R     HAL2     0.900000E-01   1.00800           0
      7741 MEMB     72       POPC     H17S     HAL2     0.900000E-01   1.00800           0
      7742 MEMB     72       POPC     C218     CTL3    -0.270000       12.0110           0
      7743 MEMB     72       POPC     H18R     HAL3     0.900000E-01   1.00800           0
      7744 MEMB     72       POPC     H18S     HAL3     0.900000E-01   1.00800           0
      7745 MEMB     72       POPC     H18T     HAL3     0.900000E-01   1.00800           0
      7746 MEMB     72       POPC     C33      CTL2    -0.180000       12.0110           0
      7747 MEMB     72       POPC     H3X      HAL2     0.900000E-01   1.00800           0
      7748 MEMB     72       POPC     H3Y      HAL2     0.900000E-01   1.00800           0
      7749 MEMB     72       POPC     C34      CTL2    -0.180000       12.0110           0
      7750 MEMB     72       POPC     H4X      HAL2     0.900000E-01   1.00800           0
      7751 MEMB     72       POPC     H4Y      HAL2     0.900000E-01   1.00800           0
      7752 MEMB     72       POPC     C35      CTL2    -0.180000       12.0110           0
      7753 MEMB     72       POPC     H5X      HAL2     0.900000E-01   1.00800           0
      7754 MEMB     72       POPC     H5Y      HAL2     0.900000E-01   1.00800           0
      7755 MEMB     72       POPC     C36      CTL2    -0.180000       12.0110           0
      7756 MEMB     72       POPC     H6X      HAL2     0.900000E-01   1.00800           0
      7757 MEMB     72       POPC     H6Y      HAL2     0.900000E-01   1.00800           0
      7758 MEMB     72       POPC     C37      CTL2    -0.180000       12.0110           0
      7759 MEMB     72       POPC     H7X      HAL2     0.900000E-01   1.00800           0
      7760 MEMB     72       POPC     H7Y      HAL2     0.900000E-01   1.00800           0
      7761 MEMB     72       POPC     C38      CTL2    -0.180000       12.0110           0
      7762 MEMB     72       POPC     H8X      HAL2     0.900000E-01   1.00800           0
      7763 MEMB     72       POPC     H8Y      HAL2     0.900000E-01   1.00800           0
      7764 MEMB     72       POPC     C39      CTL2    -0.180000       12.0110           0
      7765 MEMB     72       POPC     H9X      HAL2     0.900000E-01   1.00800           0
      7766 MEMB     72       POPC     H9Y      HAL2     0.900000E-01   1.00800           0
      7767 MEMB     72       POPC     C310     CTL2    -0.180000       12.0110           0
      7768 MEMB     72       POPC     H10X     HAL2     0.900000E-01   1.00800           0
      7769 MEMB     72       POPC     H10Y     HAL2     0.900000E-01   1.00800           0
      7770 MEMB     72       POPC     C311     CTL2    -0.180000       12.0110           0
      7771 MEMB     72       POPC     H11X     HAL2     0.900000E-01   1.00800           0
      7772 MEMB     72       POPC     H11Y     HAL2     0.900000E-01   1.00800           0
      7773 MEMB     72       POPC     C312     CTL2    -0.180000       12.0110           0
      7774 MEMB     72       POPC     H12X     HAL2     0.900000E-01   1.00800           0
      7775 MEMB     72       POPC     H12Y     HAL2     0.900000E-01   1.00800           0
      7776 MEMB     72       POPC     C313     CTL2    -0.180000       12.0110           0
      7777 MEMB     72       POPC     H13X     HAL2     0.900000E-01   1.00800           0
      7778 MEMB     72       POPC     H13Y     HAL2     0.900000E-01   1.00800           0
      7779 MEMB     72       POPC     C314     CTL2    -0.180000       12.0110           0
      7780 MEMB     72       POPC     H14X     HAL2     0.900000E-01   1.00800           0
      7781 MEMB     72       POPC     H14Y     HAL2     0.900000E-01   1.00800           0
      7782 MEMB     72       POPC     C315     CTL2    -0.180000       12.0110           0
      7783 MEMB     72       POPC     H15X     HAL2     0.900000E-01   1.00800           0
      7784 MEMB     72       POPC     H15Y     HAL2     0.900000E-01   1.00800           0
      7785 MEMB     72       POPC     C316     CTL3    -0.270000       12.0110           0
      7786 MEMB     72       POPC     H16X     HAL3     0.900000E-01   1.00800           0
      7787 MEMB     72       POPC     H16Y     HAL3     0.900000E-01   1.00800           0
      7788 MEMB     72       POPC     H16Z     HAL3     0.900000E-01   1.00800           0
      7789 MEMB     73       POPC     N        NTL     -0.600000       14.0070           0
      7790 MEMB     73       POPC     C12      CTL2    -0.100000       12.0110           0
      7791 MEMB     73       POPC     H12A     HL       0.250000       1.00800           0
      7792 MEMB     73       POPC     H12B     HL       0.250000       1.00800           0
      7793 MEMB     73       POPC     C13      CTL5    -0.350000       12.0110           0
      7794 MEMB     73       POPC     H13A     HL       0.250000       1.00800           0
      7795 MEMB     73       POPC     H13B     HL       0.250000       1.00800           0
      7796 MEMB     73       POPC     H13C     HL       0.250000       1.00800           0
      7797 MEMB     73       POPC     C14      CTL5    -0.350000       12.0110           0
      7798 MEMB     73       POPC     H14A     HL       0.250000       1.00800           0
      7799 MEMB     73       POPC     H14B     HL       0.250000       1.00800           0
      7800 MEMB     73       POPC     H14C     HL       0.250000       1.00800           0
      7801 MEMB     73       POPC     C15      CTL5    -0.350000       12.0110           0
      7802 MEMB     73       POPC     H15A     HL       0.250000       1.00800           0
      7803 MEMB     73       POPC     H15B     HL       0.250000       1.00800           0
      7804 MEMB     73       POPC     H15C     HL       0.250000       1.00800           0
      7805 MEMB     73       POPC     C11      CTL2    -0.800000E-01   12.0110           0
      7806 MEMB     73       POPC     H11A     HAL2     0.900000E-01   1.00800           0
      7807 MEMB     73       POPC     H11B     HAL2     0.900000E-01   1.00800           0
      7808 MEMB     73       POPC     P        PL        1.50000       30.9740           0
      7809 MEMB     73       POPC     O13      O2L     -0.780000       15.9994           0
      7810 MEMB     73       POPC     O14      O2L     -0.780000       15.9994           0
      7811 MEMB     73       POPC     O12      OSLP    -0.570000       15.9994           0
      7812 MEMB     73       POPC     O11      OSLP    -0.570000       15.9994           0
      7813 MEMB     73       POPC     C1       CTL2    -0.800000E-01   12.0110           0
      7814 MEMB     73       POPC     HA       HAL2     0.900000E-01   1.00800           0
      7815 MEMB     73       POPC     HB       HAL2     0.900000E-01   1.00800           0
      7816 MEMB     73       POPC     C2       CTL1     0.170000       12.0110           0
      7817 MEMB     73       POPC     HS       HAL1     0.900000E-01   1.00800           0
      7818 MEMB     73       POPC     O21      OSL     -0.490000       15.9994           0
      7819 MEMB     73       POPC     C21      CL       0.900000       12.0110           0
      7820 MEMB     73       POPC     O22      OBL     -0.630000       15.9994           0
      7821 MEMB     73       POPC     C22      CTL2    -0.220000       12.0110           0
      7822 MEMB     73       POPC     H2R      HAL2     0.900000E-01   1.00800           0
      7823 MEMB     73       POPC     H2S      HAL2     0.900000E-01   1.00800           0
      7824 MEMB     73       POPC     C3       CTL2     0.800000E-01   12.0110           0
      7825 MEMB     73       POPC     HX       HAL2     0.900000E-01   1.00800           0
      7826 MEMB     73       POPC     HY       HAL2     0.900000E-01   1.00800           0
      7827 MEMB     73       POPC     O31      OSL     -0.490000       15.9994           0
      7828 MEMB     73       POPC     C31      CL       0.900000       12.0110           0
      7829 MEMB     73       POPC     O32      OBL     -0.630000       15.9994           0
      7830 MEMB     73       POPC     C32      CTL2    -0.220000       12.0110           0
      7831 MEMB     73       POPC     H2X      HAL2     0.900000E-01   1.00800           0
      7832 MEMB     73       POPC     H2Y      HAL2     0.900000E-01   1.00800           0
      7833 MEMB     73       POPC     C23      CTL2    -0.180000       12.0110           0
      7834 MEMB     73       POPC     H3R      HAL2     0.900000E-01   1.00800           0
      7835 MEMB     73       POPC     H3S      HAL2     0.900000E-01   1.00800           0
      7836 MEMB     73       POPC     C24      CTL2    -0.180000       12.0110           0
      7837 MEMB     73       POPC     H4R      HAL2     0.900000E-01   1.00800           0
      7838 MEMB     73       POPC     H4S      HAL2     0.900000E-01   1.00800           0
      7839 MEMB     73       POPC     C25      CTL2    -0.180000       12.0110           0
      7840 MEMB     73       POPC     H5R      HAL2     0.900000E-01   1.00800           0
      7841 MEMB     73       POPC     H5S      HAL2     0.900000E-01   1.00800           0
      7842 MEMB     73       POPC     C26      CTL2    -0.180000       12.0110           0
      7843 MEMB     73       POPC     H6R      HAL2     0.900000E-01   1.00800           0
      7844 MEMB     73       POPC     H6S      HAL2     0.900000E-01   1.00800           0
      7845 MEMB     73       POPC     C27      CTL2    -0.180000       12.0110           0
      7846 MEMB     73       POPC     H7R      HAL2     0.900000E-01   1.00800           0
      7847 MEMB     73       POPC     H7S      HAL2     0.900000E-01   1.00800           0
      7848 MEMB     73       POPC     C28      CTL2    -0.180000       12.0110           0
      7849 MEMB     73       POPC     H8R      HAL2     0.900000E-01   1.00800           0
      7850 MEMB     73       POPC     H8S      HAL2     0.900000E-01   1.00800           0
      7851 MEMB     73       POPC     C29      CEL1    -0.150000       12.0110           0
      7852 MEMB     73       POPC     H91      HEL1     0.150000       1.00800           0
      7853 MEMB     73       POPC     C210     CEL1    -0.150000       12.0110           0
      7854 MEMB     73       POPC     H101     HEL1     0.150000       1.00800           0
      7855 MEMB     73       POPC     C211     CTL2    -0.180000       12.0110           0
      7856 MEMB     73       POPC     H11R     HAL2     0.900000E-01   1.00800           0
      7857 MEMB     73       POPC     H11S     HAL2     0.900000E-01   1.00800           0
      7858 MEMB     73       POPC     C212     CTL2    -0.180000       12.0110           0
      7859 MEMB     73       POPC     H12R     HAL2     0.900000E-01   1.00800           0
      7860 MEMB     73       POPC     H12S     HAL2     0.900000E-01   1.00800           0
      7861 MEMB     73       POPC     C213     CTL2    -0.180000       12.0110           0
      7862 MEMB     73       POPC     H13R     HAL2     0.900000E-01   1.00800           0
      7863 MEMB     73       POPC     H13S     HAL2     0.900000E-01   1.00800           0
      7864 MEMB     73       POPC     C214     CTL2    -0.180000       12.0110           0
      7865 MEMB     73       POPC     H14R     HAL2     0.900000E-01   1.00800           0
      7866 MEMB     73       POPC     H14S     HAL2     0.900000E-01   1.00800           0
      7867 MEMB     73       POPC     C215     CTL2    -0.180000       12.0110           0
      7868 MEMB     73       POPC     H15R     HAL2     0.900000E-01   1.00800           0
      7869 MEMB     73       POPC     H15S     HAL2     0.900000E-01   1.00800           0
      7870 MEMB     73       POPC     C216     CTL2    -0.180000       12.0110           0
      7871 MEMB     73       POPC     H16R     HAL2     0.900000E-01   1.00800           0
      7872 MEMB     73       POPC     H16S     HAL2     0.900000E-01   1.00800           0
      7873 MEMB     73       POPC     C217     CTL2    -0.180000       12.0110           0
      7874 MEMB     73       POPC     H17R     HAL2     0.900000E-01   1.00800           0
      7875 MEMB     73       POPC     H17S     HAL2     0.900000E-01   1.00800           0
      7876 MEMB     73       POPC     C218     CTL3    -0.270000       12.0110           0
      7877 MEMB     73       POPC     H18R     HAL3     0.900000E-01   1.00800           0
      7878 MEMB     73       POPC     H18S     HAL3     0.900000E-01   1.00800           0
      7879 MEMB     73       POPC     H18T     HAL3     0.900000E-01   1.00800           0
      7880 MEMB     73       POPC     C33      CTL2    -0.180000       12.0110           0
      7881 MEMB     73       POPC     H3X      HAL2     0.900000E-01   1.00800           0
      7882 MEMB     73       POPC     H3Y      HAL2     0.900000E-01   1.00800           0
      7883 MEMB     73       POPC     C34      CTL2    -0.180000       12.0110           0
      7884 MEMB     73       POPC     H4X      HAL2     0.900000E-01   1.00800           0
      7885 MEMB     73       POPC     H4Y      HAL2     0.900000E-01   1.00800           0
      7886 MEMB     73       POPC     C35      CTL2    -0.180000       12.0110           0
      7887 MEMB     73       POPC     H5X      HAL2     0.900000E-01   1.00800           0
      7888 MEMB     73       POPC     H5Y      HAL2     0.900000E-01   1.00800           0
      7889 MEMB     73       POPC     C36      CTL2    -0.180000       12.0110           0
      7890 MEMB     73       POPC     H6X      HAL2     0.900000E-01   1.00800           0
      7891 MEMB     73       POPC     H6Y      HAL2     0.900000E-01   1.00800           0
      7892 MEMB     73       POPC     C37      CTL2    -0.180000       12.0110           0
      7893 MEMB     73       POPC     H7X      HAL2     0.900000E-01   1.00800           0
      7894 MEMB     73       POPC     H7Y      HAL2     0.900000E-01   1.00800           0
      7895 MEMB     73       POPC     C38      CTL2    -0.180000       12.0110           0
      7896 MEMB     73       POPC     H8X      HAL2     0.900000E-01   1.00800           0
      7897 MEMB     73       POPC     H8Y      HAL2     0.900000E-01   1.00800           0
      7898 MEMB     73       POPC     C39      CTL2    -0.180000       12.0110           0
      7899 MEMB     73       POPC     H9X      HAL2     0.900000E-01   1.00800           0
      7900 MEMB     73       POPC     H9Y      HAL2     0.900000E-01   1.00800           0
      7901 MEMB     73       POPC     C310     CTL2    -0.180000       12.0110           0
      7902 MEMB     73       POPC     H10X     HAL2     0.900000E-01   1.00800           0
      7903 MEMB     73       POPC     H10Y     HAL2     0.900000E-01   1.00800           0
      7904 MEMB     73       POPC     C311     CTL2    -0.180000       12.0110           0
      7905 MEMB     73       POPC     H11X     HAL2     0.900000E-01   1.00800           0
      7906 MEMB     73       POPC     H11Y     HAL2     0.900000E-01   1.00800           0
      7907 MEMB     73       POPC     C312     CTL2    -0.180000       12.0110           0
      7908 MEMB     73       POPC     H12X     HAL2     0.900000E-01   1.00800           0
      7909 MEMB     73       POPC     H12Y     HAL2     0.900000E-01   1.00800           0
      7910 MEMB     73       POPC     C313     CTL2    -0.180000       12.0110           0
      7911 MEMB     73       POPC     H13X     HAL2     0.900000E-01   1.00800           0
      7912 MEMB     73       POPC     H13Y     HAL2     0.900000E-01   1.00800           0
      7913 MEMB     73       POPC     C314     CTL2    -0.180000       12.0110           0
      7914 MEMB     73       POPC     H14X     HAL2     0.900000E-01   1.00800           0
      7915 MEMB     73       POPC     H14Y     HAL2     0.900000E-01   1.00800           0
      7916 MEMB     73       POPC     C315     CTL2    -0.180000       12.0110           0
      7917 MEMB     73       POPC     H15X     HAL2     0.900000E-01   1.00800           0
      7918 MEMB     73       POPC     H15Y     HAL2     0.900000E-01   1.00800           0
      7919 MEMB     73       POPC     C316     CTL3    -0.270000       12.0110           0
      7920 MEMB     73       POPC     H16X     HAL3     0.900000E-01   1.00800           0
      7921 MEMB     73       POPC     H16Y     HAL3     0.900000E-01   1.00800           0
      7922 MEMB     73       POPC     H16Z     HAL3     0.900000E-01   1.00800           0
      7923 MEMB     74       POPC     N        NTL     -0.600000       14.0070           0
      7924 MEMB     74       POPC     C12      CTL2    -0.100000       12.0110           0
      7925 MEMB     74       POPC     H12A     HL       0.250000       1.00800           0
      7926 MEMB     74       POPC     H12B     HL       0.250000       1.00800           0
      7927 MEMB     74       POPC     C13      CTL5    -0.350000       12.0110           0
      7928 MEMB     74       POPC     H13A     HL       0.250000       1.00800           0
      7929 MEMB     74       POPC     H13B     HL       0.250000       1.00800           0
      7930 MEMB     74       POPC     H13C     HL       0.250000       1.00800           0
      7931 MEMB     74       POPC     C14      CTL5    -0.350000       12.0110           0
      7932 MEMB     74       POPC     H14A     HL       0.250000       1.00800           0
      7933 MEMB     74       POPC     H14B     HL       0.250000       1.00800           0
      7934 MEMB     74       POPC     H14C     HL       0.250000       1.00800           0
      7935 MEMB     74       POPC     C15      CTL5    -0.350000       12.0110           0
      7936 MEMB     74       POPC     H15A     HL       0.250000       1.00800           0
      7937 MEMB     74       POPC     H15B     HL       0.250000       1.00800           0
      7938 MEMB     74       POPC     H15C     HL       0.250000       1.00800           0
      7939 MEMB     74       POPC     C11      CTL2    -0.800000E-01   12.0110           0
      7940 MEMB     74       POPC     H11A     HAL2     0.900000E-01   1.00800           0
      7941 MEMB     74       POPC     H11B     HAL2     0.900000E-01   1.00800           0
      7942 MEMB     74       POPC     P        PL        1.50000       30.9740           0
      7943 MEMB     74       POPC     O13      O2L     -0.780000       15.9994           0
      7944 MEMB     74       POPC     O14      O2L     -0.780000       15.9994           0
      7945 MEMB     74       POPC     O12      OSLP    -0.570000       15.9994           0
      7946 MEMB     74       POPC     O11      OSLP    -0.570000       15.9994           0
      7947 MEMB     74       POPC     C1       CTL2    -0.800000E-01   12.0110           0
      7948 MEMB     74       POPC     HA       HAL2     0.900000E-01   1.00800           0
      7949 MEMB     74       POPC     HB       HAL2     0.900000E-01   1.00800           0
      7950 MEMB     74       POPC     C2       CTL1     0.170000       12.0110           0
      7951 MEMB     74       POPC     HS       HAL1     0.900000E-01   1.00800           0
      7952 MEMB     74       POPC     O21      OSL     -0.490000       15.9994           0
      7953 MEMB     74       POPC     C21      CL       0.900000       12.0110           0
      7954 MEMB     74       POPC     O22      OBL     -0.630000       15.9994           0
      7955 MEMB     74       POPC     C22      CTL2    -0.220000       12.0110           0
      7956 MEMB     74       POPC     H2R      HAL2     0.900000E-01   1.00800           0
      7957 MEMB     74       POPC     H2S      HAL2     0.900000E-01   1.00800           0
      7958 MEMB     74       POPC     C3       CTL2     0.800000E-01   12.0110           0
      7959 MEMB     74       POPC     HX       HAL2     0.900000E-01   1.00800           0
      7960 MEMB     74       POPC     HY       HAL2     0.900000E-01   1.00800           0
      7961 MEMB     74       POPC     O31      OSL     -0.490000       15.9994           0
      7962 MEMB     74       POPC     C31      CL       0.900000       12.0110           0
      7963 MEMB     74       POPC     O32      OBL     -0.630000       15.9994           0
      7964 MEMB     74       POPC     C32      CTL2    -0.220000       12.0110           0
      7965 MEMB     74       POPC     H2X      HAL2     0.900000E-01   1.00800           0
      7966 MEMB     74       POPC     H2Y      HAL2     0.900000E-01   1.00800           0
      7967 MEMB     74       POPC     C23      CTL2    -0.180000       12.0110           0
      7968 MEMB     74       POPC     H3R      HAL2     0.900000E-01   1.00800           0
      7969 MEMB     74       POPC     H3S      HAL2     0.900000E-01   1.00800           0
      7970 MEMB     74       POPC     C24      CTL2    -0.180000       12.0110           0
      7971 MEMB     74       POPC     H4R      HAL2     0.900000E-01   1.00800           0
      7972 MEMB     74       POPC     H4S      HAL2     0.900000E-01   1.00800           0
      7973 MEMB     74       POPC     C25      CTL2    -0.180000       12.0110           0
      7974 MEMB     74       POPC     H5R      HAL2     0.900000E-01   1.00800           0
      7975 MEMB     74       POPC     H5S      HAL2     0.900000E-01   1.00800           0
      7976 MEMB     74       POPC     C26      CTL2    -0.180000       12.0110           0
      7977 MEMB     74       POPC     H6R      HAL2     0.900000E-01   1.00800           0
      7978 MEMB     74       POPC     H6S      HAL2     0.900000E-01   1.00800           0
      7979 MEMB     74       POPC     C27      CTL2    -0.180000       12.0110           0
      7980 MEMB     74       POPC     H7R      HAL2     0.900000E-01   1.00800           0
      7981 MEMB     74       POPC     H7S      HAL2     0.900000E-01   1.00800           0
      7982 MEMB     74       POPC     C28      CTL2    -0.180000       12.0110           0
      7983 MEMB     74       POPC     H8R      HAL2     0.900000E-01   1.00800           0
      7984 MEMB     74       POPC     H8S      HAL2     0.900000E-01   1.00800           0
      7985 MEMB     74       POPC     C29      CEL1    -0.150000       12.0110           0
      7986 MEMB     74       POPC     H91      HEL1     0.150000       1.00800           0
      7987 MEMB     74       POPC     C210     CEL1    -0.150000       12.0110           0
      7988 MEMB     74       POPC     H101     HEL1     0.150000       1.00800           0
      7989 MEMB     74       POPC     C211     CTL2    -0.180000       12.0110           0
      7990 MEMB     74       POPC     H11R     HAL2     0.900000E-01   1.00800           0
      7991 MEMB     74       POPC     H11S     HAL2     0.900000E-01   1.00800           0
      7992 MEMB     74       POPC     C212     CTL2    -0.180000       12.0110           0
      7993 MEMB     74       POPC     H12R     HAL2     0.900000E-01   1.00800           0
      7994 MEMB     74       POPC     H12S     HAL2     0.900000E-01   1.00800           0
      7995 MEMB     74       POPC     C213     CTL2    -0.180000       12.0110           0
      7996 MEMB     74       POPC     H13R     HAL2     0.900000E-01   1.00800           0
      7997 MEMB     74       POPC     H13S     HAL2     0.900000E-01   1.00800           0
      7998 MEMB     74       POPC     C214     CTL2    -0.180000       12.0110           0
      7999 MEMB     74       POPC     H14R     HAL2     0.900000E-01   1.00800           0
      8000 MEMB     74       POPC     H14S     HAL2     0.900000E-01   1.00800           0
      8001 MEMB     74       POPC     C215     CTL2    -0.180000       12.0110           0
      8002 MEMB     74       POPC     H15R     HAL2     0.900000E-01   1.00800           0
      8003 MEMB     74       POPC     H15S     HAL2     0.900000E-01   1.00800           0
      8004 MEMB     74       POPC     C216     CTL2    -0.180000       12.0110           0
      8005 MEMB     74       POPC     H16R     HAL2     0.900000E-01   1.00800           0
      8006 MEMB     74       POPC     H16S     HAL2     0.900000E-01   1.00800           0
      8007 MEMB     74       POPC     C217     CTL2    -0.180000       12.0110           0
      8008 MEMB     74       POPC     H17R     HAL2     0.900000E-01   1.00800           0
      8009 MEMB     74       POPC     H17S     HAL2     0.900000E-01   1.00800           0
      8010 MEMB     74       POPC     C218     CTL3    -0.270000       12.0110           0
      8011 MEMB     74       POPC     H18R     HAL3     0.900000E-01   1.00800           0
      8012 MEMB     74       POPC     H18S     HAL3     0.900000E-01   1.00800           0
      8013 MEMB     74       POPC     H18T     HAL3     0.900000E-01   1.00800           0
      8014 MEMB     74       POPC     C33      CTL2    -0.180000       12.0110           0
      8015 MEMB     74       POPC     H3X      HAL2     0.900000E-01   1.00800           0
      8016 MEMB     74       POPC     H3Y      HAL2     0.900000E-01   1.00800           0
      8017 MEMB     74       POPC     C34      CTL2    -0.180000       12.0110           0
      8018 MEMB     74       POPC     H4X      HAL2     0.900000E-01   1.00800           0
      8019 MEMB     74       POPC     H4Y      HAL2     0.900000E-01   1.00800           0
      8020 MEMB     74       POPC     C35      CTL2    -0.180000       12.0110           0
      8021 MEMB     74       POPC     H5X      HAL2     0.900000E-01   1.00800           0
      8022 MEMB     74       POPC     H5Y      HAL2     0.900000E-01   1.00800           0
      8023 MEMB     74       POPC     C36      CTL2    -0.180000       12.0110           0
      8024 MEMB     74       POPC     H6X      HAL2     0.900000E-01   1.00800           0
      8025 MEMB     74       POPC     H6Y      HAL2     0.900000E-01   1.00800           0
      8026 MEMB     74       POPC     C37      CTL2    -0.180000       12.0110           0
      8027 MEMB     74       POPC     H7X      HAL2     0.900000E-01   1.00800           0
      8028 MEMB     74       POPC     H7Y      HAL2     0.900000E-01   1.00800           0
      8029 MEMB     74       POPC     C38      CTL2    -0.180000       12.0110           0
      8030 MEMB     74       POPC     H8X      HAL2     0.900000E-01   1.00800           0
      8031 MEMB     74       POPC     H8Y      HAL2     0.900000E-01   1.00800           0
      8032 MEMB     74       POPC     C39      CTL2    -0.180000       12.0110           0
      8033 MEMB     74       POPC     H9X      HAL2     0.900000E-01   1.00800           0
      8034 MEMB     74       POPC     H9Y      HAL2     0.900000E-01   1.00800           0
      8035 MEMB     74       POPC     C310     CTL2    -0.180000       12.0110           0
      8036 MEMB     74       POPC     H10X     HAL2     0.900000E-01   1.00800           0
      8037 MEMB     74       POPC     H10Y     HAL2     0.900000E-01   1.00800           0
      8038 MEMB     74       POPC     C311     CTL2    -0.180000       12.0110           0
      8039 MEMB     74       POPC     H11X     HAL2     0.900000E-01   1.00800           0
      8040 MEMB     74       POPC     H11Y     HAL2     0.900000E-01   1.00800           0
      8041 MEMB     74       POPC     C312     CTL2    -0.180000       12.0110           0
      8042 MEMB     74       POPC     H12X     HAL2     0.900000E-01   1.00800           0
      8043 MEMB     74       POPC     H12Y     HAL2     0.900000E-01   1.00800           0
      8044 MEMB     74       POPC     C313     CTL2    -0.180000       12.0110           0
      8045 MEMB     74       POPC     H13X     HAL2     0.900000E-01   1.00800           0
      8046 MEMB     74       POPC     H13Y     HAL2     0.900000E-01   1.00800           0
      8047 MEMB     74       POPC     C314     CTL2    -0.180000       12.0110           0
      8048 MEMB     74       POPC     H14X     HAL2     0.900000E-01   1.00800           0
      8049 MEMB     74       POPC     H14Y     HAL2     0.900000E-01   1.00800           0
      8050 MEMB     74       POPC     C315     CTL2    -0.180000       12.0110           0
      8051 MEMB     74       POPC     H15X     HAL2     0.900000E-01   1.00800           0
      8052 MEMB     74       POPC     H15Y     HAL2     0.900000E-01   1.00800           0
      8053 MEMB     74       POPC     C316     CTL3    -0.270000       12.0110           0
      8054 MEMB     74       POPC     H16X     HAL3     0.900000E-01   1.00800           0
      8055 MEMB     74       POPC     H16Y     HAL3     0.900000E-01   1.00800           0
      8056 MEMB     74       POPC     H16Z     HAL3     0.900000E-01   1.00800           0
      8057 MEMB     75       POPC     N        NTL     -0.600000       14.0070           0
      8058 MEMB     75       POPC     C12      CTL2    -0.100000       12.0110           0
      8059 MEMB     75       POPC     H12A     HL       0.250000       1.00800           0
      8060 MEMB     75       POPC     H12B     HL       0.250000       1.00800           0
      8061 MEMB     75       POPC     C13      CTL5    -0.350000       12.0110           0
      8062 MEMB     75       POPC     H13A     HL       0.250000       1.00800           0
      8063 MEMB     75       POPC     H13B     HL       0.250000       1.00800           0
      8064 MEMB     75       POPC     H13C     HL       0.250000       1.00800           0
      8065 MEMB     75       POPC     C14      CTL5    -0.350000       12.0110           0
      8066 MEMB     75       POPC     H14A     HL       0.250000       1.00800           0
      8067 MEMB     75       POPC     H14B     HL       0.250000       1.00800           0
      8068 MEMB     75       POPC     H14C     HL       0.250000       1.00800           0
      8069 MEMB     75       POPC     C15      CTL5    -0.350000       12.0110           0
      8070 MEMB     75       POPC     H15A     HL       0.250000       1.00800           0
      8071 MEMB     75       POPC     H15B     HL       0.250000       1.00800           0
      8072 MEMB     75       POPC     H15C     HL       0.250000       1.00800           0
      8073 MEMB     75       POPC     C11      CTL2    -0.800000E-01   12.0110           0
      8074 MEMB     75       POPC     H11A     HAL2     0.900000E-01   1.00800           0
      8075 MEMB     75       POPC     H11B     HAL2     0.900000E-01   1.00800           0
      8076 MEMB     75       POPC     P        PL        1.50000       30.9740           0
      8077 MEMB     75       POPC     O13      O2L     -0.780000       15.9994           0
      8078 MEMB     75       POPC     O14      O2L     -0.780000       15.9994           0
      8079 MEMB     75       POPC     O12      OSLP    -0.570000       15.9994           0
      8080 MEMB     75       POPC     O11      OSLP    -0.570000       15.9994           0
      8081 MEMB     75       POPC     C1       CTL2    -0.800000E-01   12.0110           0
      8082 MEMB     75       POPC     HA       HAL2     0.900000E-01   1.00800           0
      8083 MEMB     75       POPC     HB       HAL2     0.900000E-01   1.00800           0
      8084 MEMB     75       POPC     C2       CTL1     0.170000       12.0110           0
      8085 MEMB     75       POPC     HS       HAL1     0.900000E-01   1.00800           0
      8086 MEMB     75       POPC     O21      OSL     -0.490000       15.9994           0
      8087 MEMB     75       POPC     C21      CL       0.900000       12.0110           0
      8088 MEMB     75       POPC     O22      OBL     -0.630000       15.9994           0
      8089 MEMB     75       POPC     C22      CTL2    -0.220000       12.0110           0
      8090 MEMB     75       POPC     H2R      HAL2     0.900000E-01   1.00800           0
      8091 MEMB     75       POPC     H2S      HAL2     0.900000E-01   1.00800           0
      8092 MEMB     75       POPC     C3       CTL2     0.800000E-01   12.0110           0
      8093 MEMB     75       POPC     HX       HAL2     0.900000E-01   1.00800           0
      8094 MEMB     75       POPC     HY       HAL2     0.900000E-01   1.00800           0
      8095 MEMB     75       POPC     O31      OSL     -0.490000       15.9994           0
      8096 MEMB     75       POPC     C31      CL       0.900000       12.0110           0
      8097 MEMB     75       POPC     O32      OBL     -0.630000       15.9994           0
      8098 MEMB     75       POPC     C32      CTL2    -0.220000       12.0110           0
      8099 MEMB     75       POPC     H2X      HAL2     0.900000E-01   1.00800           0
      8100 MEMB     75       POPC     H2Y      HAL2     0.900000E-01   1.00800           0
      8101 MEMB     75       POPC     C23      CTL2    -0.180000       12.0110           0
      8102 MEMB     75       POPC     H3R      HAL2     0.900000E-01   1.00800           0
      8103 MEMB     75       POPC     H3S      HAL2     0.900000E-01   1.00800           0
      8104 MEMB     75       POPC     C24      CTL2    -0.180000       12.0110           0
      8105 MEMB     75       POPC     H4R      HAL2     0.900000E-01   1.00800           0
      8106 MEMB     75       POPC     H4S      HAL2     0.900000E-01   1.00800           0
      8107 MEMB     75       POPC     C25      CTL2    -0.180000       12.0110           0
      8108 MEMB     75       POPC     H5R      HAL2     0.900000E-01   1.00800           0
      8109 MEMB     75       POPC     H5S      HAL2     0.900000E-01   1.00800           0
      8110 MEMB     75       POPC     C26      CTL2    -0.180000       12.0110           0
      8111 MEMB     75       POPC     H6R      HAL2     0.900000E-01   1.00800           0
      8112 MEMB     75       POPC     H6S      HAL2     0.900000E-01   1.00800           0
      8113 MEMB     75       POPC     C27      CTL2    -0.180000       12.0110           0
      8114 MEMB     75       POPC     H7R      HAL2     0.900000E-01   1.00800           0
      8115 MEMB     75       POPC     H7S      HAL2     0.900000E-01   1.00800           0
      8116 MEMB     75       POPC     C28      CTL2    -0.180000       12.0110           0
      8117 MEMB     75       POPC     H8R      HAL2     0.900000E-01   1.00800           0
      8118 MEMB     75       POPC     H8S      HAL2     0.900000E-01   1.00800           0
      8119 MEMB     75       POPC     C29      CEL1    -0.150000       12.0110           0
      8120 MEMB     75       POPC     H91      HEL1     0.150000       1.00800           0
      8121 MEMB     75       POPC     C210     CEL1    -0.150000       12.0110           0
      8122 MEMB     75       POPC     H101     HEL1     0.150000       1.00800           0
      8123 MEMB     75       POPC     C211     CTL2    -0.180000       12.0110           0
      8124 MEMB     75       POPC     H11R     HAL2     0.900000E-01   1.00800           0
      8125 MEMB     75       POPC     H11S     HAL2     0.900000E-01   1.00800           0
      8126 MEMB     75       POPC     C212     CTL2    -0.180000       12.0110           0
      8127 MEMB     75       POPC     H12R     HAL2     0.900000E-01   1.00800           0
      8128 MEMB     75       POPC     H12S     HAL2     0.900000E-01   1.00800           0
      8129 MEMB     75       POPC     C213     CTL2    -0.180000       12.0110           0
      8130 MEMB     75       POPC     H13R     HAL2     0.900000E-01   1.00800           0
      8131 MEMB     75       POPC     H13S     HAL2     0.900000E-01   1.00800           0
      8132 MEMB     75       POPC     C214     CTL2    -0.180000       12.0110           0
      8133 MEMB     75       POPC     H14R     HAL2     0.900000E-01   1.00800           0
      8134 MEMB     75       POPC     H14S     HAL2     0.900000E-01   1.00800           0
      8135 MEMB     75       POPC     C215     CTL2    -0.180000       12.0110           0
      8136 MEMB     75       POPC     H15R     HAL2     0.900000E-01   1.00800           0
      8137 MEMB     75       POPC     H15S     HAL2     0.900000E-01   1.00800           0
      8138 MEMB     75       POPC     C216     CTL2    -0.180000       12.0110           0
      8139 MEMB     75       POPC     H16R     HAL2     0.900000E-01   1.00800           0
      8140 MEMB     75       POPC     H16S     HAL2     0.900000E-01   1.00800           0
      8141 MEMB     75       POPC     C217     CTL2    -0.180000       12.0110           0
      8142 MEMB     75       POPC     H17R     HAL2     0.900000E-01   1.00800           0
      8143 MEMB     75       POPC     H17S     HAL2     0.900000E-01   1.00800           0
      8144 MEMB     75       POPC     C218     CTL3    -0.270000       12.0110           0
      8145 MEMB     75       POPC     H18R     HAL3     0.900000E-01   1.00800           0
      8146 MEMB     75       POPC     H18S     HAL3     0.900000E-01   1.00800           0
      8147 MEMB     75       POPC     H18T     HAL3     0.900000E-01   1.00800           0
      8148 MEMB     75       POPC     C33      CTL2    -0.180000       12.0110           0
      8149 MEMB     75       POPC     H3X      HAL2     0.900000E-01   1.00800           0
      8150 MEMB     75       POPC     H3Y      HAL2     0.900000E-01   1.00800           0
      8151 MEMB     75       POPC     C34      CTL2    -0.180000       12.0110           0
      8152 MEMB     75       POPC     H4X      HAL2     0.900000E-01   1.00800           0
      8153 MEMB     75       POPC     H4Y      HAL2     0.900000E-01   1.00800           0
      8154 MEMB     75       POPC     C35      CTL2    -0.180000       12.0110           0
      8155 MEMB     75       POPC     H5X      HAL2     0.900000E-01   1.00800           0
      8156 MEMB     75       POPC     H5Y      HAL2     0.900000E-01   1.00800           0
      8157 MEMB     75       POPC     C36      CTL2    -0.180000       12.0110           0
      8158 MEMB     75       POPC     H6X      HAL2     0.900000E-01   1.00800           0
      8159 MEMB     75       POPC     H6Y      HAL2     0.900000E-01   1.00800           0
      8160 MEMB     75       POPC     C37      CTL2    -0.180000       12.0110           0
      8161 MEMB     75       POPC     H7X      HAL2     0.900000E-01   1.00800           0
      8162 MEMB     75       POPC     H7Y      HAL2     0.900000E-01   1.00800           0
      8163 MEMB     75       POPC     C38      CTL2    -0.180000       12.0110           0
      8164 MEMB     75       POPC     H8X      HAL2     0.900000E-01   1.00800           0
      8165 MEMB     75       POPC     H8Y      HAL2     0.900000E-01   1.00800           0
      8166 MEMB     75       POPC     C39      CTL2    -0.180000       12.0110           0
      8167 MEMB     75       POPC     H9X      HAL2     0.900000E-01   1.00800           0
      8168 MEMB     75       POPC     H9Y      HAL2     0.900000E-01   1.00800           0
      8169 MEMB     75       POPC     C310     CTL2    -0.180000       12.0110           0
      8170 MEMB     75       POPC     H10X     HAL2     0.900000E-01   1.00800           0
      8171 MEMB     75       POPC     H10Y     HAL2     0.900000E-01   1.00800           0
      8172 MEMB     75       POPC     C311     CTL2    -0.180000       12.0110           0
      8173 MEMB     75       POPC     H11X     HAL2     0.900000E-01   1.00800           0
      8174 MEMB     75       POPC     H11Y     HAL2     0.900000E-01   1.00800           0
      8175 MEMB     75       POPC     C312     CTL2    -0.180000       12.0110           0
      8176 MEMB     75       POPC     H12X     HAL2     0.900000E-01   1.00800           0
      8177 MEMB     75       POPC     H12Y     HAL2     0.900000E-01   1.00800           0
      8178 MEMB     75       POPC     C313     CTL2    -0.180000       12.0110           0
      8179 MEMB     75       POPC     H13X     HAL2     0.900000E-01   1.00800           0
      8180 MEMB     75       POPC     H13Y     HAL2     0.900000E-01   1.00800           0
      8181 MEMB     75       POPC     C314     CTL2    -0.180000       12.0110           0
      8182 MEMB     75       POPC     H14X     HAL2     0.900000E-01   1.00800           0
      8183 MEMB     75       POPC     H14Y     HAL2     0.900000E-01   1.00800           0
      8184 MEMB     75       POPC     C315     CTL2    -0.180000       12.0110           0
      8185 MEMB     75       POPC     H15X     HAL2     0.900000E-01   1.00800           0
      8186 MEMB     75       POPC     H15Y     HAL2     0.900000E-01   1.00800           0
      8187 MEMB     75       POPC     C316     CTL3    -0.270000       12.0110           0
      8188 MEMB     75       POPC     H16X     HAL3     0.900000E-01   1.00800           0
      8189 MEMB     75       POPC     H16Y     HAL3     0.900000E-01   1.00800           0
      8190 MEMB     75       POPC     H16Z     HAL3     0.900000E-01   1.00800           0
      8191 MEMB     76       POPC     N        NTL     -0.600000       14.0070           0
      8192 MEMB     76       POPC     C12      CTL2    -0.100000       12.0110           0
      8193 MEMB     76       POPC     H12A     HL       0.250000       1.00800           0
      8194 MEMB     76       POPC     H12B     HL       0.250000       1.00800           0
      8195 MEMB     76       POPC     C13      CTL5    -0.350000       12.0110           0
      8196 MEMB     76       POPC     H13A     HL       0.250000       1.00800           0
      8197 MEMB     76       POPC     H13B     HL       0.250000       1.00800           0
      8198 MEMB     76       POPC     H13C     HL       0.250000       1.00800           0
      8199 MEMB     76       POPC     C14      CTL5    -0.350000       12.0110           0
      8200 MEMB     76       POPC     H14A     HL       0.250000       1.00800           0
      8201 MEMB     76       POPC     H14B     HL       0.250000       1.00800           0
      8202 MEMB     76       POPC     H14C     HL       0.250000       1.00800           0
      8203 MEMB     76       POPC     C15      CTL5    -0.350000       12.0110           0
      8204 MEMB     76       POPC     H15A     HL       0.250000       1.00800           0
      8205 MEMB     76       POPC     H15B     HL       0.250000       1.00800           0
      8206 MEMB     76       POPC     H15C     HL       0.250000       1.00800           0
      8207 MEMB     76       POPC     C11      CTL2    -0.800000E-01   12.0110           0
      8208 MEMB     76       POPC     H11A     HAL2     0.900000E-01   1.00800           0
      8209 MEMB     76       POPC     H11B     HAL2     0.900000E-01   1.00800           0
      8210 MEMB     76       POPC     P        PL        1.50000       30.9740           0
      8211 MEMB     76       POPC     O13      O2L     -0.780000       15.9994           0
      8212 MEMB     76       POPC     O14      O2L     -0.780000       15.9994           0
      8213 MEMB     76       POPC     O12      OSLP    -0.570000       15.9994           0
      8214 MEMB     76       POPC     O11      OSLP    -0.570000       15.9994           0
      8215 MEMB     76       POPC     C1       CTL2    -0.800000E-01   12.0110           0
      8216 MEMB     76       POPC     HA       HAL2     0.900000E-01   1.00800           0
      8217 MEMB     76       POPC     HB       HAL2     0.900000E-01   1.00800           0
      8218 MEMB     76       POPC     C2       CTL1     0.170000       12.0110           0
      8219 MEMB     76       POPC     HS       HAL1     0.900000E-01   1.00800           0
      8220 MEMB     76       POPC     O21      OSL     -0.490000       15.9994           0
      8221 MEMB     76       POPC     C21      CL       0.900000       12.0110           0
      8222 MEMB     76       POPC     O22      OBL     -0.630000       15.9994           0
      8223 MEMB     76       POPC     C22      CTL2    -0.220000       12.0110           0
      8224 MEMB     76       POPC     H2R      HAL2     0.900000E-01   1.00800           0
      8225 MEMB     76       POPC     H2S      HAL2     0.900000E-01   1.00800           0
      8226 MEMB     76       POPC     C3       CTL2     0.800000E-01   12.0110           0
      8227 MEMB     76       POPC     HX       HAL2     0.900000E-01   1.00800           0
      8228 MEMB     76       POPC     HY       HAL2     0.900000E-01   1.00800           0
      8229 MEMB     76       POPC     O31      OSL     -0.490000       15.9994           0
      8230 MEMB     76       POPC     C31      CL       0.900000       12.0110           0
      8231 MEMB     76       POPC     O32      OBL     -0.630000       15.9994           0
      8232 MEMB     76       POPC     C32      CTL2    -0.220000       12.0110           0
      8233 MEMB     76       POPC     H2X      HAL2     0.900000E-01   1.00800           0
      8234 MEMB     76       POPC     H2Y      HAL2     0.900000E-01   1.00800           0
      8235 MEMB     76       POPC     C23      CTL2    -0.180000       12.0110           0
      8236 MEMB     76       POPC     H3R      HAL2     0.900000E-01   1.00800           0
      8237 MEMB     76       POPC     H3S      HAL2     0.900000E-01   1.00800           0
      8238 MEMB     76       POPC     C24      CTL2    -0.180000       12.0110           0
      8239 MEMB     76       POPC     H4R      HAL2     0.900000E-01   1.00800           0
      8240 MEMB     76       POPC     H4S      HAL2     0.900000E-01   1.00800           0
      8241 MEMB     76       POPC     C25      CTL2    -0.180000       12.0110           0
      8242 MEMB     76       POPC     H5R      HAL2     0.900000E-01   1.00800           0
      8243 MEMB     76       POPC     H5S      HAL2     0.900000E-01   1.00800           0
      8244 MEMB     76       POPC     C26      CTL2    -0.180000       12.0110           0
      8245 MEMB     76       POPC     H6R      HAL2     0.900000E-01   1.00800           0
      8246 MEMB     76       POPC     H6S      HAL2     0.900000E-01   1.00800           0
      8247 MEMB     76       POPC     C27      CTL2    -0.180000       12.0110           0
      8248 MEMB     76       POPC     H7R      HAL2     0.900000E-01   1.00800           0
      8249 MEMB     76       POPC     H7S      HAL2     0.900000E-01   1.00800           0
      8250 MEMB     76       POPC     C28      CTL2    -0.180000       12.0110           0
      8251 MEMB     76       POPC     H8R      HAL2     0.900000E-01   1.00800           0
      8252 MEMB     76       POPC     H8S      HAL2     0.900000E-01   1.00800           0
      8253 MEMB     76       POPC     C29      CEL1    -0.150000       12.0110           0
      8254 MEMB     76       POPC     H91      HEL1     0.150000       1.00800           0
      8255 MEMB     76       POPC     C210     CEL1    -0.150000       12.0110           0
      8256 MEMB     76       POPC     H101     HEL1     0.150000       1.00800           0
      8257 MEMB     76       POPC     C211     CTL2    -0.180000       12.0110           0
      8258 MEMB     76       POPC     H11R     HAL2     0.900000E-01   1.00800           0
      8259 MEMB     76       POPC     H11S     HAL2     0.900000E-01   1.00800           0
      8260 MEMB     76       POPC     C212     CTL2    -0.180000       12.0110           0
      8261 MEMB     76       POPC     H12R     HAL2     0.900000E-01   1.00800           0
      8262 MEMB     76       POPC     H12S     HAL2     0.900000E-01   1.00800           0
      8263 MEMB     76       POPC     C213     CTL2    -0.180000       12.0110           0
      8264 MEMB     76       POPC     H13R     HAL2     0.900000E-01   1.00800           0
      8265 MEMB     76       POPC     H13S     HAL2     0.900000E-01   1.00800           0
      8266 MEMB     76       POPC     C214     CTL2    -0.180000       12.0110           0
      8267 MEMB     76       POPC     H14R     HAL2     0.900000E-01   1.00800           0
      8268 MEMB     76       POPC     H14S     HAL2     0.900000E-01   1.00800           0
      8269 MEMB     76       POPC     C215     CTL2    -0.180000       12.0110           0
      8270 MEMB     76       POPC     H15R     HAL2     0.900000E-01   1.00800           0
      8271 MEMB     76       POPC     H15S     HAL2     0.900000E-01   1.00800           0
      8272 MEMB     76       POPC     C216     CTL2    -0.180000       12.0110           0
      8273 MEMB     76       POPC     H16R     HAL2     0.900000E-01   1.00800           0
      8274 MEMB     76       POPC     H16S     HAL2     0.900000E-01   1.00800           0
      8275 MEMB     76       POPC     C217     CTL2    -0.180000       12.0110           0
      8276 MEMB     76       POPC     H17R     HAL2     0.900000E-01   1.00800           0
      8277 MEMB     76       POPC     H17S     HAL2     0.900000E-01   1.00800           0
      8278 MEMB     76       POPC     C218     CTL3    -0.270000       12.0110           0
      8279 MEMB     76       POPC     H18R     HAL3     0.900000E-01   1.00800           0
      8280 MEMB     76       POPC     H18S     HAL3     0.900000E-01   1.00800           0
      8281 MEMB     76       POPC     H18T     HAL3     0.900000E-01   1.00800           0
      8282 MEMB     76       POPC     C33      CTL2    -0.180000       12.0110           0
      8283 MEMB     76       POPC     H3X      HAL2     0.900000E-01   1.00800           0
      8284 MEMB     76       POPC     H3Y      HAL2     0.900000E-01   1.00800           0
      8285 MEMB     76       POPC     C34      CTL2    -0.180000       12.0110           0
      8286 MEMB     76       POPC     H4X      HAL2     0.900000E-01   1.00800           0
      8287 MEMB     76       POPC     H4Y      HAL2     0.900000E-01   1.00800           0
      8288 MEMB     76       POPC     C35      CTL2    -0.180000       12.0110           0
      8289 MEMB     76       POPC     H5X      HAL2     0.900000E-01   1.00800           0
      8290 MEMB     76       POPC     H5Y      HAL2     0.900000E-01   1.00800           0
      8291 MEMB     76       POPC     C36      CTL2    -0.180000       12.0110           0
      8292 MEMB     76       POPC     H6X      HAL2     0.900000E-01   1.00800           0
      8293 MEMB     76       POPC     H6Y      HAL2     0.900000E-01   1.00800           0
      8294 MEMB     76       POPC     C37      CTL2    -0.180000       12.0110           0
      8295 MEMB     76       POPC     H7X      HAL2     0.900000E-01   1.00800           0
      8296 MEMB     76       POPC     H7Y      HAL2     0.900000E-01   1.00800           0
      8297 MEMB     76       POPC     C38      CTL2    -0.180000       12.0110           0
      8298 MEMB     76       POPC     H8X      HAL2     0.900000E-01   1.00800           0
      8299 MEMB     76       POPC     H8Y      HAL2     0.900000E-01   1.00800           0
      8300 MEMB     76       POPC     C39      CTL2    -0.180000       12.0110           0
      8301 MEMB     76       POPC     H9X      HAL2     0.900000E-01   1.00800           0
      8302 MEMB     76       POPC     H9Y      HAL2     0.900000E-01   1.00800           0
      8303 MEMB     76       POPC     C310     CTL2    -0.180000       12.0110           0
      8304 MEMB     76       POPC     H10X     HAL2     0.900000E-01   1.00800           0
      8305 MEMB     76       POPC     H10Y     HAL2     0.900000E-01   1.00800           0
      8306 MEMB     76       POPC     C311     CTL2    -0.180000       12.0110           0
      8307 MEMB     76       POPC     H11X     HAL2     0.900000E-01   1.00800           0
      8308 MEMB     76       POPC     H11Y     HAL2     0.900000E-01   1.00800           0
      8309 MEMB     76       POPC     C312     CTL2    -0.180000       12.0110           0
      8310 MEMB     76       POPC     H12X     HAL2     0.900000E-01   1.00800           0
      8311 MEMB     76       POPC     H12Y     HAL2     0.900000E-01   1.00800           0
      8312 MEMB     76       POPC     C313     CTL2    -0.180000       12.0110           0
      8313 MEMB     76       POPC     H13X     HAL2     0.900000E-01   1.00800           0
      8314 MEMB     76       POPC     H13Y     HAL2     0.900000E-01   1.00800           0
      8315 MEMB     76       POPC     C314     CTL2    -0.180000       12.0110           0
      8316 MEMB     76       POPC     H14X     HAL2     0.900000E-01   1.00800           0
      8317 MEMB     76       POPC     H14Y     HAL2     0.900000E-01   1.00800           0
      8318 MEMB     76       POPC     C315     CTL2    -0.180000       12.0110           0
      8319 MEMB     76       POPC     H15X     HAL2     0.900000E-01   1.00800           0
      8320 MEMB     76       POPC     H15Y     HAL2     0.900000E-01   1.00800           0
      8321 MEMB     76       POPC     C316     CTL3    -0.270000       12.0110           0
      8322 MEMB     76       POPC     H16X     HAL3     0.900000E-01   1.00800           0
      8323 MEMB     76       POPC     H16Y     HAL3     0.900000E-01   1.00800           0
      8324 MEMB     76       POPC     H16Z     HAL3     0.900000E-01   1.00800           0
      8325 MEMB     77       POPC     N        NTL     -0.600000       14.0070           0
      8326 MEMB     77       POPC     C12      CTL2    -0.100000       12.0110           0
      8327 MEMB     77       POPC     H12A     HL       0.250000       1.00800           0
      8328 MEMB     77       POPC     H12B     HL       0.250000       1.00800           0
      8329 MEMB     77       POPC     C13      CTL5    -0.350000       12.0110           0
      8330 MEMB     77       POPC     H13A     HL       0.250000       1.00800           0
      8331 MEMB     77       POPC     H13B     HL       0.250000       1.00800           0
      8332 MEMB     77       POPC     H13C     HL       0.250000       1.00800           0
      8333 MEMB     77       POPC     C14      CTL5    -0.350000       12.0110           0
      8334 MEMB     77       POPC     H14A     HL       0.250000       1.00800           0
      8335 MEMB     77       POPC     H14B     HL       0.250000       1.00800           0
      8336 MEMB     77       POPC     H14C     HL       0.250000       1.00800           0
      8337 MEMB     77       POPC     C15      CTL5    -0.350000       12.0110           0
      8338 MEMB     77       POPC     H15A     HL       0.250000       1.00800           0
      8339 MEMB     77       POPC     H15B     HL       0.250000       1.00800           0
      8340 MEMB     77       POPC     H15C     HL       0.250000       1.00800           0
      8341 MEMB     77       POPC     C11      CTL2    -0.800000E-01   12.0110           0
      8342 MEMB     77       POPC     H11A     HAL2     0.900000E-01   1.00800           0
      8343 MEMB     77       POPC     H11B     HAL2     0.900000E-01   1.00800           0
      8344 MEMB     77       POPC     P        PL        1.50000       30.9740           0
      8345 MEMB     77       POPC     O13      O2L     -0.780000       15.9994           0
      8346 MEMB     77       POPC     O14      O2L     -0.780000       15.9994           0
      8347 MEMB     77       POPC     O12      OSLP    -0.570000       15.9994           0
      8348 MEMB     77       POPC     O11      OSLP    -0.570000       15.9994           0
      8349 MEMB     77       POPC     C1       CTL2    -0.800000E-01   12.0110           0
      8350 MEMB     77       POPC     HA       HAL2     0.900000E-01   1.00800           0
      8351 MEMB     77       POPC     HB       HAL2     0.900000E-01   1.00800           0
      8352 MEMB     77       POPC     C2       CTL1     0.170000       12.0110           0
      8353 MEMB     77       POPC     HS       HAL1     0.900000E-01   1.00800           0
      8354 MEMB     77       POPC     O21      OSL     -0.490000       15.9994           0
      8355 MEMB     77       POPC     C21      CL       0.900000       12.0110           0
      8356 MEMB     77       POPC     O22      OBL     -0.630000       15.9994           0
      8357 MEMB     77       POPC     C22      CTL2    -0.220000       12.0110           0
      8358 MEMB     77       POPC     H2R      HAL2     0.900000E-01   1.00800           0
      8359 MEMB     77       POPC     H2S      HAL2     0.900000E-01   1.00800           0
      8360 MEMB     77       POPC     C3       CTL2     0.800000E-01   12.0110           0
      8361 MEMB     77       POPC     HX       HAL2     0.900000E-01   1.00800           0
      8362 MEMB     77       POPC     HY       HAL2     0.900000E-01   1.00800           0
      8363 MEMB     77       POPC     O31      OSL     -0.490000       15.9994           0
      8364 MEMB     77       POPC     C31      CL       0.900000       12.0110           0
      8365 MEMB     77       POPC     O32      OBL     -0.630000       15.9994           0
      8366 MEMB     77       POPC     C32      CTL2    -0.220000       12.0110           0
      8367 MEMB     77       POPC     H2X      HAL2     0.900000E-01   1.00800           0
      8368 MEMB     77       POPC     H2Y      HAL2     0.900000E-01   1.00800           0
      8369 MEMB     77       POPC     C23      CTL2    -0.180000       12.0110           0
      8370 MEMB     77       POPC     H3R      HAL2     0.900000E-01   1.00800           0
      8371 MEMB     77       POPC     H3S      HAL2     0.900000E-01   1.00800           0
      8372 MEMB     77       POPC     C24      CTL2    -0.180000       12.0110           0
      8373 MEMB     77       POPC     H4R      HAL2     0.900000E-01   1.00800           0
      8374 MEMB     77       POPC     H4S      HAL2     0.900000E-01   1.00800           0
      8375 MEMB     77       POPC     C25      CTL2    -0.180000       12.0110           0
      8376 MEMB     77       POPC     H5R      HAL2     0.900000E-01   1.00800           0
      8377 MEMB     77       POPC     H5S      HAL2     0.900000E-01   1.00800           0
      8378 MEMB     77       POPC     C26      CTL2    -0.180000       12.0110           0
      8379 MEMB     77       POPC     H6R      HAL2     0.900000E-01   1.00800           0
      8380 MEMB     77       POPC     H6S      HAL2     0.900000E-01   1.00800           0
      8381 MEMB     77       POPC     C27      CTL2    -0.180000       12.0110           0
      8382 MEMB     77       POPC     H7R      HAL2     0.900000E-01   1.00800           0
      8383 MEMB     77       POPC     H7S      HAL2     0.900000E-01   1.00800           0
      8384 MEMB     77       POPC     C28      CTL2    -0.180000       12.0110           0
      8385 MEMB     77       POPC     H8R      HAL2     0.900000E-01   1.00800           0
      8386 MEMB     77       POPC     H8S      HAL2     0.900000E-01   1.00800           0
      8387 MEMB     77       POPC     C29      CEL1    -0.150000       12.0110           0
      8388 MEMB     77       POPC     H91      HEL1     0.150000       1.00800           0
      8389 MEMB     77       POPC     C210     CEL1    -0.150000       12.0110           0
      8390 MEMB     77       POPC     H101     HEL1     0.150000       1.00800           0
      8391 MEMB     77       POPC     C211     CTL2    -0.180000       12.0110           0
      8392 MEMB     77       POPC     H11R     HAL2     0.900000E-01   1.00800           0
      8393 MEMB     77       POPC     H11S     HAL2     0.900000E-01   1.00800           0
      8394 MEMB     77       POPC     C212     CTL2    -0.180000       12.0110           0
      8395 MEMB     77       POPC     H12R     HAL2     0.900000E-01   1.00800           0
      8396 MEMB     77       POPC     H12S     HAL2     0.900000E-01   1.00800           0
      8397 MEMB     77       POPC     C213     CTL2    -0.180000       12.0110           0
      8398 MEMB     77       POPC     H13R     HAL2     0.900000E-01   1.00800           0
      8399 MEMB     77       POPC     H13S     HAL2     0.900000E-01   1.00800           0
      8400 MEMB     77       POPC     C214     CTL2    -0.180000       12.0110           0
      8401 MEMB     77       POPC     H14R     HAL2     0.900000E-01   1.00800           0
      8402 MEMB     77       POPC     H14S     HAL2     0.900000E-01   1.00800           0
      8403 MEMB     77       POPC     C215     CTL2    -0.180000       12.0110           0
      8404 MEMB     77       POPC     H15R     HAL2     0.900000E-01   1.00800           0
      8405 MEMB     77       POPC     H15S     HAL2     0.900000E-01   1.00800           0
      8406 MEMB     77       POPC     C216     CTL2    -0.180000       12.0110           0
      8407 MEMB     77       POPC     H16R     HAL2     0.900000E-01   1.00800           0
      8408 MEMB     77       POPC     H16S     HAL2     0.900000E-01   1.00800           0
      8409 MEMB     77       POPC     C217     CTL2    -0.180000       12.0110           0
      8410 MEMB     77       POPC     H17R     HAL2     0.900000E-01   1.00800           0
      8411 MEMB     77       POPC     H17S     HAL2     0.900000E-01   1.00800           0
      8412 MEMB     77       POPC     C218     CTL3    -0.270000       12.0110           0
      8413 MEMB     77       POPC     H18R     HAL3     0.900000E-01   1.00800           0
      8414 MEMB     77       POPC     H18S     HAL3     0.900000E-01   1.00800           0
      8415 MEMB     77       POPC     H18T     HAL3     0.900000E-01   1.00800           0
      8416 MEMB     77       POPC     C33      CTL2    -0.180000       12.0110           0
      8417 MEMB     77       POPC     H3X      HAL2     0.900000E-01   1.00800           0
      8418 MEMB     77       POPC     H3Y      HAL2     0.900000E-01   1.00800           0
      8419 MEMB     77       POPC     C34      CTL2    -0.180000       12.0110           0
      8420 MEMB     77       POPC     H4X      HAL2     0.900000E-01   1.00800           0
      8421 MEMB     77       POPC     H4Y      HAL2     0.900000E-01   1.00800           0
      8422 MEMB     77       POPC     C35      CTL2    -0.180000       12.0110           0
      8423 MEMB     77       POPC     H5X      HAL2     0.900000E-01   1.00800           0
      8424 MEMB     77       POPC     H5Y      HAL2     0.900000E-01   1.00800           0
      8425 MEMB     77       POPC     C36      CTL2    -0.180000       12.0110           0
      8426 MEMB     77       POPC     H6X      HAL2     0.900000E-01   1.00800           0
      8427 MEMB     77       POPC     H6Y      HAL2     0.900000E-01   1.00800           0
      8428 MEMB     77       POPC     C37      CTL2    -0.180000       12.0110           0
      8429 MEMB     77       POPC     H7X      HAL2     0.900000E-01   1.00800           0
      8430 MEMB     77       POPC     H7Y      HAL2     0.900000E-01   1.00800           0
      8431 MEMB     77       POPC     C38      CTL2    -0.180000       12.0110           0
      8432 MEMB     77       POPC     H8X      HAL2     0.900000E-01   1.00800           0
      8433 MEMB     77       POPC     H8Y      HAL2     0.900000E-01   1.00800           0
      8434 MEMB     77       POPC     C39      CTL2    -0.180000       12.0110           0
      8435 MEMB     77       POPC     H9X      HAL2     0.900000E-01   1.00800           0
      8436 MEMB     77       POPC     H9Y      HAL2     0.900000E-01   1.00800           0
      8437 MEMB     77       POPC     C310     CTL2    -0.180000       12.0110           0
      8438 MEMB     77       POPC     H10X     HAL2     0.900000E-01   1.00800           0
      8439 MEMB     77       POPC     H10Y     HAL2     0.900000E-01   1.00800           0
      8440 MEMB     77       POPC     C311     CTL2    -0.180000       12.0110           0
      8441 MEMB     77       POPC     H11X     HAL2     0.900000E-01   1.00800           0
      8442 MEMB     77       POPC     H11Y     HAL2     0.900000E-01   1.00800           0
      8443 MEMB     77       POPC     C312     CTL2    -0.180000       12.0110           0
      8444 MEMB     77       POPC     H12X     HAL2     0.900000E-01   1.00800           0
      8445 MEMB     77       POPC     H12Y     HAL2     0.900000E-01   1.00800           0
      8446 MEMB     77       POPC     C313     CTL2    -0.180000       12.0110           0
      8447 MEMB     77       POPC     H13X     HAL2     0.900000E-01   1.00800           0
      8448 MEMB     77       POPC     H13Y     HAL2     0.900000E-01   1.00800           0
      8449 MEMB     77       POPC     C314     CTL2    -0.180000       12.0110           0
      8450 MEMB     77       POPC     H14X     HAL2     0.900000E-01   1.00800           0
      8451 MEMB     77       POPC     H14Y     HAL2     0.900000E-01   1.00800           0
      8452 MEMB     77       POPC     C315     CTL2    -0.180000       12.0110           0
      8453 MEMB     77       POPC     H15X     HAL2     0.900000E-01   1.00800           0
      8454 MEMB     77       POPC     H15Y     HAL2     0.900000E-01   1.00800           0
      8455 MEMB     77       POPC     C316     CTL3    -0.270000       12.0110           0
      8456 MEMB     77       POPC     H16X     HAL3     0.900000E-01   1.00800           0
      8457 MEMB     77       POPC     H16Y     HAL3     0.900000E-01   1.00800           0
      8458 MEMB     77       POPC     H16Z     HAL3     0.900000E-01   1.00800           0
      8459 MEMB     78       POPC     N        NTL     -0.600000       14.0070           0
      8460 MEMB     78       POPC     C12      CTL2    -0.100000       12.0110           0
      8461 MEMB     78       POPC     H12A     HL       0.250000       1.00800           0
      8462 MEMB     78       POPC     H12B     HL       0.250000       1.00800           0
      8463 MEMB     78       POPC     C13      CTL5    -0.350000       12.0110           0
      8464 MEMB     78       POPC     H13A     HL       0.250000       1.00800           0
      8465 MEMB     78       POPC     H13B     HL       0.250000       1.00800           0
      8466 MEMB     78       POPC     H13C     HL       0.250000       1.00800           0
      8467 MEMB     78       POPC     C14      CTL5    -0.350000       12.0110           0
      8468 MEMB     78       POPC     H14A     HL       0.250000       1.00800           0
      8469 MEMB     78       POPC     H14B     HL       0.250000       1.00800           0
      8470 MEMB     78       POPC     H14C     HL       0.250000       1.00800           0
      8471 MEMB     78       POPC     C15      CTL5    -0.350000       12.0110           0
      8472 MEMB     78       POPC     H15A     HL       0.250000       1.00800           0
      8473 MEMB     78       POPC     H15B     HL       0.250000       1.00800           0
      8474 MEMB     78       POPC     H15C     HL       0.250000       1.00800           0
      8475 MEMB     78       POPC     C11      CTL2    -0.800000E-01   12.0110           0
      8476 MEMB     78       POPC     H11A     HAL2     0.900000E-01   1.00800           0
      8477 MEMB     78       POPC     H11B     HAL2     0.900000E-01   1.00800           0
      8478 MEMB     78       POPC     P        PL        1.50000       30.9740           0
      8479 MEMB     78       POPC     O13      O2L     -0.780000       15.9994           0
      8480 MEMB     78       POPC     O14      O2L     -0.780000       15.9994           0
      8481 MEMB     78       POPC     O12      OSLP    -0.570000       15.9994           0
      8482 MEMB     78       POPC     O11      OSLP    -0.570000       15.9994           0
      8483 MEMB     78       POPC     C1       CTL2    -0.800000E-01   12.0110           0
      8484 MEMB     78       POPC     HA       HAL2     0.900000E-01   1.00800           0
      8485 MEMB     78       POPC     HB       HAL2     0.900000E-01   1.00800           0
      8486 MEMB     78       POPC     C2       CTL1     0.170000       12.0110           0
      8487 MEMB     78       POPC     HS       HAL1     0.900000E-01   1.00800           0
      8488 MEMB     78       POPC     O21      OSL     -0.490000       15.9994           0
      8489 MEMB     78       POPC     C21      CL       0.900000       12.0110           0
      8490 MEMB     78       POPC     O22      OBL     -0.630000       15.9994           0
      8491 MEMB     78       POPC     C22      CTL2    -0.220000       12.0110           0
      8492 MEMB     78       POPC     H2R      HAL2     0.900000E-01   1.00800           0
      8493 MEMB     78       POPC     H2S      HAL2     0.900000E-01   1.00800           0
      8494 MEMB     78       POPC     C3       CTL2     0.800000E-01   12.0110           0
      8495 MEMB     78       POPC     HX       HAL2     0.900000E-01   1.00800           0
      8496 MEMB     78       POPC     HY       HAL2     0.900000E-01   1.00800           0
      8497 MEMB     78       POPC     O31      OSL     -0.490000       15.9994           0
      8498 MEMB     78       POPC     C31      CL       0.900000       12.0110           0
      8499 MEMB     78       POPC     O32      OBL     -0.630000       15.9994           0
      8500 MEMB     78       POPC     C32      CTL2    -0.220000       12.0110           0
      8501 MEMB     78       POPC     H2X      HAL2     0.900000E-01   1.00800           0
      8502 MEMB     78       POPC     H2Y      HAL2     0.900000E-01   1.00800           0
      8503 MEMB     78       POPC     C23      CTL2    -0.180000       12.0110           0
      8504 MEMB     78       POPC     H3R      HAL2     0.900000E-01   1.00800           0
      8505 MEMB     78       POPC     H3S      HAL2     0.900000E-01   1.00800           0
      8506 MEMB     78       POPC     C24      CTL2    -0.180000       12.0110           0
      8507 MEMB     78       POPC     H4R      HAL2     0.900000E-01   1.00800           0
      8508 MEMB     78       POPC     H4S      HAL2     0.900000E-01   1.00800           0
      8509 MEMB     78       POPC     C25      CTL2    -0.180000       12.0110           0
      8510 MEMB     78       POPC     H5R      HAL2     0.900000E-01   1.00800           0
      8511 MEMB     78       POPC     H5S      HAL2     0.900000E-01   1.00800           0
      8512 MEMB     78       POPC     C26      CTL2    -0.180000       12.0110           0
      8513 MEMB     78       POPC     H6R      HAL2     0.900000E-01   1.00800           0
      8514 MEMB     78       POPC     H6S      HAL2     0.900000E-01   1.00800           0
      8515 MEMB     78       POPC     C27      CTL2    -0.180000       12.0110           0
      8516 MEMB     78       POPC     H7R      HAL2     0.900000E-01   1.00800           0
      8517 MEMB     78       POPC     H7S      HAL2     0.900000E-01   1.00800           0
      8518 MEMB     78       POPC     C28      CTL2    -0.180000       12.0110           0
      8519 MEMB     78       POPC     H8R      HAL2     0.900000E-01   1.00800           0
      8520 MEMB     78       POPC     H8S      HAL2     0.900000E-01   1.00800           0
      8521 MEMB     78       POPC     C29      CEL1    -0.150000       12.0110           0
      8522 MEMB     78       POPC     H91      HEL1     0.150000       1.00800           0
      8523 MEMB     78       POPC     C210     CEL1    -0.150000       12.0110           0
      8524 MEMB     78       POPC     H101     HEL1     0.150000       1.00800           0
      8525 MEMB     78       POPC     C211     CTL2    -0.180000       12.0110           0
      8526 MEMB     78       POPC     H11R     HAL2     0.900000E-01   1.00800           0
      8527 MEMB     78       POPC     H11S     HAL2     0.900000E-01   1.00800           0
      8528 MEMB     78       POPC     C212     CTL2    -0.180000       12.0110           0
      8529 MEMB     78       POPC     H12R     HAL2     0.900000E-01   1.00800           0
      8530 MEMB     78       POPC     H12S     HAL2     0.900000E-01   1.00800           0
      8531 MEMB     78       POPC     C213     CTL2    -0.180000       12.0110           0
      8532 MEMB     78       POPC     H13R     HAL2     0.900000E-01   1.00800           0
      8533 MEMB     78       POPC     H13S     HAL2     0.900000E-01   1.00800           0
      8534 MEMB     78       POPC     C214     CTL2    -0.180000       12.0110           0
      8535 MEMB     78       POPC     H14R     HAL2     0.900000E-01   1.00800           0
      8536 MEMB     78       POPC     H14S     HAL2     0.900000E-01   1.00800           0
      8537 MEMB     78       POPC     C215     CTL2    -0.180000       12.0110           0
      8538 MEMB     78       POPC     H15R     HAL2     0.900000E-01   1.00800           0
      8539 MEMB     78       POPC     H15S     HAL2     0.900000E-01   1.00800           0
      8540 MEMB     78       POPC     C216     CTL2    -0.180000       12.0110           0
      8541 MEMB     78       POPC     H16R     HAL2     0.900000E-01   1.00800           0
      8542 MEMB     78       POPC     H16S     HAL2     0.900000E-01   1.00800           0
      8543 MEMB     78       POPC     C217     CTL2    -0.180000       12.0110           0
      8544 MEMB     78       POPC     H17R     HAL2     0.900000E-01   1.00800           0
      8545 MEMB     78       POPC     H17S     HAL2     0.900000E-01   1.00800           0
      8546 MEMB     78       POPC     C218     CTL3    -0.270000       12.0110           0
      8547 MEMB     78       POPC     H18R     HAL3     0.900000E-01   1.00800           0
      8548 MEMB     78       POPC     H18S     HAL3     0.900000E-01   1.00800           0
      8549 MEMB     78       POPC     H18T     HAL3     0.900000E-01   1.00800           0
      8550 MEMB     78       POPC     C33      CTL2    -0.180000       12.0110           0
      8551 MEMB     78       POPC     H3X      HAL2     0.900000E-01   1.00800           0
      8552 MEMB     78       POPC     H3Y      HAL2     0.900000E-01   1.00800           0
      8553 MEMB     78       POPC     C34      CTL2    -0.180000       12.0110           0
      8554 MEMB     78       POPC     H4X      HAL2     0.900000E-01   1.00800           0
      8555 MEMB     78       POPC     H4Y      HAL2     0.900000E-01   1.00800           0
      8556 MEMB     78       POPC     C35      CTL2    -0.180000       12.0110           0
      8557 MEMB     78       POPC     H5X      HAL2     0.900000E-01   1.00800           0
      8558 MEMB     78       POPC     H5Y      HAL2     0.900000E-01   1.00800           0
      8559 MEMB     78       POPC     C36      CTL2    -0.180000       12.0110           0
      8560 MEMB     78       POPC     H6X      HAL2     0.900000E-01   1.00800           0
      8561 MEMB     78       POPC     H6Y      HAL2     0.900000E-01   1.00800           0
      8562 MEMB     78       POPC     C37      CTL2    -0.180000       12.0110           0
      8563 MEMB     78       POPC     H7X      HAL2     0.900000E-01   1.00800           0
      8564 MEMB     78       POPC     H7Y      HAL2     0.900000E-01   1.00800           0
      8565 MEMB     78       POPC     C38      CTL2    -0.180000       12.0110           0
      8566 MEMB     78       POPC     H8X      HAL2     0.900000E-01   1.00800           0
      8567 MEMB     78       POPC     H8Y      HAL2     0.900000E-01   1.00800           0
      8568 MEMB     78       POPC     C39      CTL2    -0.180000       12.0110           0
      8569 MEMB     78       POPC     H9X      HAL2     0.900000E-01   1.00800           0
      8570 MEMB     78       POPC     H9Y      HAL2     0.900000E-01   1.00800           0
      8571 MEMB     78       POPC     C310     CTL2    -0.180000       12.0110           0
      8572 MEMB     78       POPC     H10X     HAL2     0.900000E-01   1.00800           0
      8573 MEMB     78       POPC     H10Y     HAL2     0.900000E-01   1.00800           0
      8574 MEMB     78       POPC     C311     CTL2    -0.180000       12.0110           0
      8575 MEMB     78       POPC     H11X     HAL2     0.900000E-01   1.00800           0
      8576 MEMB     78       POPC     H11Y     HAL2     0.900000E-01   1.00800           0
      8577 MEMB     78       POPC     C312     CTL2    -0.180000       12.0110           0
      8578 MEMB     78       POPC     H12X     HAL2     0.900000E-01   1.00800           0
      8579 MEMB     78       POPC     H12Y     HAL2     0.900000E-01   1.00800           0
      8580 MEMB     78       POPC     C313     CTL2    -0.180000       12.0110           0
      8581 MEMB     78       POPC     H13X     HAL2     0.900000E-01   1.00800           0
      8582 MEMB     78       POPC     H13Y     HAL2     0.900000E-01   1.00800           0
      8583 MEMB     78       POPC     C314     CTL2    -0.180000       12.0110           0
      8584 MEMB     78       POPC     H14X     HAL2     0.900000E-01   1.00800           0
      8585 MEMB     78       POPC     H14Y     HAL2     0.900000E-01   1.00800           0
      8586 MEMB     78       POPC     C315     CTL2    -0.180000       12.0110           0
      8587 MEMB     78       POPC     H15X     HAL2     0.900000E-01   1.00800           0
      8588 MEMB     78       POPC     H15Y     HAL2     0.900000E-01   1.00800           0
      8589 MEMB     78       POPC     C316     CTL3    -0.270000       12.0110           0
      8590 MEMB     78       POPC     H16X     HAL3     0.900000E-01   1.00800           0
      8591 MEMB     78       POPC     H16Y     HAL3     0.900000E-01   1.00800           0
      8592 MEMB     78       POPC     H16Z     HAL3     0.900000E-01   1.00800           0
      8593 MEMB     79       POPC     N        NTL     -0.600000       14.0070           0
      8594 MEMB     79       POPC     C12      CTL2    -0.100000       12.0110           0
      8595 MEMB     79       POPC     H12A     HL       0.250000       1.00800           0
      8596 MEMB     79       POPC     H12B     HL       0.250000       1.00800           0
      8597 MEMB     79       POPC     C13      CTL5    -0.350000       12.0110           0
      8598 MEMB     79       POPC     H13A     HL       0.250000       1.00800           0
      8599 MEMB     79       POPC     H13B     HL       0.250000       1.00800           0
      8600 MEMB     79       POPC     H13C     HL       0.250000       1.00800           0
      8601 MEMB     79       POPC     C14      CTL5    -0.350000       12.0110           0
      8602 MEMB     79       POPC     H14A     HL       0.250000       1.00800           0
      8603 MEMB     79       POPC     H14B     HL       0.250000       1.00800           0
      8604 MEMB     79       POPC     H14C     HL       0.250000       1.00800           0
      8605 MEMB     79       POPC     C15      CTL5    -0.350000       12.0110           0
      8606 MEMB     79       POPC     H15A     HL       0.250000       1.00800           0
      8607 MEMB     79       POPC     H15B     HL       0.250000       1.00800           0
      8608 MEMB     79       POPC     H15C     HL       0.250000       1.00800           0
      8609 MEMB     79       POPC     C11      CTL2    -0.800000E-01   12.0110           0
      8610 MEMB     79       POPC     H11A     HAL2     0.900000E-01   1.00800           0
      8611 MEMB     79       POPC     H11B     HAL2     0.900000E-01   1.00800           0
      8612 MEMB     79       POPC     P        PL        1.50000       30.9740           0
      8613 MEMB     79       POPC     O13      O2L     -0.780000       15.9994           0
      8614 MEMB     79       POPC     O14      O2L     -0.780000       15.9994           0
      8615 MEMB     79       POPC     O12      OSLP    -0.570000       15.9994           0
      8616 MEMB     79       POPC     O11      OSLP    -0.570000       15.9994           0
      8617 MEMB     79       POPC     C1       CTL2    -0.800000E-01   12.0110           0
      8618 MEMB     79       POPC     HA       HAL2     0.900000E-01   1.00800           0
      8619 MEMB     79       POPC     HB       HAL2     0.900000E-01   1.00800           0
      8620 MEMB     79       POPC     C2       CTL1     0.170000       12.0110           0
      8621 MEMB     79       POPC     HS       HAL1     0.900000E-01   1.00800           0
      8622 MEMB     79       POPC     O21      OSL     -0.490000       15.9994           0
      8623 MEMB     79       POPC     C21      CL       0.900000       12.0110           0
      8624 MEMB     79       POPC     O22      OBL     -0.630000       15.9994           0
      8625 MEMB     79       POPC     C22      CTL2    -0.220000       12.0110           0
      8626 MEMB     79       POPC     H2R      HAL2     0.900000E-01   1.00800           0
      8627 MEMB     79       POPC     H2S      HAL2     0.900000E-01   1.00800           0
      8628 MEMB     79       POPC     C3       CTL2     0.800000E-01   12.0110           0
      8629 MEMB     79       POPC     HX       HAL2     0.900000E-01   1.00800           0
      8630 MEMB     79       POPC     HY       HAL2     0.900000E-01   1.00800           0
      8631 MEMB     79       POPC     O31      OSL     -0.490000       15.9994           0
      8632 MEMB     79       POPC     C31      CL       0.900000       12.0110           0
      8633 MEMB     79       POPC     O32      OBL     -0.630000       15.9994           0
      8634 MEMB     79       POPC     C32      CTL2    -0.220000       12.0110           0
      8635 MEMB     79       POPC     H2X      HAL2     0.900000E-01   1.00800           0
      8636 MEMB     79       POPC     H2Y      HAL2     0.900000E-01   1.00800           0
      8637 MEMB     79       POPC     C23      CTL2    -0.180000       12.0110           0
      8638 MEMB     79       POPC     H3R      HAL2     0.900000E-01   1.00800           0
      8639 MEMB     79       POPC     H3S      HAL2     0.900000E-01   1.00800           0
      8640 MEMB     79       POPC     C24      CTL2    -0.180000       12.0110           0
      8641 MEMB     79       POPC     H4R      HAL2     0.900000E-01   1.00800           0
      8642 MEMB     79       POPC     H4S      HAL2     0.900000E-01   1.00800           0
      8643 MEMB     79       POPC     C25      CTL2    -0.180000       12.0110           0
      8644 MEMB     79       POPC     H5R      HAL2     0.900000E-01   1.00800           0
      8645 MEMB     79       POPC     H5S      HAL2     0.900000E-01   1.00800           0
      8646 MEMB     79       POPC     C26      CTL2    -0.180000       12.0110           0
      8647 MEMB     79       POPC     H6R      HAL2     0.900000E-01   1.00800           0
      8648 MEMB     79       POPC     H6S      HAL2     0.900000E-01   1.00800           0
      8649 MEMB     79       POPC     C27      CTL2    -0.180000       12.0110           0
      8650 MEMB     79       POPC     H7R      HAL2     0.900000E-01   1.00800           0
      8651 MEMB     79       POPC     H7S      HAL2     0.900000E-01   1.00800           0
      8652 MEMB     79       POPC     C28      CTL2    -0.180000       12.0110           0
      8653 MEMB     79       POPC     H8R      HAL2     0.900000E-01   1.00800           0
      8654 MEMB     79       POPC     H8S      HAL2     0.900000E-01   1.00800           0
      8655 MEMB     79       POPC     C29      CEL1    -0.150000       12.0110           0
      8656 MEMB     79       POPC     H91      HEL1     0.150000       1.00800           0
      8657 MEMB     79       POPC     C210     CEL1    -0.150000       12.0110           0
      8658 MEMB     79       POPC     H101     HEL1     0.150000       1.00800           0
      8659 MEMB     79       POPC     C211     CTL2    -0.180000       12.0110           0
      8660 MEMB     79       POPC     H11R     HAL2     0.900000E-01   1.00800           0
      8661 MEMB     79       POPC     H11S     HAL2     0.900000E-01   1.00800           0
      8662 MEMB     79       POPC     C212     CTL2    -0.180000       12.0110           0
      8663 MEMB     79       POPC     H12R     HAL2     0.900000E-01   1.00800           0
      8664 MEMB     79       POPC     H12S     HAL2     0.900000E-01   1.00800           0
      8665 MEMB     79       POPC     C213     CTL2    -0.180000       12.0110           0
      8666 MEMB     79       POPC     H13R     HAL2     0.900000E-01   1.00800           0
      8667 MEMB     79       POPC     H13S     HAL2     0.900000E-01   1.00800           0
      8668 MEMB     79       POPC     C214     CTL2    -0.180000       12.0110           0
      8669 MEMB     79       POPC     H14R     HAL2     0.900000E-01   1.00800           0
      8670 MEMB     79       POPC     H14S     HAL2     0.900000E-01   1.00800           0
      8671 MEMB     79       POPC     C215     CTL2    -0.180000       12.0110           0
      8672 MEMB     79       POPC     H15R     HAL2     0.900000E-01   1.00800           0
      8673 MEMB     79       POPC     H15S     HAL2     0.900000E-01   1.00800           0
      8674 MEMB     79       POPC     C216     CTL2    -0.180000       12.0110           0
      8675 MEMB     79       POPC     H16R     HAL2     0.900000E-01   1.00800           0
      8676 MEMB     79       POPC     H16S     HAL2     0.900000E-01   1.00800           0
      8677 MEMB     79       POPC     C217     CTL2    -0.180000       12.0110           0
      8678 MEMB     79       POPC     H17R     HAL2     0.900000E-01   1.00800           0
      8679 MEMB     79       POPC     H17S     HAL2     0.900000E-01   1.00800           0
      8680 MEMB     79       POPC     C218     CTL3    -0.270000       12.0110           0
      8681 MEMB     79       POPC     H18R     HAL3     0.900000E-01   1.00800           0
      8682 MEMB     79       POPC     H18S     HAL3     0.900000E-01   1.00800           0
      8683 MEMB     79       POPC     H18T     HAL3     0.900000E-01   1.00800           0
      8684 MEMB     79       POPC     C33      CTL2    -0.180000       12.0110           0
      8685 MEMB     79       POPC     H3X      HAL2     0.900000E-01   1.00800           0
      8686 MEMB     79       POPC     H3Y      HAL2     0.900000E-01   1.00800           0
      8687 MEMB     79       POPC     C34      CTL2    -0.180000       12.0110           0
      8688 MEMB     79       POPC     H4X      HAL2     0.900000E-01   1.00800           0
      8689 MEMB     79       POPC     H4Y      HAL2     0.900000E-01   1.00800           0
      8690 MEMB     79       POPC     C35      CTL2    -0.180000       12.0110           0
      8691 MEMB     79       POPC     H5X      HAL2     0.900000E-01   1.00800           0
      8692 MEMB     79       POPC     H5Y      HAL2     0.900000E-01   1.00800           0
      8693 MEMB     79       POPC     C36      CTL2    -0.180000       12.0110           0
      8694 MEMB     79       POPC     H6X      HAL2     0.900000E-01   1.00800           0
      8695 MEMB     79       POPC     H6Y      HAL2     0.900000E-01   1.00800           0
      8696 MEMB     79       POPC     C37      CTL2    -0.180000       12.0110           0
      8697 MEMB     79       POPC     H7X      HAL2     0.900000E-01   1.00800           0
      8698 MEMB     79       POPC     H7Y      HAL2     0.900000E-01   1.00800           0
      8699 MEMB     79       POPC     C38      CTL2    -0.180000       12.0110           0
      8700 MEMB     79       POPC     H8X      HAL2     0.900000E-01   1.00800           0
      8701 MEMB     79       POPC     H8Y      HAL2     0.900000E-01   1.00800           0
      8702 MEMB     79       POPC     C39      CTL2    -0.180000       12.0110           0
      8703 MEMB     79       POPC     H9X      HAL2     0.900000E-01   1.00800           0
      8704 MEMB     79       POPC     H9Y      HAL2     0.900000E-01   1.00800           0
      8705 MEMB     79       POPC     C310     CTL2    -0.180000       12.0110           0
      8706 MEMB     79       POPC     H10X     HAL2     0.900000E-01   1.00800           0
      8707 MEMB     79       POPC     H10Y     HAL2     0.900000E-01   1.00800           0
      8708 MEMB     79       POPC     C311     CTL2    -0.180000       12.0110           0
      8709 MEMB     79       POPC     H11X     HAL2     0.900000E-01   1.00800           0
      8710 MEMB     79       POPC     H11Y     HAL2     0.900000E-01   1.00800           0
      8711 MEMB     79       POPC     C312     CTL2    -0.180000       12.0110           0
      8712 MEMB     79       POPC     H12X     HAL2     0.900000E-01   1.00800           0
      8713 MEMB     79       POPC     H12Y     HAL2     0.900000E-01   1.00800           0
      8714 MEMB     79       POPC     C313     CTL2    -0.180000       12.0110           0
      8715 MEMB     79       POPC     H13X     HAL2     0.900000E-01   1.00800           0
      8716 MEMB     79       POPC     H13Y     HAL2     0.900000E-01   1.00800           0
      8717 MEMB     79       POPC     C314     CTL2    -0.180000       12.0110           0
      8718 MEMB     79       POPC     H14X     HAL2     0.900000E-01   1.00800           0
      8719 MEMB     79       POPC     H14Y     HAL2     0.900000E-01   1.00800           0
      8720 MEMB     79       POPC     C315     CTL2    -0.180000       12.0110           0
      8721 MEMB     79       POPC     H15X     HAL2     0.900000E-01   1.00800           0
      8722 MEMB     79       POPC     H15Y     HAL2     0.900000E-01   1.00800           0
      8723 MEMB     79       POPC     C316     CTL3    -0.270000       12.0110           0
      8724 MEMB     79       POPC     H16X     HAL3     0.900000E-01   1.00800           0
      8725 MEMB     79       POPC     H16Y     HAL3     0.900000E-01   1.00800           0
      8726 MEMB     79       POPC     H16Z     HAL3     0.900000E-01   1.00800           0
      8727 MEMB     80       POPC     N        NTL     -0.600000       14.0070           0
      8728 MEMB     80       POPC     C12      CTL2    -0.100000       12.0110           0
      8729 MEMB     80       POPC     H12A     HL       0.250000       1.00800           0
      8730 MEMB     80       POPC     H12B     HL       0.250000       1.00800           0
      8731 MEMB     80       POPC     C13      CTL5    -0.350000       12.0110           0
      8732 MEMB     80       POPC     H13A     HL       0.250000       1.00800           0
      8733 MEMB     80       POPC     H13B     HL       0.250000       1.00800           0
      8734 MEMB     80       POPC     H13C     HL       0.250000       1.00800           0
      8735 MEMB     80       POPC     C14      CTL5    -0.350000       12.0110           0
      8736 MEMB     80       POPC     H14A     HL       0.250000       1.00800           0
      8737 MEMB     80       POPC     H14B     HL       0.250000       1.00800           0
      8738 MEMB     80       POPC     H14C     HL       0.250000       1.00800           0
      8739 MEMB     80       POPC     C15      CTL5    -0.350000       12.0110           0
      8740 MEMB     80       POPC     H15A     HL       0.250000       1.00800           0
      8741 MEMB     80       POPC     H15B     HL       0.250000       1.00800           0
      8742 MEMB     80       POPC     H15C     HL       0.250000       1.00800           0
      8743 MEMB     80       POPC     C11      CTL2    -0.800000E-01   12.0110           0
      8744 MEMB     80       POPC     H11A     HAL2     0.900000E-01   1.00800           0
      8745 MEMB     80       POPC     H11B     HAL2     0.900000E-01   1.00800           0
      8746 MEMB     80       POPC     P        PL        1.50000       30.9740           0
      8747 MEMB     80       POPC     O13      O2L     -0.780000       15.9994           0
      8748 MEMB     80       POPC     O14      O2L     -0.780000       15.9994           0
      8749 MEMB     80       POPC     O12      OSLP    -0.570000       15.9994           0
      8750 MEMB     80       POPC     O11      OSLP    -0.570000       15.9994           0
      8751 MEMB     80       POPC     C1       CTL2    -0.800000E-01   12.0110           0
      8752 MEMB     80       POPC     HA       HAL2     0.900000E-01   1.00800           0
      8753 MEMB     80       POPC     HB       HAL2     0.900000E-01   1.00800           0
      8754 MEMB     80       POPC     C2       CTL1     0.170000       12.0110           0
      8755 MEMB     80       POPC     HS       HAL1     0.900000E-01   1.00800           0
      8756 MEMB     80       POPC     O21      OSL     -0.490000       15.9994           0
      8757 MEMB     80       POPC     C21      CL       0.900000       12.0110           0
      8758 MEMB     80       POPC     O22      OBL     -0.630000       15.9994           0
      8759 MEMB     80       POPC     C22      CTL2    -0.220000       12.0110           0
      8760 MEMB     80       POPC     H2R      HAL2     0.900000E-01   1.00800           0
      8761 MEMB     80       POPC     H2S      HAL2     0.900000E-01   1.00800           0
      8762 MEMB     80       POPC     C3       CTL2     0.800000E-01   12.0110           0
      8763 MEMB     80       POPC     HX       HAL2     0.900000E-01   1.00800           0
      8764 MEMB     80       POPC     HY       HAL2     0.900000E-01   1.00800           0
      8765 MEMB     80       POPC     O31      OSL     -0.490000       15.9994           0
      8766 MEMB     80       POPC     C31      CL       0.900000       12.0110           0
      8767 MEMB     80       POPC     O32      OBL     -0.630000       15.9994           0
      8768 MEMB     80       POPC     C32      CTL2    -0.220000       12.0110           0
      8769 MEMB     80       POPC     H2X      HAL2     0.900000E-01   1.00800           0
      8770 MEMB     80       POPC     H2Y      HAL2     0.900000E-01   1.00800           0
      8771 MEMB     80       POPC     C23      CTL2    -0.180000       12.0110           0
      8772 MEMB     80       POPC     H3R      HAL2     0.900000E-01   1.00800           0
      8773 MEMB     80       POPC     H3S      HAL2     0.900000E-01   1.00800           0
      8774 MEMB     80       POPC     C24      CTL2    -0.180000       12.0110           0
      8775 MEMB     80       POPC     H4R      HAL2     0.900000E-01   1.00800           0
      8776 MEMB     80       POPC     H4S      HAL2     0.900000E-01   1.00800           0
      8777 MEMB     80       POPC     C25      CTL2    -0.180000       12.0110           0
      8778 MEMB     80       POPC     H5R      HAL2     0.900000E-01   1.00800           0
      8779 MEMB     80       POPC     H5S      HAL2     0.900000E-01   1.00800           0
      8780 MEMB     80       POPC     C26      CTL2    -0.180000       12.0110           0
      8781 MEMB     80       POPC     H6R      HAL2     0.900000E-01   1.00800           0
      8782 MEMB     80       POPC     H6S      HAL2     0.900000E-01   1.00800           0
      8783 MEMB     80       POPC     C27      CTL2    -0.180000       12.0110           0
      8784 MEMB     80       POPC     H7R      HAL2     0.900000E-01   1.00800           0
      8785 MEMB     80       POPC     H7S      HAL2     0.900000E-01   1.00800           0
      8786 MEMB     80       POPC     C28      CTL2    -0.180000       12.0110           0
      8787 MEMB     80       POPC     H8R      HAL2     0.900000E-01   1.00800           0
      8788 MEMB     80       POPC     H8S      HAL2     0.900000E-01   1.00800           0
      8789 MEMB     80       POPC     C29      CEL1    -0.150000       12.0110           0
      8790 MEMB     80       POPC     H91      HEL1     0.150000       1.00800           0
      8791 MEMB     80       POPC     C210     CEL1    -0.150000       12.0110           0
      8792 MEMB     80       POPC     H101     HEL1     0.150000       1.00800           0
      8793 MEMB     80       POPC     C211     CTL2    -0.180000       12.0110           0
      8794 MEMB     80       POPC     H11R     HAL2     0.900000E-01   1.00800           0
      8795 MEMB     80       POPC     H11S     HAL2     0.900000E-01   1.00800           0
      8796 MEMB     80       POPC     C212     CTL2    -0.180000       12.0110           0
      8797 MEMB     80       POPC     H12R     HAL2     0.900000E-01   1.00800           0
      8798 MEMB     80       POPC     H12S     HAL2     0.900000E-01   1.00800           0
      8799 MEMB     80       POPC     C213     CTL2    -0.180000       12.0110           0
      8800 MEMB     80       POPC     H13R     HAL2     0.900000E-01   1.00800           0
      8801 MEMB     80       POPC     H13S     HAL2     0.900000E-01   1.00800           0
      8802 MEMB     80       POPC     C214     CTL2    -0.180000       12.0110           0
      8803 MEMB     80       POPC     H14R     HAL2     0.900000E-01   1.00800           0
      8804 MEMB     80       POPC     H14S     HAL2     0.900000E-01   1.00800           0
      8805 MEMB     80       POPC     C215     CTL2    -0.180000       12.0110           0
      8806 MEMB     80       POPC     H15R     HAL2     0.900000E-01   1.00800           0
      8807 MEMB     80       POPC     H15S     HAL2     0.900000E-01   1.00800           0
      8808 MEMB     80       POPC     C216     CTL2    -0.180000       12.0110           0
      8809 MEMB     80       POPC     H16R     HAL2     0.900000E-01   1.00800           0
      8810 MEMB     80       POPC     H16S     HAL2     0.900000E-01   1.00800           0
      8811 MEMB     80       POPC     C217     CTL2    -0.180000       12.0110           0
      8812 MEMB     80       POPC     H17R     HAL2     0.900000E-01   1.00800           0
      8813 MEMB     80       POPC     H17S     HAL2     0.900000E-01   1.00800           0
      8814 MEMB     80       POPC     C218     CTL3    -0.270000       12.0110           0
      8815 MEMB     80       POPC     H18R     HAL3     0.900000E-01   1.00800           0
      8816 MEMB     80       POPC     H18S     HAL3     0.900000E-01   1.00800           0
      8817 MEMB     80       POPC     H18T     HAL3     0.900000E-01   1.00800           0
      8818 MEMB     80       POPC     C33      CTL2    -0.180000       12.0110           0
      8819 MEMB     80       POPC     H3X      HAL2     0.900000E-01   1.00800           0
      8820 MEMB     80       POPC     H3Y      HAL2     0.900000E-01   1.00800           0
      8821 MEMB     80       POPC     C34      CTL2    -0.180000       12.0110           0
      8822 MEMB     80       POPC     H4X      HAL2     0.900000E-01   1.00800           0
      8823 MEMB     80       POPC     H4Y      HAL2     0.900000E-01   1.00800           0
      8824 MEMB     80       POPC     C35      CTL2    -0.180000       12.0110           0
      8825 MEMB     80       POPC     H5X      HAL2     0.900000E-01   1.00800           0
      8826 MEMB     80       POPC     H5Y      HAL2     0.900000E-01   1.00800           0
      8827 MEMB     80       POPC     C36      CTL2    -0.180000       12.0110           0
      8828 MEMB     80       POPC     H6X      HAL2     0.900000E-01   1.00800           0
      8829 MEMB     80       POPC     H6Y      HAL2     0.900000E-01   1.00800           0
      8830 MEMB     80       POPC     C37      CTL2    -0.180000       12.0110           0
      8831 MEMB     80       POPC     H7X      HAL2     0.900000E-01   1.00800           0
      8832 MEMB     80       POPC     H7Y      HAL2     0.900000E-01   1.00800           0
      8833 MEMB     80       POPC     C38      CTL2    -0.180000       12.0110           0
      8834 MEMB     80       POPC     H8X      HAL2     0.900000E-01   1.00800           0
      8835 MEMB     80       POPC     H8Y      HAL2     0.900000E-01   1.00800           0
      8836 MEMB     80       POPC     C39      CTL2    -0.180000       12.0110           0
      8837 MEMB     80       POPC     H9X      HAL2     0.900000E-01   1.00800           0
      8838 MEMB     80       POPC     H9Y      HAL2     0.900000E-01   1.00800           0
      8839 MEMB     80       POPC     C310     CTL2    -0.180000       12.0110           0
      8840 MEMB     80       POPC     H10X     HAL2     0.900000E-01   1.00800           0
      8841 MEMB     80       POPC     H10Y     HAL2     0.900000E-01   1.00800           0
      8842 MEMB     80       POPC     C311     CTL2    -0.180000       12.0110           0
      8843 MEMB     80       POPC     H11X     HAL2     0.900000E-01   1.00800           0
      8844 MEMB     80       POPC     H11Y     HAL2     0.900000E-01   1.00800           0
      8845 MEMB     80       POPC     C312     CTL2    -0.180000       12.0110           0
      8846 MEMB     80       POPC     H12X     HAL2     0.900000E-01   1.00800           0
      8847 MEMB     80       POPC     H12Y     HAL2     0.900000E-01   1.00800           0
      8848 MEMB     80       POPC     C313     CTL2    -0.180000       12.0110           0
      8849 MEMB     80       POPC     H13X     HAL2     0.900000E-01   1.00800           0
      8850 MEMB     80       POPC     H13Y     HAL2     0.900000E-01   1.00800           0
      8851 MEMB     80       POPC     C314     CTL2    -0.180000       12.0110           0
      8852 MEMB     80       POPC     H14X     HAL2     0.900000E-01   1.00800           0
      8853 MEMB     80       POPC     H14Y     HAL2     0.900000E-01   1.00800           0
      8854 MEMB     80       POPC     C315     CTL2    -0.180000       12.0110           0
      8855 MEMB     80       POPC     H15X     HAL2     0.900000E-01   1.00800           0
      8856 MEMB     80       POPC     H15Y     HAL2     0.900000E-01   1.00800           0
      8857 MEMB     80       POPC     C316     CTL3    -0.270000       12.0110           0
      8858 MEMB     80       POPC     H16X     HAL3     0.900000E-01   1.00800           0
      8859 MEMB     80       POPC     H16Y     HAL3     0.900000E-01   1.00800           0
      8860 MEMB     80       POPC     H16Z     HAL3     0.900000E-01   1.00800           0
      8861 MEMB     81       POPC     N        NTL     -0.600000       14.0070           0
      8862 MEMB     81       POPC     C12      CTL2    -0.100000       12.0110           0
      8863 MEMB     81       POPC     H12A     HL       0.250000       1.00800           0
      8864 MEMB     81       POPC     H12B     HL       0.250000       1.00800           0
      8865 MEMB     81       POPC     C13      CTL5    -0.350000       12.0110           0
      8866 MEMB     81       POPC     H13A     HL       0.250000       1.00800           0
      8867 MEMB     81       POPC     H13B     HL       0.250000       1.00800           0
      8868 MEMB     81       POPC     H13C     HL       0.250000       1.00800           0
      8869 MEMB     81       POPC     C14      CTL5    -0.350000       12.0110           0
      8870 MEMB     81       POPC     H14A     HL       0.250000       1.00800           0
      8871 MEMB     81       POPC     H14B     HL       0.250000       1.00800           0
      8872 MEMB     81       POPC     H14C     HL       0.250000       1.00800           0
      8873 MEMB     81       POPC     C15      CTL5    -0.350000       12.0110           0
      8874 MEMB     81       POPC     H15A     HL       0.250000       1.00800           0
      8875 MEMB     81       POPC     H15B     HL       0.250000       1.00800           0
      8876 MEMB     81       POPC     H15C     HL       0.250000       1.00800           0
      8877 MEMB     81       POPC     C11      CTL2    -0.800000E-01   12.0110           0
      8878 MEMB     81       POPC     H11A     HAL2     0.900000E-01   1.00800           0
      8879 MEMB     81       POPC     H11B     HAL2     0.900000E-01   1.00800           0
      8880 MEMB     81       POPC     P        PL        1.50000       30.9740           0
      8881 MEMB     81       POPC     O13      O2L     -0.780000       15.9994           0
      8882 MEMB     81       POPC     O14      O2L     -0.780000       15.9994           0
      8883 MEMB     81       POPC     O12      OSLP    -0.570000       15.9994           0
      8884 MEMB     81       POPC     O11      OSLP    -0.570000       15.9994           0
      8885 MEMB     81       POPC     C1       CTL2    -0.800000E-01   12.0110           0
      8886 MEMB     81       POPC     HA       HAL2     0.900000E-01   1.00800           0
      8887 MEMB     81       POPC     HB       HAL2     0.900000E-01   1.00800           0
      8888 MEMB     81       POPC     C2       CTL1     0.170000       12.0110           0
      8889 MEMB     81       POPC     HS       HAL1     0.900000E-01   1.00800           0
      8890 MEMB     81       POPC     O21      OSL     -0.490000       15.9994           0
      8891 MEMB     81       POPC     C21      CL       0.900000       12.0110           0
      8892 MEMB     81       POPC     O22      OBL     -0.630000       15.9994           0
      8893 MEMB     81       POPC     C22      CTL2    -0.220000       12.0110           0
      8894 MEMB     81       POPC     H2R      HAL2     0.900000E-01   1.00800           0
      8895 MEMB     81       POPC     H2S      HAL2     0.900000E-01   1.00800           0
      8896 MEMB     81       POPC     C3       CTL2     0.800000E-01   12.0110           0
      8897 MEMB     81       POPC     HX       HAL2     0.900000E-01   1.00800           0
      8898 MEMB     81       POPC     HY       HAL2     0.900000E-01   1.00800           0
      8899 MEMB     81       POPC     O31      OSL     -0.490000       15.9994           0
      8900 MEMB     81       POPC     C31      CL       0.900000       12.0110           0
      8901 MEMB     81       POPC     O32      OBL     -0.630000       15.9994           0
      8902 MEMB     81       POPC     C32      CTL2    -0.220000       12.0110           0
      8903 MEMB     81       POPC     H2X      HAL2     0.900000E-01   1.00800           0
      8904 MEMB     81       POPC     H2Y      HAL2     0.900000E-01   1.00800           0
      8905 MEMB     81       POPC     C23      CTL2    -0.180000       12.0110           0
      8906 MEMB     81       POPC     H3R      HAL2     0.900000E-01   1.00800           0
      8907 MEMB     81       POPC     H3S      HAL2     0.900000E-01   1.00800           0
      8908 MEMB     81       POPC     C24      CTL2    -0.180000       12.0110           0
      8909 MEMB     81       POPC     H4R      HAL2     0.900000E-01   1.00800           0
      8910 MEMB     81       POPC     H4S      HAL2     0.900000E-01   1.00800           0
      8911 MEMB     81       POPC     C25      CTL2    -0.180000       12.0110           0
      8912 MEMB     81       POPC     H5R      HAL2     0.900000E-01   1.00800           0
      8913 MEMB     81       POPC     H5S      HAL2     0.900000E-01   1.00800           0
      8914 MEMB     81       POPC     C26      CTL2    -0.180000       12.0110           0
      8915 MEMB     81       POPC     H6R      HAL2     0.900000E-01   1.00800           0
      8916 MEMB     81       POPC     H6S      HAL2     0.900000E-01   1.00800           0
      8917 MEMB     81       POPC     C27      CTL2    -0.180000       12.0110           0
      8918 MEMB     81       POPC     H7R      HAL2     0.900000E-01   1.00800           0
      8919 MEMB     81       POPC     H7S      HAL2     0.900000E-01   1.00800           0
      8920 MEMB     81       POPC     C28      CTL2    -0.180000       12.0110           0
      8921 MEMB     81       POPC     H8R      HAL2     0.900000E-01   1.00800           0
      8922 MEMB     81       POPC     H8S      HAL2     0.900000E-01   1.00800           0
      8923 MEMB     81       POPC     C29      CEL1    -0.150000       12.0110           0
      8924 MEMB     81       POPC     H91      HEL1     0.150000       1.00800           0
      8925 MEMB     81       POPC     C210     CEL1    -0.150000       12.0110           0
      8926 MEMB     81       POPC     H101     HEL1     0.150000       1.00800           0
      8927 MEMB     81       POPC     C211     CTL2    -0.180000       12.0110           0
      8928 MEMB     81       POPC     H11R     HAL2     0.900000E-01   1.00800           0
      8929 MEMB     81       POPC     H11S     HAL2     0.900000E-01   1.00800           0
      8930 MEMB     81       POPC     C212     CTL2    -0.180000       12.0110           0
      8931 MEMB     81       POPC     H12R     HAL2     0.900000E-01   1.00800           0
      8932 MEMB     81       POPC     H12S     HAL2     0.900000E-01   1.00800           0
      8933 MEMB     81       POPC     C213     CTL2    -0.180000       12.0110           0
      8934 MEMB     81       POPC     H13R     HAL2     0.900000E-01   1.00800           0
      8935 MEMB     81       POPC     H13S     HAL2     0.900000E-01   1.00800           0
      8936 MEMB     81       POPC     C214     CTL2    -0.180000       12.0110           0
      8937 MEMB     81       POPC     H14R     HAL2     0.900000E-01   1.00800           0
      8938 MEMB     81       POPC     H14S     HAL2     0.900000E-01   1.00800           0
      8939 MEMB     81       POPC     C215     CTL2    -0.180000       12.0110           0
      8940 MEMB     81       POPC     H15R     HAL2     0.900000E-01   1.00800           0
      8941 MEMB     81       POPC     H15S     HAL2     0.900000E-01   1.00800           0
      8942 MEMB     81       POPC     C216     CTL2    -0.180000       12.0110           0
      8943 MEMB     81       POPC     H16R     HAL2     0.900000E-01   1.00800           0
      8944 MEMB     81       POPC     H16S     HAL2     0.900000E-01   1.00800           0
      8945 MEMB     81       POPC     C217     CTL2    -0.180000       12.0110           0
      8946 MEMB     81       POPC     H17R     HAL2     0.900000E-01   1.00800           0
      8947 MEMB     81       POPC     H17S     HAL2     0.900000E-01   1.00800           0
      8948 MEMB     81       POPC     C218     CTL3    -0.270000       12.0110           0
      8949 MEMB     81       POPC     H18R     HAL3     0.900000E-01   1.00800           0
      8950 MEMB     81       POPC     H18S     HAL3     0.900000E-01   1.00800           0
      8951 MEMB     81       POPC     H18T     HAL3     0.900000E-01   1.00800           0
      8952 MEMB     81       POPC     C33      CTL2    -0.180000       12.0110           0
      8953 MEMB     81       POPC     H3X      HAL2     0.900000E-01   1.00800           0
      8954 MEMB     81       POPC     H3Y      HAL2     0.900000E-01   1.00800           0
      8955 MEMB     81       POPC     C34      CTL2    -0.180000       12.0110           0
      8956 MEMB     81       POPC     H4X      HAL2     0.900000E-01   1.00800           0
      8957 MEMB     81       POPC     H4Y      HAL2     0.900000E-01   1.00800           0
      8958 MEMB     81       POPC     C35      CTL2    -0.180000       12.0110           0
      8959 MEMB     81       POPC     H5X      HAL2     0.900000E-01   1.00800           0
      8960 MEMB     81       POPC     H5Y      HAL2     0.900000E-01   1.00800           0
      8961 MEMB     81       POPC     C36      CTL2    -0.180000       12.0110           0
      8962 MEMB     81       POPC     H6X      HAL2     0.900000E-01   1.00800           0
      8963 MEMB     81       POPC     H6Y      HAL2     0.900000E-01   1.00800           0
      8964 MEMB     81       POPC     C37      CTL2    -0.180000       12.0110           0
      8965 MEMB     81       POPC     H7X      HAL2     0.900000E-01   1.00800           0
      8966 MEMB     81       POPC     H7Y      HAL2     0.900000E-01   1.00800           0
      8967 MEMB     81       POPC     C38      CTL2    -0.180000       12.0110           0
      8968 MEMB     81       POPC     H8X      HAL2     0.900000E-01   1.00800           0
      8969 MEMB     81       POPC     H8Y      HAL2     0.900000E-01   1.00800           0
      8970 MEMB     81       POPC     C39      CTL2    -0.180000       12.0110           0
      8971 MEMB     81       POPC     H9X      HAL2     0.900000E-01   1.00800           0
      8972 MEMB     81       POPC     H9Y      HAL2     0.900000E-01   1.00800           0
      8973 MEMB     81       POPC     C310     CTL2    -0.180000       12.0110           0
      8974 MEMB     81       POPC     H10X     HAL2     0.900000E-01   1.00800           0
      8975 MEMB     81       POPC     H10Y     HAL2     0.900000E-01   1.00800           0
      8976 MEMB     81       POPC     C311     CTL2    -0.180000       12.0110           0
      8977 MEMB     81       POPC     H11X     HAL2     0.900000E-01   1.00800           0
      8978 MEMB     81       POPC     H11Y     HAL2     0.900000E-01   1.00800           0
      8979 MEMB     81       POPC     C312     CTL2    -0.180000       12.0110           0
      8980 MEMB     81       POPC     H12X     HAL2     0.900000E-01   1.00800           0
      8981 MEMB     81       POPC     H12Y     HAL2     0.900000E-01   1.00800           0
      8982 MEMB     81       POPC     C313     CTL2    -0.180000       12.0110           0
      8983 MEMB     81       POPC     H13X     HAL2     0.900000E-01   1.00800           0
      8984 MEMB     81       POPC     H13Y     HAL2     0.900000E-01   1.00800           0
      8985 MEMB     81       POPC     C314     CTL2    -0.180000       12.0110           0
      8986 MEMB     81       POPC     H14X     HAL2     0.900000E-01   1.00800           0
      8987 MEMB     81       POPC     H14Y     HAL2     0.900000E-01   1.00800           0
      8988 MEMB     81       POPC     C315     CTL2    -0.180000       12.0110           0
      8989 MEMB     81       POPC     H15X     HAL2     0.900000E-01   1.00800           0
      8990 MEMB     81       POPC     H15Y     HAL2     0.900000E-01   1.00800           0
      8991 MEMB     81       POPC     C316     CTL3    -0.270000       12.0110           0
      8992 MEMB     81       POPC     H16X     HAL3     0.900000E-01   1.00800           0
      8993 MEMB     81       POPC     H16Y     HAL3     0.900000E-01   1.00800           0
      8994 MEMB     81       POPC     H16Z     HAL3     0.900000E-01   1.00800           0
      8995 MEMB     82       POPC     N        NTL     -0.600000       14.0070           0
      8996 MEMB     82       POPC     C12      CTL2    -0.100000       12.0110           0
      8997 MEMB     82       POPC     H12A     HL       0.250000       1.00800           0
      8998 MEMB     82       POPC     H12B     HL       0.250000       1.00800           0
      8999 MEMB     82       POPC     C13      CTL5    -0.350000       12.0110           0
      9000 MEMB     82       POPC     H13A     HL       0.250000       1.00800           0
      9001 MEMB     82       POPC     H13B     HL       0.250000       1.00800           0
      9002 MEMB     82       POPC     H13C     HL       0.250000       1.00800           0
      9003 MEMB     82       POPC     C14      CTL5    -0.350000       12.0110           0
      9004 MEMB     82       POPC     H14A     HL       0.250000       1.00800           0
      9005 MEMB     82       POPC     H14B     HL       0.250000       1.00800           0
      9006 MEMB     82       POPC     H14C     HL       0.250000       1.00800           0
      9007 MEMB     82       POPC     C15      CTL5    -0.350000       12.0110           0
      9008 MEMB     82       POPC     H15A     HL       0.250000       1.00800           0
      9009 MEMB     82       POPC     H15B     HL       0.250000       1.00800           0
      9010 MEMB     82       POPC     H15C     HL       0.250000       1.00800           0
      9011 MEMB     82       POPC     C11      CTL2    -0.800000E-01   12.0110           0
      9012 MEMB     82       POPC     H11A     HAL2     0.900000E-01   1.00800           0
      9013 MEMB     82       POPC     H11B     HAL2     0.900000E-01   1.00800           0
      9014 MEMB     82       POPC     P        PL        1.50000       30.9740           0
      9015 MEMB     82       POPC     O13      O2L     -0.780000       15.9994           0
      9016 MEMB     82       POPC     O14      O2L     -0.780000       15.9994           0
      9017 MEMB     82       POPC     O12      OSLP    -0.570000       15.9994           0
      9018 MEMB     82       POPC     O11      OSLP    -0.570000       15.9994           0
      9019 MEMB     82       POPC     C1       CTL2    -0.800000E-01   12.0110           0
      9020 MEMB     82       POPC     HA       HAL2     0.900000E-01   1.00800           0
      9021 MEMB     82       POPC     HB       HAL2     0.900000E-01   1.00800           0
      9022 MEMB     82       POPC     C2       CTL1     0.170000       12.0110           0
      9023 MEMB     82       POPC     HS       HAL1     0.900000E-01   1.00800           0
      9024 MEMB     82       POPC     O21      OSL     -0.490000       15.9994           0
      9025 MEMB     82       POPC     C21      CL       0.900000       12.0110           0
      9026 MEMB     82       POPC     O22      OBL     -0.630000       15.9994           0
      9027 MEMB     82       POPC     C22      CTL2    -0.220000       12.0110           0
      9028 MEMB     82       POPC     H2R      HAL2     0.900000E-01   1.00800           0
      9029 MEMB     82       POPC     H2S      HAL2     0.900000E-01   1.00800           0
      9030 MEMB     82       POPC     C3       CTL2     0.800000E-01   12.0110           0
      9031 MEMB     82       POPC     HX       HAL2     0.900000E-01   1.00800           0
      9032 MEMB     82       POPC     HY       HAL2     0.900000E-01   1.00800           0
      9033 MEMB     82       POPC     O31      OSL     -0.490000       15.9994           0
      9034 MEMB     82       POPC     C31      CL       0.900000       12.0110           0
      9035 MEMB     82       POPC     O32      OBL     -0.630000       15.9994           0
      9036 MEMB     82       POPC     C32      CTL2    -0.220000       12.0110           0
      9037 MEMB     82       POPC     H2X      HAL2     0.900000E-01   1.00800           0
      9038 MEMB     82       POPC     H2Y      HAL2     0.900000E-01   1.00800           0
      9039 MEMB     82       POPC     C23      CTL2    -0.180000       12.0110           0
      9040 MEMB     82       POPC     H3R      HAL2     0.900000E-01   1.00800           0
      9041 MEMB     82       POPC     H3S      HAL2     0.900000E-01   1.00800           0
      9042 MEMB     82       POPC     C24      CTL2    -0.180000       12.0110           0
      9043 MEMB     82       POPC     H4R      HAL2     0.900000E-01   1.00800           0
      9044 MEMB     82       POPC     H4S      HAL2     0.900000E-01   1.00800           0
      9045 MEMB     82       POPC     C25      CTL2    -0.180000       12.0110           0
      9046 MEMB     82       POPC     H5R      HAL2     0.900000E-01   1.00800           0
      9047 MEMB     82       POPC     H5S      HAL2     0.900000E-01   1.00800           0
      9048 MEMB     82       POPC     C26      CTL2    -0.180000       12.0110           0
      9049 MEMB     82       POPC     H6R      HAL2     0.900000E-01   1.00800           0
      9050 MEMB     82       POPC     H6S      HAL2     0.900000E-01   1.00800           0
      9051 MEMB     82       POPC     C27      CTL2    -0.180000       12.0110           0
      9052 MEMB     82       POPC     H7R      HAL2     0.900000E-01   1.00800           0
      9053 MEMB     82       POPC     H7S      HAL2     0.900000E-01   1.00800           0
      9054 MEMB     82       POPC     C28      CTL2    -0.180000       12.0110           0
      9055 MEMB     82       POPC     H8R      HAL2     0.900000E-01   1.00800           0
      9056 MEMB     82       POPC     H8S      HAL2     0.900000E-01   1.00800           0
      9057 MEMB     82       POPC     C29      CEL1    -0.150000       12.0110           0
      9058 MEMB     82       POPC     H91      HEL1     0.150000       1.00800           0
      9059 MEMB     82       POPC     C210     CEL1    -0.150000       12.0110           0
      9060 MEMB     82       POPC     H101     HEL1     0.150000       1.00800           0
      9061 MEMB     82       POPC     C211     CTL2    -0.180000       12.0110           0
      9062 MEMB     82       POPC     H11R     HAL2     0.900000E-01   1.00800           0
      9063 MEMB     82       POPC     H11S     HAL2     0.900000E-01   1.00800           0
      9064 MEMB     82       POPC     C212     CTL2    -0.180000       12.0110           0
      9065 MEMB     82       POPC     H12R     HAL2     0.900000E-01   1.00800           0
      9066 MEMB     82       POPC     H12S     HAL2     0.900000E-01   1.00800           0
      9067 MEMB     82       POPC     C213     CTL2    -0.180000       12.0110           0
      9068 MEMB     82       POPC     H13R     HAL2     0.900000E-01   1.00800           0
      9069 MEMB     82       POPC     H13S     HAL2     0.900000E-01   1.00800           0
      9070 MEMB     82       POPC     C214     CTL2    -0.180000       12.0110           0
      9071 MEMB     82       POPC     H14R     HAL2     0.900000E-01   1.00800           0
      9072 MEMB     82       POPC     H14S     HAL2     0.900000E-01   1.00800           0
      9073 MEMB     82       POPC     C215     CTL2    -0.180000       12.0110           0
      9074 MEMB     82       POPC     H15R     HAL2     0.900000E-01   1.00800           0
      9075 MEMB     82       POPC     H15S     HAL2     0.900000E-01   1.00800           0
      9076 MEMB     82       POPC     C216     CTL2    -0.180000       12.0110           0
      9077 MEMB     82       POPC     H16R     HAL2     0.900000E-01   1.00800           0
      9078 MEMB     82       POPC     H16S     HAL2     0.900000E-01   1.00800           0
      9079 MEMB     82       POPC     C217     CTL2    -0.180000       12.0110           0
      9080 MEMB     82       POPC     H17R     HAL2     0.900000E-01   1.00800           0
      9081 MEMB     82       POPC     H17S     HAL2     0.900000E-01   1.00800           0
      9082 MEMB     82       POPC     C218     CTL3    -0.270000       12.0110           0
      9083 MEMB     82       POPC     H18R     HAL3     0.900000E-01   1.00800           0
      9084 MEMB     82       POPC     H18S     HAL3     0.900000E-01   1.00800           0
      9085 MEMB     82       POPC     H18T     HAL3     0.900000E-01   1.00800           0
      9086 MEMB     82       POPC     C33      CTL2    -0.180000       12.0110           0
      9087 MEMB     82       POPC     H3X      HAL2     0.900000E-01   1.00800           0
      9088 MEMB     82       POPC     H3Y      HAL2     0.900000E-01   1.00800           0
      9089 MEMB     82       POPC     C34      CTL2    -0.180000       12.0110           0
      9090 MEMB     82       POPC     H4X      HAL2     0.900000E-01   1.00800           0
      9091 MEMB     82       POPC     H4Y      HAL2     0.900000E-01   1.00800           0
      9092 MEMB     82       POPC     C35      CTL2    -0.180000       12.0110           0
      9093 MEMB     82       POPC     H5X      HAL2     0.900000E-01   1.00800           0
      9094 MEMB     82       POPC     H5Y      HAL2     0.900000E-01   1.00800           0
      9095 MEMB     82       POPC     C36      CTL2    -0.180000       12.0110           0
      9096 MEMB     82       POPC     H6X      HAL2     0.900000E-01   1.00800           0
      9097 MEMB     82       POPC     H6Y      HAL2     0.900000E-01   1.00800           0
      9098 MEMB     82       POPC     C37      CTL2    -0.180000       12.0110           0
      9099 MEMB     82       POPC     H7X      HAL2     0.900000E-01   1.00800           0
      9100 MEMB     82       POPC     H7Y      HAL2     0.900000E-01   1.00800           0
      9101 MEMB     82       POPC     C38      CTL2    -0.180000       12.0110           0
      9102 MEMB     82       POPC     H8X      HAL2     0.900000E-01   1.00800           0
      9103 MEMB     82       POPC     H8Y      HAL2     0.900000E-01   1.00800           0
      9104 MEMB     82       POPC     C39      CTL2    -0.180000       12.0110           0
      9105 MEMB     82       POPC     H9X      HAL2     0.900000E-01   1.00800           0
      9106 MEMB     82       POPC     H9Y      HAL2     0.900000E-01   1.00800           0
      9107 MEMB     82       POPC     C310     CTL2    -0.180000       12.0110           0
      9108 MEMB     82       POPC     H10X     HAL2     0.900000E-01   1.00800           0
      9109 MEMB     82       POPC     H10Y     HAL2     0.900000E-01   1.00800           0
      9110 MEMB     82       POPC     C311     CTL2    -0.180000       12.0110           0
      9111 MEMB     82       POPC     H11X     HAL2     0.900000E-01   1.00800           0
      9112 MEMB     82       POPC     H11Y     HAL2     0.900000E-01   1.00800           0
      9113 MEMB     82       POPC     C312     CTL2    -0.180000       12.0110           0
      9114 MEMB     82       POPC     H12X     HAL2     0.900000E-01   1.00800           0
      9115 MEMB     82       POPC     H12Y     HAL2     0.900000E-01   1.00800           0
      9116 MEMB     82       POPC     C313     CTL2    -0.180000       12.0110           0
      9117 MEMB     82       POPC     H13X     HAL2     0.900000E-01   1.00800           0
      9118 MEMB     82       POPC     H13Y     HAL2     0.900000E-01   1.00800           0
      9119 MEMB     82       POPC     C314     CTL2    -0.180000       12.0110           0
      9120 MEMB     82       POPC     H14X     HAL2     0.900000E-01   1.00800           0
      9121 MEMB     82       POPC     H14Y     HAL2     0.900000E-01   1.00800           0
      9122 MEMB     82       POPC     C315     CTL2    -0.180000       12.0110           0
      9123 MEMB     82       POPC     H15X     HAL2     0.900000E-01   1.00800           0
      9124 MEMB     82       POPC     H15Y     HAL2     0.900000E-01   1.00800           0
      9125 MEMB     82       POPC     C316     CTL3    -0.270000       12.0110           0
      9126 MEMB     82       POPC     H16X     HAL3     0.900000E-01   1.00800           0
      9127 MEMB     82       POPC     H16Y     HAL3     0.900000E-01   1.00800           0
      9128 MEMB     82       POPC     H16Z     HAL3     0.900000E-01   1.00800           0
      9129 MEMB     83       POPC     N        NTL     -0.600000       14.0070           0
      9130 MEMB     83       POPC     C12      CTL2    -0.100000       12.0110           0
      9131 MEMB     83       POPC     H12A     HL       0.250000       1.00800           0
      9132 MEMB     83       POPC     H12B     HL       0.250000       1.00800           0
      9133 MEMB     83       POPC     C13      CTL5    -0.350000       12.0110           0
      9134 MEMB     83       POPC     H13A     HL       0.250000       1.00800           0
      9135 MEMB     83       POPC     H13B     HL       0.250000       1.00800           0
      9136 MEMB     83       POPC     H13C     HL       0.250000       1.00800           0
      9137 MEMB     83       POPC     C14      CTL5    -0.350000       12.0110           0
      9138 MEMB     83       POPC     H14A     HL       0.250000       1.00800           0
      9139 MEMB     83       POPC     H14B     HL       0.250000       1.00800           0
      9140 MEMB     83       POPC     H14C     HL       0.250000       1.00800           0
      9141 MEMB     83       POPC     C15      CTL5    -0.350000       12.0110           0
      9142 MEMB     83       POPC     H15A     HL       0.250000       1.00800           0
      9143 MEMB     83       POPC     H15B     HL       0.250000       1.00800           0
      9144 MEMB     83       POPC     H15C     HL       0.250000       1.00800           0
      9145 MEMB     83       POPC     C11      CTL2    -0.800000E-01   12.0110           0
      9146 MEMB     83       POPC     H11A     HAL2     0.900000E-01   1.00800           0
      9147 MEMB     83       POPC     H11B     HAL2     0.900000E-01   1.00800           0
      9148 MEMB     83       POPC     P        PL        1.50000       30.9740           0
      9149 MEMB     83       POPC     O13      O2L     -0.780000       15.9994           0
      9150 MEMB     83       POPC     O14      O2L     -0.780000       15.9994           0
      9151 MEMB     83       POPC     O12      OSLP    -0.570000       15.9994           0
      9152 MEMB     83       POPC     O11      OSLP    -0.570000       15.9994           0
      9153 MEMB     83       POPC     C1       CTL2    -0.800000E-01   12.0110           0
      9154 MEMB     83       POPC     HA       HAL2     0.900000E-01   1.00800           0
      9155 MEMB     83       POPC     HB       HAL2     0.900000E-01   1.00800           0
      9156 MEMB     83       POPC     C2       CTL1     0.170000       12.0110           0
      9157 MEMB     83       POPC     HS       HAL1     0.900000E-01   1.00800           0
      9158 MEMB     83       POPC     O21      OSL     -0.490000       15.9994           0
      9159 MEMB     83       POPC     C21      CL       0.900000       12.0110           0
      9160 MEMB     83       POPC     O22      OBL     -0.630000       15.9994           0
      9161 MEMB     83       POPC     C22      CTL2    -0.220000       12.0110           0
      9162 MEMB     83       POPC     H2R      HAL2     0.900000E-01   1.00800           0
      9163 MEMB     83       POPC     H2S      HAL2     0.900000E-01   1.00800           0
      9164 MEMB     83       POPC     C3       CTL2     0.800000E-01   12.0110           0
      9165 MEMB     83       POPC     HX       HAL2     0.900000E-01   1.00800           0
      9166 MEMB     83       POPC     HY       HAL2     0.900000E-01   1.00800           0
      9167 MEMB     83       POPC     O31      OSL     -0.490000       15.9994           0
      9168 MEMB     83       POPC     C31      CL       0.900000       12.0110           0
      9169 MEMB     83       POPC     O32      OBL     -0.630000       15.9994           0
      9170 MEMB     83       POPC     C32      CTL2    -0.220000       12.0110           0
      9171 MEMB     83       POPC     H2X      HAL2     0.900000E-01   1.00800           0
      9172 MEMB     83       POPC     H2Y      HAL2     0.900000E-01   1.00800           0
      9173 MEMB     83       POPC     C23      CTL2    -0.180000       12.0110           0
      9174 MEMB     83       POPC     H3R      HAL2     0.900000E-01   1.00800           0
      9175 MEMB     83       POPC     H3S      HAL2     0.900000E-01   1.00800           0
      9176 MEMB     83       POPC     C24      CTL2    -0.180000       12.0110           0
      9177 MEMB     83       POPC     H4R      HAL2     0.900000E-01   1.00800           0
      9178 MEMB     83       POPC     H4S      HAL2     0.900000E-01   1.00800           0
      9179 MEMB     83       POPC     C25      CTL2    -0.180000       12.0110           0
      9180 MEMB     83       POPC     H5R      HAL2     0.900000E-01   1.00800           0
      9181 MEMB     83       POPC     H5S      HAL2     0.900000E-01   1.00800           0
      9182 MEMB     83       POPC     C26      CTL2    -0.180000       12.0110           0
      9183 MEMB     83       POPC     H6R      HAL2     0.900000E-01   1.00800           0
      9184 MEMB     83       POPC     H6S      HAL2     0.900000E-01   1.00800           0
      9185 MEMB     83       POPC     C27      CTL2    -0.180000       12.0110           0
      9186 MEMB     83       POPC     H7R      HAL2     0.900000E-01   1.00800           0
      9187 MEMB     83       POPC     H7S      HAL2     0.900000E-01   1.00800           0
      9188 MEMB     83       POPC     C28      CTL2    -0.180000       12.0110           0
      9189 MEMB     83       POPC     H8R      HAL2     0.900000E-01   1.00800           0
      9190 MEMB     83       POPC     H8S      HAL2     0.900000E-01   1.00800           0
      9191 MEMB     83       POPC     C29      CEL1    -0.150000       12.0110           0
      9192 MEMB     83       POPC     H91      HEL1     0.150000       1.00800           0
      9193 MEMB     83       POPC     C210     CEL1    -0.150000       12.0110           0
      9194 MEMB     83       POPC     H101     HEL1     0.150000       1.00800           0
      9195 MEMB     83       POPC     C211     CTL2    -0.180000       12.0110           0
      9196 MEMB     83       POPC     H11R     HAL2     0.900000E-01   1.00800           0
      9197 MEMB     83       POPC     H11S     HAL2     0.900000E-01   1.00800           0
      9198 MEMB     83       POPC     C212     CTL2    -0.180000       12.0110           0
      9199 MEMB     83       POPC     H12R     HAL2     0.900000E-01   1.00800           0
      9200 MEMB     83       POPC     H12S     HAL2     0.900000E-01   1.00800           0
      9201 MEMB     83       POPC     C213     CTL2    -0.180000       12.0110           0
      9202 MEMB     83       POPC     H13R     HAL2     0.900000E-01   1.00800           0
      9203 MEMB     83       POPC     H13S     HAL2     0.900000E-01   1.00800           0
      9204 MEMB     83       POPC     C214     CTL2    -0.180000       12.0110           0
      9205 MEMB     83       POPC     H14R     HAL2     0.900000E-01   1.00800           0
      9206 MEMB     83       POPC     H14S     HAL2     0.900000E-01   1.00800           0
      9207 MEMB     83       POPC     C215     CTL2    -0.180000       12.0110           0
      9208 MEMB     83       POPC     H15R     HAL2     0.900000E-01   1.00800           0
      9209 MEMB     83       POPC     H15S     HAL2     0.900000E-01   1.00800           0
      9210 MEMB     83       POPC     C216     CTL2    -0.180000       12.0110           0
      9211 MEMB     83       POPC     H16R     HAL2     0.900000E-01   1.00800           0
      9212 MEMB     83       POPC     H16S     HAL2     0.900000E-01   1.00800           0
      9213 MEMB     83       POPC     C217     CTL2    -0.180000       12.0110           0
      9214 MEMB     83       POPC     H17R     HAL2     0.900000E-01   1.00800           0
      9215 MEMB     83       POPC     H17S     HAL2     0.900000E-01   1.00800           0
      9216 MEMB     83       POPC     C218     CTL3    -0.270000       12.0110           0
      9217 MEMB     83       POPC     H18R     HAL3     0.900000E-01   1.00800           0
      9218 MEMB     83       POPC     H18S     HAL3     0.900000E-01   1.00800           0
      9219 MEMB     83       POPC     H18T     HAL3     0.900000E-01   1.00800           0
      9220 MEMB     83       POPC     C33      CTL2    -0.180000       12.0110           0
      9221 MEMB     83       POPC     H3X      HAL2     0.900000E-01   1.00800           0
      9222 MEMB     83       POPC     H3Y      HAL2     0.900000E-01   1.00800           0
      9223 MEMB     83       POPC     C34      CTL2    -0.180000       12.0110           0
      9224 MEMB     83       POPC     H4X      HAL2     0.900000E-01   1.00800           0
      9225 MEMB     83       POPC     H4Y      HAL2     0.900000E-01   1.00800           0
      9226 MEMB     83       POPC     C35      CTL2    -0.180000       12.0110           0
      9227 MEMB     83       POPC     H5X      HAL2     0.900000E-01   1.00800           0
      9228 MEMB     83       POPC     H5Y      HAL2     0.900000E-01   1.00800           0
      9229 MEMB     83       POPC     C36      CTL2    -0.180000       12.0110           0
      9230 MEMB     83       POPC     H6X      HAL2     0.900000E-01   1.00800           0
      9231 MEMB     83       POPC     H6Y      HAL2     0.900000E-01   1.00800           0
      9232 MEMB     83       POPC     C37      CTL2    -0.180000       12.0110           0
      9233 MEMB     83       POPC     H7X      HAL2     0.900000E-01   1.00800           0
      9234 MEMB     83       POPC     H7Y      HAL2     0.900000E-01   1.00800           0
      9235 MEMB     83       POPC     C38      CTL2    -0.180000       12.0110           0
      9236 MEMB     83       POPC     H8X      HAL2     0.900000E-01   1.00800           0
      9237 MEMB     83       POPC     H8Y      HAL2     0.900000E-01   1.00800           0
      9238 MEMB     83       POPC     C39      CTL2    -0.180000       12.0110           0
      9239 MEMB     83       POPC     H9X      HAL2     0.900000E-01   1.00800           0
      9240 MEMB     83       POPC     H9Y      HAL2     0.900000E-01   1.00800           0
      9241 MEMB     83       POPC     C310     CTL2    -0.180000       12.0110           0
      9242 MEMB     83       POPC     H10X     HAL2     0.900000E-01   1.00800           0
      9243 MEMB     83       POPC     H10Y     HAL2     0.900000E-01   1.00800           0
      9244 MEMB     83       POPC     C311     CTL2    -0.180000       12.0110           0
      9245 MEMB     83       POPC     H11X     HAL2     0.900000E-01   1.00800           0
      9246 MEMB     83       POPC     H11Y     HAL2     0.900000E-01   1.00800           0
      9247 MEMB     83       POPC     C312     CTL2    -0.180000       12.0110           0
      9248 MEMB     83       POPC     H12X     HAL2     0.900000E-01   1.00800           0
      9249 MEMB     83       POPC     H12Y     HAL2     0.900000E-01   1.00800           0
      9250 MEMB     83       POPC     C313     CTL2    -0.180000       12.0110           0
      9251 MEMB     83       POPC     H13X     HAL2     0.900000E-01   1.00800           0
      9252 MEMB     83       POPC     H13Y     HAL2     0.900000E-01   1.00800           0
      9253 MEMB     83       POPC     C314     CTL2    -0.180000       12.0110           0
      9254 MEMB     83       POPC     H14X     HAL2     0.900000E-01   1.00800           0
      9255 MEMB     83       POPC     H14Y     HAL2     0.900000E-01   1.00800           0
      9256 MEMB     83       POPC     C315     CTL2    -0.180000       12.0110           0
      9257 MEMB     83       POPC     H15X     HAL2     0.900000E-01   1.00800           0
      9258 MEMB     83       POPC     H15Y     HAL2     0.900000E-01   1.00800           0
      9259 MEMB     83       POPC     C316     CTL3    -0.270000       12.0110           0
      9260 MEMB     83       POPC     H16X     HAL3     0.900000E-01   1.00800           0
      9261 MEMB     83       POPC     H16Y     HAL3     0.900000E-01   1.00800           0
      9262 MEMB     83       POPC     H16Z     HAL3     0.900000E-01   1.00800           0
      9263 MEMB     84       POPC     N        NTL     -0.600000       14.0070           0
      9264 MEMB     84       POPC     C12      CTL2    -0.100000       12.0110           0
      9265 MEMB     84       POPC     H12A     HL       0.250000       1.00800           0
      9266 MEMB     84       POPC     H12B     HL       0.250000       1.00800           0
      9267 MEMB     84       POPC     C13      CTL5    -0.350000       12.0110           0
      9268 MEMB     84       POPC     H13A     HL       0.250000       1.00800           0
      9269 MEMB     84       POPC     H13B     HL       0.250000       1.00800           0
      9270 MEMB     84       POPC     H13C     HL       0.250000       1.00800           0
      9271 MEMB     84       POPC     C14      CTL5    -0.350000       12.0110           0
      9272 MEMB     84       POPC     H14A     HL       0.250000       1.00800           0
      9273 MEMB     84       POPC     H14B     HL       0.250000       1.00800           0
      9274 MEMB     84       POPC     H14C     HL       0.250000       1.00800           0
      9275 MEMB     84       POPC     C15      CTL5    -0.350000       12.0110           0
      9276 MEMB     84       POPC     H15A     HL       0.250000       1.00800           0
      9277 MEMB     84       POPC     H15B     HL       0.250000       1.00800           0
      9278 MEMB     84       POPC     H15C     HL       0.250000       1.00800           0
      9279 MEMB     84       POPC     C11      CTL2    -0.800000E-01   12.0110           0
      9280 MEMB     84       POPC     H11A     HAL2     0.900000E-01   1.00800           0
      9281 MEMB     84       POPC     H11B     HAL2     0.900000E-01   1.00800           0
      9282 MEMB     84       POPC     P        PL        1.50000       30.9740           0
      9283 MEMB     84       POPC     O13      O2L     -0.780000       15.9994           0
      9284 MEMB     84       POPC     O14      O2L     -0.780000       15.9994           0
      9285 MEMB     84       POPC     O12      OSLP    -0.570000       15.9994           0
      9286 MEMB     84       POPC     O11      OSLP    -0.570000       15.9994           0
      9287 MEMB     84       POPC     C1       CTL2    -0.800000E-01   12.0110           0
      9288 MEMB     84       POPC     HA       HAL2     0.900000E-01   1.00800           0
      9289 MEMB     84       POPC     HB       HAL2     0.900000E-01   1.00800           0
      9290 MEMB     84       POPC     C2       CTL1     0.170000       12.0110           0
      9291 MEMB     84       POPC     HS       HAL1     0.900000E-01   1.00800           0
      9292 MEMB     84       POPC     O21      OSL     -0.490000       15.9994           0
      9293 MEMB     84       POPC     C21      CL       0.900000       12.0110           0
      9294 MEMB     84       POPC     O22      OBL     -0.630000       15.9994           0
      9295 MEMB     84       POPC     C22      CTL2    -0.220000       12.0110           0
      9296 MEMB     84       POPC     H2R      HAL2     0.900000E-01   1.00800           0
      9297 MEMB     84       POPC     H2S      HAL2     0.900000E-01   1.00800           0
      9298 MEMB     84       POPC     C3       CTL2     0.800000E-01   12.0110           0
      9299 MEMB     84       POPC     HX       HAL2     0.900000E-01   1.00800           0
      9300 MEMB     84       POPC     HY       HAL2     0.900000E-01   1.00800           0
      9301 MEMB     84       POPC     O31      OSL     -0.490000       15.9994           0
      9302 MEMB     84       POPC     C31      CL       0.900000       12.0110           0
      9303 MEMB     84       POPC     O32      OBL     -0.630000       15.9994           0
      9304 MEMB     84       POPC     C32      CTL2    -0.220000       12.0110           0
      9305 MEMB     84       POPC     H2X      HAL2     0.900000E-01   1.00800           0
      9306 MEMB     84       POPC     H2Y      HAL2     0.900000E-01   1.00800           0
      9307 MEMB     84       POPC     C23      CTL2    -0.180000       12.0110           0
      9308 MEMB     84       POPC     H3R      HAL2     0.900000E-01   1.00800           0
      9309 MEMB     84       POPC     H3S      HAL2     0.900000E-01   1.00800           0
      9310 MEMB     84       POPC     C24      CTL2    -0.180000       12.0110           0
      9311 MEMB     84       POPC     H4R      HAL2     0.900000E-01   1.00800           0
      9312 MEMB     84       POPC     H4S      HAL2     0.900000E-01   1.00800           0
      9313 MEMB     84       POPC     C25      CTL2    -0.180000       12.0110           0
      9314 MEMB     84       POPC     H5R      HAL2     0.900000E-01   1.00800           0
      9315 MEMB     84       POPC     H5S      HAL2     0.900000E-01   1.00800           0
      9316 MEMB     84       POPC     C26      CTL2    -0.180000       12.0110           0
      9317 MEMB     84       POPC     H6R      HAL2     0.900000E-01   1.00800           0
      9318 MEMB     84       POPC     H6S      HAL2     0.900000E-01   1.00800           0
      9319 MEMB     84       POPC     C27      CTL2    -0.180000       12.0110           0
      9320 MEMB     84       POPC     H7R      HAL2     0.900000E-01   1.00800           0
      9321 MEMB     84       POPC     H7S      HAL2     0.900000E-01   1.00800           0
      9322 MEMB     84       POPC     C28      CTL2    -0.180000       12.0110           0
      9323 MEMB     84       POPC     H8R      HAL2     0.900000E-01   1.00800           0
      9324 MEMB     84       POPC     H8S      HAL2     0.900000E-01   1.00800           0
      9325 MEMB     84       POPC     C29      CEL1    -0.150000       12.0110           0
      9326 MEMB     84       POPC     H91      HEL1     0.150000       1.00800           0
      9327 MEMB     84       POPC     C210     CEL1    -0.150000       12.0110           0
      9328 MEMB     84       POPC     H101     HEL1     0.150000       1.00800           0
      9329 MEMB     84       POPC     C211     CTL2    -0.180000       12.0110           0
      9330 MEMB     84       POPC     H11R     HAL2     0.900000E-01   1.00800           0
      9331 MEMB     84       POPC     H11S     HAL2     0.900000E-01   1.00800           0
      9332 MEMB     84       POPC     C212     CTL2    -0.180000       12.0110           0
      9333 MEMB     84       POPC     H12R     HAL2     0.900000E-01   1.00800           0
      9334 MEMB     84       POPC     H12S     HAL2     0.900000E-01   1.00800           0
      9335 MEMB     84       POPC     C213     CTL2    -0.180000       12.0110           0
      9336 MEMB     84       POPC     H13R     HAL2     0.900000E-01   1.00800           0
      9337 MEMB     84       POPC     H13S     HAL2     0.900000E-01   1.00800           0
      9338 MEMB     84       POPC     C214     CTL2    -0.180000       12.0110           0
      9339 MEMB     84       POPC     H14R     HAL2     0.900000E-01   1.00800           0
      9340 MEMB     84       POPC     H14S     HAL2     0.900000E-01   1.00800           0
      9341 MEMB     84       POPC     C215     CTL2    -0.180000       12.0110           0
      9342 MEMB     84       POPC     H15R     HAL2     0.900000E-01   1.00800           0
      9343 MEMB     84       POPC     H15S     HAL2     0.900000E-01   1.00800           0
      9344 MEMB     84       POPC     C216     CTL2    -0.180000       12.0110           0
      9345 MEMB     84       POPC     H16R     HAL2     0.900000E-01   1.00800           0
      9346 MEMB     84       POPC     H16S     HAL2     0.900000E-01   1.00800           0
      9347 MEMB     84       POPC     C217     CTL2    -0.180000       12.0110           0
      9348 MEMB     84       POPC     H17R     HAL2     0.900000E-01   1.00800           0
      9349 MEMB     84       POPC     H17S     HAL2     0.900000E-01   1.00800           0
      9350 MEMB     84       POPC     C218     CTL3    -0.270000       12.0110           0
      9351 MEMB     84       POPC     H18R     HAL3     0.900000E-01   1.00800           0
      9352 MEMB     84       POPC     H18S     HAL3     0.900000E-01   1.00800           0
      9353 MEMB     84       POPC     H18T     HAL3     0.900000E-01   1.00800           0
      9354 MEMB     84       POPC     C33      CTL2    -0.180000       12.0110           0
      9355 MEMB     84       POPC     H3X      HAL2     0.900000E-01   1.00800           0
      9356 MEMB     84       POPC     H3Y      HAL2     0.900000E-01   1.00800           0
      9357 MEMB     84       POPC     C34      CTL2    -0.180000       12.0110           0
      9358 MEMB     84       POPC     H4X      HAL2     0.900000E-01   1.00800           0
      9359 MEMB     84       POPC     H4Y      HAL2     0.900000E-01   1.00800           0
      9360 MEMB     84       POPC     C35      CTL2    -0.180000       12.0110           0
      9361 MEMB     84       POPC     H5X      HAL2     0.900000E-01   1.00800           0
      9362 MEMB     84       POPC     H5Y      HAL2     0.900000E-01   1.00800           0
      9363 MEMB     84       POPC     C36      CTL2    -0.180000       12.0110           0
      9364 MEMB     84       POPC     H6X      HAL2     0.900000E-01   1.00800           0
      9365 MEMB     84       POPC     H6Y      HAL2     0.900000E-01   1.00800           0
      9366 MEMB     84       POPC     C37      CTL2    -0.180000       12.0110           0
      9367 MEMB     84       POPC     H7X      HAL2     0.900000E-01   1.00800           0
      9368 MEMB     84       POPC     H7Y      HAL2     0.900000E-01   1.00800           0
      9369 MEMB     84       POPC     C38      CTL2    -0.180000       12.0110           0
      9370 MEMB     84       POPC     H8X      HAL2     0.900000E-01   1.00800           0
      9371 MEMB     84       POPC     H8Y      HAL2     0.900000E-01   1.00800           0
      9372 MEMB     84       POPC     C39      CTL2    -0.180000       12.0110           0
      9373 MEMB     84       POPC     H9X      HAL2     0.900000E-01   1.00800           0
      9374 MEMB     84       POPC     H9Y      HAL2     0.900000E-01   1.00800           0
      9375 MEMB     84       POPC     C310     CTL2    -0.180000       12.0110           0
      9376 MEMB     84       POPC     H10X     HAL2     0.900000E-01   1.00800           0
      9377 MEMB     84       POPC     H10Y     HAL2     0.900000E-01   1.00800           0
      9378 MEMB     84       POPC     C311     CTL2    -0.180000       12.0110           0
      9379 MEMB     84       POPC     H11X     HAL2     0.900000E-01   1.00800           0
      9380 MEMB     84       POPC     H11Y     HAL2     0.900000E-01   1.00800           0
      9381 MEMB     84       POPC     C312     CTL2    -0.180000       12.0110           0
      9382 MEMB     84       POPC     H12X     HAL2     0.900000E-01   1.00800           0
      9383 MEMB     84       POPC     H12Y     HAL2     0.900000E-01   1.00800           0
      9384 MEMB     84       POPC     C313     CTL2    -0.180000       12.0110           0
      9385 MEMB     84       POPC     H13X     HAL2     0.900000E-01   1.00800           0
      9386 MEMB     84       POPC     H13Y     HAL2     0.900000E-01   1.00800           0
      9387 MEMB     84       POPC     C314     CTL2    -0.180000       12.0110           0
      9388 MEMB     84       POPC     H14X     HAL2     0.900000E-01   1.00800           0
      9389 MEMB     84       POPC     H14Y     HAL2     0.900000E-01   1.00800           0
      9390 MEMB     84       POPC     C315     CTL2    -0.180000       12.0110           0
      9391 MEMB     84       POPC     H15X     HAL2     0.900000E-01   1.00800           0
      9392 MEMB     84       POPC     H15Y     HAL2     0.900000E-01   1.00800           0
      9393 MEMB     84       POPC     C316     CTL3    -0.270000       12.0110           0
      9394 MEMB     84       POPC     H16X     HAL3     0.900000E-01   1.00800           0
      9395 MEMB     84       POPC     H16Y     HAL3     0.900000E-01   1.00800           0
      9396 MEMB     84       POPC     H16Z     HAL3     0.900000E-01   1.00800           0
      9397 MEMB     85       POPC     N        NTL     -0.600000       14.0070           0
      9398 MEMB     85       POPC     C12      CTL2    -0.100000       12.0110           0
      9399 MEMB     85       POPC     H12A     HL       0.250000       1.00800           0
      9400 MEMB     85       POPC     H12B     HL       0.250000       1.00800           0
      9401 MEMB     85       POPC     C13      CTL5    -0.350000       12.0110           0
      9402 MEMB     85       POPC     H13A     HL       0.250000       1.00800           0
      9403 MEMB     85       POPC     H13B     HL       0.250000       1.00800           0
      9404 MEMB     85       POPC     H13C     HL       0.250000       1.00800           0
      9405 MEMB     85       POPC     C14      CTL5    -0.350000       12.0110           0
      9406 MEMB     85       POPC     H14A     HL       0.250000       1.00800           0
      9407 MEMB     85       POPC     H14B     HL       0.250000       1.00800           0
      9408 MEMB     85       POPC     H14C     HL       0.250000       1.00800           0
      9409 MEMB     85       POPC     C15      CTL5    -0.350000       12.0110           0
      9410 MEMB     85       POPC     H15A     HL       0.250000       1.00800           0
      9411 MEMB     85       POPC     H15B     HL       0.250000       1.00800           0
      9412 MEMB     85       POPC     H15C     HL       0.250000       1.00800           0
      9413 MEMB     85       POPC     C11      CTL2    -0.800000E-01   12.0110           0
      9414 MEMB     85       POPC     H11A     HAL2     0.900000E-01   1.00800           0
      9415 MEMB     85       POPC     H11B     HAL2     0.900000E-01   1.00800           0
      9416 MEMB     85       POPC     P        PL        1.50000       30.9740           0
      9417 MEMB     85       POPC     O13      O2L     -0.780000       15.9994           0
      9418 MEMB     85       POPC     O14      O2L     -0.780000       15.9994           0
      9419 MEMB     85       POPC     O12      OSLP    -0.570000       15.9994           0
      9420 MEMB     85       POPC     O11      OSLP    -0.570000       15.9994           0
      9421 MEMB     85       POPC     C1       CTL2    -0.800000E-01   12.0110           0
      9422 MEMB     85       POPC     HA       HAL2     0.900000E-01   1.00800           0
      9423 MEMB     85       POPC     HB       HAL2     0.900000E-01   1.00800           0
      9424 MEMB     85       POPC     C2       CTL1     0.170000       12.0110           0
      9425 MEMB     85       POPC     HS       HAL1     0.900000E-01   1.00800           0
      9426 MEMB     85       POPC     O21      OSL     -0.490000       15.9994           0
      9427 MEMB     85       POPC     C21      CL       0.900000       12.0110           0
      9428 MEMB     85       POPC     O22      OBL     -0.630000       15.9994           0
      9429 MEMB     85       POPC     C22      CTL2    -0.220000       12.0110           0
      9430 MEMB     85       POPC     H2R      HAL2     0.900000E-01   1.00800           0
      9431 MEMB     85       POPC     H2S      HAL2     0.900000E-01   1.00800           0
      9432 MEMB     85       POPC     C3       CTL2     0.800000E-01   12.0110           0
      9433 MEMB     85       POPC     HX       HAL2     0.900000E-01   1.00800           0
      9434 MEMB     85       POPC     HY       HAL2     0.900000E-01   1.00800           0
      9435 MEMB     85       POPC     O31      OSL     -0.490000       15.9994           0
      9436 MEMB     85       POPC     C31      CL       0.900000       12.0110           0
      9437 MEMB     85       POPC     O32      OBL     -0.630000       15.9994           0
      9438 MEMB     85       POPC     C32      CTL2    -0.220000       12.0110           0
      9439 MEMB     85       POPC     H2X      HAL2     0.900000E-01   1.00800           0
      9440 MEMB     85       POPC     H2Y      HAL2     0.900000E-01   1.00800           0
      9441 MEMB     85       POPC     C23      CTL2    -0.180000       12.0110           0
      9442 MEMB     85       POPC     H3R      HAL2     0.900000E-01   1.00800           0
      9443 MEMB     85       POPC     H3S      HAL2     0.900000E-01   1.00800           0
      9444 MEMB     85       POPC     C24      CTL2    -0.180000       12.0110           0
      9445 MEMB     85       POPC     H4R      HAL2     0.900000E-01   1.00800           0
      9446 MEMB     85       POPC     H4S      HAL2     0.900000E-01   1.00800           0
      9447 MEMB     85       POPC     C25      CTL2    -0.180000       12.0110           0
      9448 MEMB     85       POPC     H5R      HAL2     0.900000E-01   1.00800           0
      9449 MEMB     85       POPC     H5S      HAL2     0.900000E-01   1.00800           0
      9450 MEMB     85       POPC     C26      CTL2    -0.180000       12.0110           0
      9451 MEMB     85       POPC     H6R      HAL2     0.900000E-01   1.00800           0
      9452 MEMB     85       POPC     H6S      HAL2     0.900000E-01   1.00800           0
      9453 MEMB     85       POPC     C27      CTL2    -0.180000       12.0110           0
      9454 MEMB     85       POPC     H7R      HAL2     0.900000E-01   1.00800           0
      9455 MEMB     85       POPC     H7S      HAL2     0.900000E-01   1.00800           0
      9456 MEMB     85       POPC     C28      CTL2    -0.180000       12.0110           0
      9457 MEMB     85       POPC     H8R      HAL2     0.900000E-01   1.00800           0
      9458 MEMB     85       POPC     H8S      HAL2     0.900000E-01   1.00800           0
      9459 MEMB     85       POPC     C29      CEL1    -0.150000       12.0110           0
      9460 MEMB     85       POPC     H91      HEL1     0.150000       1.00800           0
      9461 MEMB     85       POPC     C210     CEL1    -0.150000       12.0110           0
      9462 MEMB     85       POPC     H101     HEL1     0.150000       1.00800           0
      9463 MEMB     85       POPC     C211     CTL2    -0.180000       12.0110           0
      9464 MEMB     85       POPC     H11R     HAL2     0.900000E-01   1.00800           0
      9465 MEMB     85       POPC     H11S     HAL2     0.900000E-01   1.00800           0
      9466 MEMB     85       POPC     C212     CTL2    -0.180000       12.0110           0
      9467 MEMB     85       POPC     H12R     HAL2     0.900000E-01   1.00800           0
      9468 MEMB     85       POPC     H12S     HAL2     0.900000E-01   1.00800           0
      9469 MEMB     85       POPC     C213     CTL2    -0.180000       12.0110           0
      9470 MEMB     85       POPC     H13R     HAL2     0.900000E-01   1.00800           0
      9471 MEMB     85       POPC     H13S     HAL2     0.900000E-01   1.00800           0
      9472 MEMB     85       POPC     C214     CTL2    -0.180000       12.0110           0
      9473 MEMB     85       POPC     H14R     HAL2     0.900000E-01   1.00800           0
      9474 MEMB     85       POPC     H14S     HAL2     0.900000E-01   1.00800           0
      9475 MEMB     85       POPC     C215     CTL2    -0.180000       12.0110           0
      9476 MEMB     85       POPC     H15R     HAL2     0.900000E-01   1.00800           0
      9477 MEMB     85       POPC     H15S     HAL2     0.900000E-01   1.00800           0
      9478 MEMB     85       POPC     C216     CTL2    -0.180000       12.0110           0
      9479 MEMB     85       POPC     H16R     HAL2     0.900000E-01   1.00800           0
      9480 MEMB     85       POPC     H16S     HAL2     0.900000E-01   1.00800           0
      9481 MEMB     85       POPC     C217     CTL2    -0.180000       12.0110           0
      9482 MEMB     85       POPC     H17R     HAL2     0.900000E-01   1.00800           0
      9483 MEMB     85       POPC     H17S     HAL2     0.900000E-01   1.00800           0
      9484 MEMB     85       POPC     C218     CTL3    -0.270000       12.0110           0
      9485 MEMB     85       POPC     H18R     HAL3     0.900000E-01   1.00800           0
      9486 MEMB     85       POPC     H18S     HAL3     0.900000E-01   1.00800           0
      9487 MEMB     85       POPC     H18T     HAL3     0.900000E-01   1.00800           0
      9488 MEMB     85       POPC     C33      CTL2    -0.180000       12.0110           0
      9489 MEMB     85       POPC     H3X      HAL2     0.900000E-01   1.00800           0
      9490 MEMB     85       POPC     H3Y      HAL2     0.900000E-01   1.00800           0
      9491 MEMB     85       POPC     C34      CTL2    -0.180000       12.0110           0
      9492 MEMB     85       POPC     H4X      HAL2     0.900000E-01   1.00800           0
      9493 MEMB     85       POPC     H4Y      HAL2     0.900000E-01   1.00800           0
      9494 MEMB     85       POPC     C35      CTL2    -0.180000       12.0110           0
      9495 MEMB     85       POPC     H5X      HAL2     0.900000E-01   1.00800           0
      9496 MEMB     85       POPC     H5Y      HAL2     0.900000E-01   1.00800           0
      9497 MEMB     85       POPC     C36      CTL2    -0.180000       12.0110           0
      9498 MEMB     85       POPC     H6X      HAL2     0.900000E-01   1.00800           0
      9499 MEMB     85       POPC     H6Y      HAL2     0.900000E-01   1.00800           0
      9500 MEMB     85       POPC     C37      CTL2    -0.180000       12.0110           0
      9501 MEMB     85       POPC     H7X      HAL2     0.900000E-01   1.00800           0
      9502 MEMB     85       POPC     H7Y      HAL2     0.900000E-01   1.00800           0
      9503 MEMB     85       POPC     C38      CTL2    -0.180000       12.0110           0
      9504 MEMB     85       POPC     H8X      HAL2     0.900000E-01   1.00800           0
      9505 MEMB     85       POPC     H8Y      HAL2     0.900000E-01   1.00800           0
      9506 MEMB     85       POPC     C39      CTL2    -0.180000       12.0110           0
      9507 MEMB     85       POPC     H9X      HAL2     0.900000E-01   1.00800           0
      9508 MEMB     85       POPC     H9Y      HAL2     0.900000E-01   1.00800           0
      9509 MEMB     85       POPC     C310     CTL2    -0.180000       12.0110           0
      9510 MEMB     85       POPC     H10X     HAL2     0.900000E-01   1.00800           0
      9511 MEMB     85       POPC     H10Y     HAL2     0.900000E-01   1.00800           0
      9512 MEMB     85       POPC     C311     CTL2    -0.180000       12.0110           0
      9513 MEMB     85       POPC     H11X     HAL2     0.900000E-01   1.00800           0
      9514 MEMB     85       POPC     H11Y     HAL2     0.900000E-01   1.00800           0
      9515 MEMB     85       POPC     C312     CTL2    -0.180000       12.0110           0
      9516 MEMB     85       POPC     H12X     HAL2     0.900000E-01   1.00800           0
      9517 MEMB     85       POPC     H12Y     HAL2     0.900000E-01   1.00800           0
      9518 MEMB     85       POPC     C313     CTL2    -0.180000       12.0110           0
      9519 MEMB     85       POPC     H13X     HAL2     0.900000E-01   1.00800           0
      9520 MEMB     85       POPC     H13Y     HAL2     0.900000E-01   1.00800           0
      9521 MEMB     85       POPC     C314     CTL2    -0.180000       12.0110           0
      9522 MEMB     85       POPC     H14X     HAL2     0.900000E-01   1.00800           0
      9523 MEMB     85       POPC     H14Y     HAL2     0.900000E-01   1.00800           0
      9524 MEMB     85       POPC     C315     CTL2    -0.180000       12.0110           0
      9525 MEMB     85       POPC     H15X     HAL2     0.900000E-01   1.00800           0
      9526 MEMB     85       POPC     H15Y     HAL2     0.900000E-01   1.00800           0
      9527 MEMB     85       POPC     C316     CTL3    -0.270000       12.0110           0
      9528 MEMB     85       POPC     H16X     HAL3     0.900000E-01   1.00800           0
      9529 MEMB     85       POPC     H16Y     HAL3     0.900000E-01   1.00800           0
      9530 MEMB     85       POPC     H16Z     HAL3     0.900000E-01   1.00800           0
      9531 MEMB     86       POPC     N        NTL     -0.600000       14.0070           0
      9532 MEMB     86       POPC     C12      CTL2    -0.100000       12.0110           0
      9533 MEMB     86       POPC     H12A     HL       0.250000       1.00800           0
      9534 MEMB     86       POPC     H12B     HL       0.250000       1.00800           0
      9535 MEMB     86       POPC     C13      CTL5    -0.350000       12.0110           0
      9536 MEMB     86       POPC     H13A     HL       0.250000       1.00800           0
      9537 MEMB     86       POPC     H13B     HL       0.250000       1.00800           0
      9538 MEMB     86       POPC     H13C     HL       0.250000       1.00800           0
      9539 MEMB     86       POPC     C14      CTL5    -0.350000       12.0110           0
      9540 MEMB     86       POPC     H14A     HL       0.250000       1.00800           0
      9541 MEMB     86       POPC     H14B     HL       0.250000       1.00800           0
      9542 MEMB     86       POPC     H14C     HL       0.250000       1.00800           0
      9543 MEMB     86       POPC     C15      CTL5    -0.350000       12.0110           0
      9544 MEMB     86       POPC     H15A     HL       0.250000       1.00800           0
      9545 MEMB     86       POPC     H15B     HL       0.250000       1.00800           0
      9546 MEMB     86       POPC     H15C     HL       0.250000       1.00800           0
      9547 MEMB     86       POPC     C11      CTL2    -0.800000E-01   12.0110           0
      9548 MEMB     86       POPC     H11A     HAL2     0.900000E-01   1.00800           0
      9549 MEMB     86       POPC     H11B     HAL2     0.900000E-01   1.00800           0
      9550 MEMB     86       POPC     P        PL        1.50000       30.9740           0
      9551 MEMB     86       POPC     O13      O2L     -0.780000       15.9994           0
      9552 MEMB     86       POPC     O14      O2L     -0.780000       15.9994           0
      9553 MEMB     86       POPC     O12      OSLP    -0.570000       15.9994           0
      9554 MEMB     86       POPC     O11      OSLP    -0.570000       15.9994           0
      9555 MEMB     86       POPC     C1       CTL2    -0.800000E-01   12.0110           0
      9556 MEMB     86       POPC     HA       HAL2     0.900000E-01   1.00800           0
      9557 MEMB     86       POPC     HB       HAL2     0.900000E-01   1.00800           0
      9558 MEMB     86       POPC     C2       CTL1     0.170000       12.0110           0
      9559 MEMB     86       POPC     HS       HAL1     0.900000E-01   1.00800           0
      9560 MEMB     86       POPC     O21      OSL     -0.490000       15.9994           0
      9561 MEMB     86       POPC     C21      CL       0.900000       12.0110           0
      9562 MEMB     86       POPC     O22      OBL     -0.630000       15.9994           0
      9563 MEMB     86       POPC     C22      CTL2    -0.220000       12.0110           0
      9564 MEMB     86       POPC     H2R      HAL2     0.900000E-01   1.00800           0
      9565 MEMB     86       POPC     H2S      HAL2     0.900000E-01   1.00800           0
      9566 MEMB     86       POPC     C3       CTL2     0.800000E-01   12.0110           0
      9567 MEMB     86       POPC     HX       HAL2     0.900000E-01   1.00800           0
      9568 MEMB     86       POPC     HY       HAL2     0.900000E-01   1.00800           0
      9569 MEMB     86       POPC     O31      OSL     -0.490000       15.9994           0
      9570 MEMB     86       POPC     C31      CL       0.900000       12.0110           0
      9571 MEMB     86       POPC     O32      OBL     -0.630000       15.9994           0
      9572 MEMB     86       POPC     C32      CTL2    -0.220000       12.0110           0
      9573 MEMB     86       POPC     H2X      HAL2     0.900000E-01   1.00800           0
      9574 MEMB     86       POPC     H2Y      HAL2     0.900000E-01   1.00800           0
      9575 MEMB     86       POPC     C23      CTL2    -0.180000       12.0110           0
      9576 MEMB     86       POPC     H3R      HAL2     0.900000E-01   1.00800           0
      9577 MEMB     86       POPC     H3S      HAL2     0.900000E-01   1.00800           0
      9578 MEMB     86       POPC     C24      CTL2    -0.180000       12.0110           0
      9579 MEMB     86       POPC     H4R      HAL2     0.900000E-01   1.00800           0
      9580 MEMB     86       POPC     H4S      HAL2     0.900000E-01   1.00800           0
      9581 MEMB     86       POPC     C25      CTL2    -0.180000       12.0110           0
      9582 MEMB     86       POPC     H5R      HAL2     0.900000E-01   1.00800           0
      9583 MEMB     86       POPC     H5S      HAL2     0.900000E-01   1.00800           0
      9584 MEMB     86       POPC     C26      CTL2    -0.180000       12.0110           0
      9585 MEMB     86       POPC     H6R      HAL2     0.900000E-01   1.00800           0
      9586 MEMB     86       POPC     H6S      HAL2     0.900000E-01   1.00800           0
      9587 MEMB     86       POPC     C27      CTL2    -0.180000       12.0110           0
      9588 MEMB     86       POPC     H7R      HAL2     0.900000E-01   1.00800           0
      9589 MEMB     86       POPC     H7S      HAL2     0.900000E-01   1.00800           0
      9590 MEMB     86       POPC     C28      CTL2    -0.180000       12.0110           0
      9591 MEMB     86       POPC     H8R      HAL2     0.900000E-01   1.00800           0
      9592 MEMB     86       POPC     H8S      HAL2     0.900000E-01   1.00800           0
      9593 MEMB     86       POPC     C29      CEL1    -0.150000       12.0110           0
      9594 MEMB     86       POPC     H91      HEL1     0.150000       1.00800           0
      9595 MEMB     86       POPC     C210     CEL1    -0.150000       12.0110           0
      9596 MEMB     86       POPC     H101     HEL1     0.150000       1.00800           0
      9597 MEMB     86       POPC     C211     CTL2    -0.180000       12.0110           0
      9598 MEMB     86       POPC     H11R     HAL2     0.900000E-01   1.00800           0
      9599 MEMB     86       POPC     H11S     HAL2     0.900000E-01   1.00800           0
      9600 MEMB     86       POPC     C212     CTL2    -0.180000       12.0110           0
      9601 MEMB     86       POPC     H12R     HAL2     0.900000E-01   1.00800           0
      9602 MEMB     86       POPC     H12S     HAL2     0.900000E-01   1.00800           0
      9603 MEMB     86       POPC     C213     CTL2    -0.180000       12.0110           0
      9604 MEMB     86       POPC     H13R     HAL2     0.900000E-01   1.00800           0
      9605 MEMB     86       POPC     H13S     HAL2     0.900000E-01   1.00800           0
      9606 MEMB     86       POPC     C214     CTL2    -0.180000       12.0110           0
      9607 MEMB     86       POPC     H14R     HAL2     0.900000E-01   1.00800           0
      9608 MEMB     86       POPC     H14S     HAL2     0.900000E-01   1.00800           0
      9609 MEMB     86       POPC     C215     CTL2    -0.180000       12.0110           0
      9610 MEMB     86       POPC     H15R     HAL2     0.900000E-01   1.00800           0
      9611 MEMB     86       POPC     H15S     HAL2     0.900000E-01   1.00800           0
      9612 MEMB     86       POPC     C216     CTL2    -0.180000       12.0110           0
      9613 MEMB     86       POPC     H16R     HAL2     0.900000E-01   1.00800           0
      9614 MEMB     86       POPC     H16S     HAL2     0.900000E-01   1.00800           0
      9615 MEMB     86       POPC     C217     CTL2    -0.180000       12.0110           0
      9616 MEMB     86       POPC     H17R     HAL2     0.900000E-01   1.00800           0
      9617 MEMB     86       POPC     H17S     HAL2     0.900000E-01   1.00800           0
      9618 MEMB     86       POPC     C218     CTL3    -0.270000       12.0110           0
      9619 MEMB     86       POPC     H18R     HAL3     0.900000E-01   1.00800           0
      9620 MEMB     86       POPC     H18S     HAL3     0.900000E-01   1.00800           0
      9621 MEMB     86       POPC     H18T     HAL3     0.900000E-01   1.00800           0
      9622 MEMB     86       POPC     C33      CTL2    -0.180000       12.0110           0
      9623 MEMB     86       POPC     H3X      HAL2     0.900000E-01   1.00800           0
      9624 MEMB     86       POPC     H3Y      HAL2     0.900000E-01   1.00800           0
      9625 MEMB     86       POPC     C34      CTL2    -0.180000       12.0110           0
      9626 MEMB     86       POPC     H4X      HAL2     0.900000E-01   1.00800           0
      9627 MEMB     86       POPC     H4Y      HAL2     0.900000E-01   1.00800           0
      9628 MEMB     86       POPC     C35      CTL2    -0.180000       12.0110           0
      9629 MEMB     86       POPC     H5X      HAL2     0.900000E-01   1.00800           0
      9630 MEMB     86       POPC     H5Y      HAL2     0.900000E-01   1.00800           0
      9631 MEMB     86       POPC     C36      CTL2    -0.180000       12.0110           0
      9632 MEMB     86       POPC     H6X      HAL2     0.900000E-01   1.00800           0
      9633 MEMB     86       POPC     H6Y      HAL2     0.900000E-01   1.00800           0
      9634 MEMB     86       POPC     C37      CTL2    -0.180000       12.0110           0
      9635 MEMB     86       POPC     H7X      HAL2     0.900000E-01   1.00800           0
      9636 MEMB     86       POPC     H7Y      HAL2     0.900000E-01   1.00800           0
      9637 MEMB     86       POPC     C38      CTL2    -0.180000       12.0110           0
      9638 MEMB     86       POPC     H8X      HAL2     0.900000E-01   1.00800           0
      9639 MEMB     86       POPC     H8Y      HAL2     0.900000E-01   1.00800           0
      9640 MEMB     86       POPC     C39      CTL2    -0.180000       12.0110           0
      9641 MEMB     86       POPC     H9X      HAL2     0.900000E-01   1.00800           0
      9642 MEMB     86       POPC     H9Y      HAL2     0.900000E-01   1.00800           0
      9643 MEMB     86       POPC     C310     CTL2    -0.180000       12.0110           0
      9644 MEMB     86       POPC     H10X     HAL2     0.900000E-01   1.00800           0
      9645 MEMB     86       POPC     H10Y     HAL2     0.900000E-01   1.00800           0
      9646 MEMB     86       POPC     C311     CTL2    -0.180000       12.0110           0
      9647 MEMB     86       POPC     H11X     HAL2     0.900000E-01   1.00800           0
      9648 MEMB     86       POPC     H11Y     HAL2     0.900000E-01   1.00800           0
      9649 MEMB     86       POPC     C312     CTL2    -0.180000       12.0110           0
      9650 MEMB     86       POPC     H12X     HAL2     0.900000E-01   1.00800           0
      9651 MEMB     86       POPC     H12Y     HAL2     0.900000E-01   1.00800           0
      9652 MEMB     86       POPC     C313     CTL2    -0.180000       12.0110           0
      9653 MEMB     86       POPC     H13X     HAL2     0.900000E-01   1.00800           0
      9654 MEMB     86       POPC     H13Y     HAL2     0.900000E-01   1.00800           0
      9655 MEMB     86       POPC     C314     CTL2    -0.180000       12.0110           0
      9656 MEMB     86       POPC     H14X     HAL2     0.900000E-01   1.00800           0
      9657 MEMB     86       POPC     H14Y     HAL2     0.900000E-01   1.00800           0
      9658 MEMB     86       POPC     C315     CTL2    -0.180000       12.0110           0
      9659 MEMB     86       POPC     H15X     HAL2     0.900000E-01   1.00800           0
      9660 MEMB     86       POPC     H15Y     HAL2     0.900000E-01   1.00800           0
      9661 MEMB     86       POPC     C316     CTL3    -0.270000       12.0110           0
      9662 MEMB     86       POPC     H16X     HAL3     0.900000E-01   1.00800           0
      9663 MEMB     86       POPC     H16Y     HAL3     0.900000E-01   1.00800           0
      9664 MEMB     86       POPC     H16Z     HAL3     0.900000E-01   1.00800           0
      9665 MEMB     87       POPC     N        NTL     -0.600000       14.0070           0
      9666 MEMB     87       POPC     C12      CTL2    -0.100000       12.0110           0
      9667 MEMB     87       POPC     H12A     HL       0.250000       1.00800           0
      9668 MEMB     87       POPC     H12B     HL       0.250000       1.00800           0
      9669 MEMB     87       POPC     C13      CTL5    -0.350000       12.0110           0
      9670 MEMB     87       POPC     H13A     HL       0.250000       1.00800           0
      9671 MEMB     87       POPC     H13B     HL       0.250000       1.00800           0
      9672 MEMB     87       POPC     H13C     HL       0.250000       1.00800           0
      9673 MEMB     87       POPC     C14      CTL5    -0.350000       12.0110           0
      9674 MEMB     87       POPC     H14A     HL       0.250000       1.00800           0
      9675 MEMB     87       POPC     H14B     HL       0.250000       1.00800           0
      9676 MEMB     87       POPC     H14C     HL       0.250000       1.00800           0
      9677 MEMB     87       POPC     C15      CTL5    -0.350000       12.0110           0
      9678 MEMB     87       POPC     H15A     HL       0.250000       1.00800           0
      9679 MEMB     87       POPC     H15B     HL       0.250000       1.00800           0
      9680 MEMB     87       POPC     H15C     HL       0.250000       1.00800           0
      9681 MEMB     87       POPC     C11      CTL2    -0.800000E-01   12.0110           0
      9682 MEMB     87       POPC     H11A     HAL2     0.900000E-01   1.00800           0
      9683 MEMB     87       POPC     H11B     HAL2     0.900000E-01   1.00800           0
      9684 MEMB     87       POPC     P        PL        1.50000       30.9740           0
      9685 MEMB     87       POPC     O13      O2L     -0.780000       15.9994           0
      9686 MEMB     87       POPC     O14      O2L     -0.780000       15.9994           0
      9687 MEMB     87       POPC     O12      OSLP    -0.570000       15.9994           0
      9688 MEMB     87       POPC     O11      OSLP    -0.570000       15.9994           0
      9689 MEMB     87       POPC     C1       CTL2    -0.800000E-01   12.0110           0
      9690 MEMB     87       POPC     HA       HAL2     0.900000E-01   1.00800           0
      9691 MEMB     87       POPC     HB       HAL2     0.900000E-01   1.00800           0
      9692 MEMB     87       POPC     C2       CTL1     0.170000       12.0110           0
      9693 MEMB     87       POPC     HS       HAL1     0.900000E-01   1.00800           0
      9694 MEMB     87       POPC     O21      OSL     -0.490000       15.9994           0
      9695 MEMB     87       POPC     C21      CL       0.900000       12.0110           0
      9696 MEMB     87       POPC     O22      OBL     -0.630000       15.9994           0
      9697 MEMB     87       POPC     C22      CTL2    -0.220000       12.0110           0
      9698 MEMB     87       POPC     H2R      HAL2     0.900000E-01   1.00800           0
      9699 MEMB     87       POPC     H2S      HAL2     0.900000E-01   1.00800           0
      9700 MEMB     87       POPC     C3       CTL2     0.800000E-01   12.0110           0
      9701 MEMB     87       POPC     HX       HAL2     0.900000E-01   1.00800           0
      9702 MEMB     87       POPC     HY       HAL2     0.900000E-01   1.00800           0
      9703 MEMB     87       POPC     O31      OSL     -0.490000       15.9994           0
      9704 MEMB     87       POPC     C31      CL       0.900000       12.0110           0
      9705 MEMB     87       POPC     O32      OBL     -0.630000       15.9994           0
      9706 MEMB     87       POPC     C32      CTL2    -0.220000       12.0110           0
      9707 MEMB     87       POPC     H2X      HAL2     0.900000E-01   1.00800           0
      9708 MEMB     87       POPC     H2Y      HAL2     0.900000E-01   1.00800           0
      9709 MEMB     87       POPC     C23      CTL2    -0.180000       12.0110           0
      9710 MEMB     87       POPC     H3R      HAL2     0.900000E-01   1.00800           0
      9711 MEMB     87       POPC     H3S      HAL2     0.900000E-01   1.00800           0
      9712 MEMB     87       POPC     C24      CTL2    -0.180000       12.0110           0
      9713 MEMB     87       POPC     H4R      HAL2     0.900000E-01   1.00800           0
      9714 MEMB     87       POPC     H4S      HAL2     0.900000E-01   1.00800           0
      9715 MEMB     87       POPC     C25      CTL2    -0.180000       12.0110           0
      9716 MEMB     87       POPC     H5R      HAL2     0.900000E-01   1.00800           0
      9717 MEMB     87       POPC     H5S      HAL2     0.900000E-01   1.00800           0
      9718 MEMB     87       POPC     C26      CTL2    -0.180000       12.0110           0
      9719 MEMB     87       POPC     H6R      HAL2     0.900000E-01   1.00800           0
      9720 MEMB     87       POPC     H6S      HAL2     0.900000E-01   1.00800           0
      9721 MEMB     87       POPC     C27      CTL2    -0.180000       12.0110           0
      9722 MEMB     87       POPC     H7R      HAL2     0.900000E-01   1.00800           0
      9723 MEMB     87       POPC     H7S      HAL2     0.900000E-01   1.00800           0
      9724 MEMB     87       POPC     C28      CTL2    -0.180000       12.0110           0
      9725 MEMB     87       POPC     H8R      HAL2     0.900000E-01   1.00800           0
      9726 MEMB     87       POPC     H8S      HAL2     0.900000E-01   1.00800           0
      9727 MEMB     87       POPC     C29      CEL1    -0.150000       12.0110           0
      9728 MEMB     87       POPC     H91      HEL1     0.150000       1.00800           0
      9729 MEMB     87       POPC     C210     CEL1    -0.150000       12.0110           0
      9730 MEMB     87       POPC     H101     HEL1     0.150000       1.00800           0
      9731 MEMB     87       POPC     C211     CTL2    -0.180000       12.0110           0
      9732 MEMB     87       POPC     H11R     HAL2     0.900000E-01   1.00800           0
      9733 MEMB     87       POPC     H11S     HAL2     0.900000E-01   1.00800           0
      9734 MEMB     87       POPC     C212     CTL2    -0.180000       12.0110           0
      9735 MEMB     87       POPC     H12R     HAL2     0.900000E-01   1.00800           0
      9736 MEMB     87       POPC     H12S     HAL2     0.900000E-01   1.00800           0
      9737 MEMB     87       POPC     C213     CTL2    -0.180000       12.0110           0
      9738 MEMB     87       POPC     H13R     HAL2     0.900000E-01   1.00800           0
      9739 MEMB     87       POPC     H13S     HAL2     0.900000E-01   1.00800           0
      9740 MEMB     87       POPC     C214     CTL2    -0.180000       12.0110           0
      9741 MEMB     87       POPC     H14R     HAL2     0.900000E-01   1.00800           0
      9742 MEMB     87       POPC     H14S     HAL2     0.900000E-01   1.00800           0
      9743 MEMB     87       POPC     C215     CTL2    -0.180000       12.0110           0
      9744 MEMB     87       POPC     H15R     HAL2     0.900000E-01   1.00800           0
      9745 MEMB     87       POPC     H15S     HAL2     0.900000E-01   1.00800           0
      9746 MEMB     87       POPC     C216     CTL2    -0.180000       12.0110           0
      9747 MEMB     87       POPC     H16R     HAL2     0.900000E-01   1.00800           0
      9748 MEMB     87       POPC     H16S     HAL2     0.900000E-01   1.00800           0
      9749 MEMB     87       POPC     C217     CTL2    -0.180000       12.0110           0
      9750 MEMB     87       POPC     H17R     HAL2     0.900000E-01   1.00800           0
      9751 MEMB     87       POPC     H17S     HAL2     0.900000E-01   1.00800           0
      9752 MEMB     87       POPC     C218     CTL3    -0.270000       12.0110           0
      9753 MEMB     87       POPC     H18R     HAL3     0.900000E-01   1.00800           0
      9754 MEMB     87       POPC     H18S     HAL3     0.900000E-01   1.00800           0
      9755 MEMB     87       POPC     H18T     HAL3     0.900000E-01   1.00800           0
      9756 MEMB     87       POPC     C33      CTL2    -0.180000       12.0110           0
      9757 MEMB     87       POPC     H3X      HAL2     0.900000E-01   1.00800           0
      9758 MEMB     87       POPC     H3Y      HAL2     0.900000E-01   1.00800           0
      9759 MEMB     87       POPC     C34      CTL2    -0.180000       12.0110           0
      9760 MEMB     87       POPC     H4X      HAL2     0.900000E-01   1.00800           0
      9761 MEMB     87       POPC     H4Y      HAL2     0.900000E-01   1.00800           0
      9762 MEMB     87       POPC     C35      CTL2    -0.180000       12.0110           0
      9763 MEMB     87       POPC     H5X      HAL2     0.900000E-01   1.00800           0
      9764 MEMB     87       POPC     H5Y      HAL2     0.900000E-01   1.00800           0
      9765 MEMB     87       POPC     C36      CTL2    -0.180000       12.0110           0
      9766 MEMB     87       POPC     H6X      HAL2     0.900000E-01   1.00800           0
      9767 MEMB     87       POPC     H6Y      HAL2     0.900000E-01   1.00800           0
      9768 MEMB     87       POPC     C37      CTL2    -0.180000       12.0110           0
      9769 MEMB     87       POPC     H7X      HAL2     0.900000E-01   1.00800           0
      9770 MEMB     87       POPC     H7Y      HAL2     0.900000E-01   1.00800           0
      9771 MEMB     87       POPC     C38      CTL2    -0.180000       12.0110           0
      9772 MEMB     87       POPC     H8X      HAL2     0.900000E-01   1.00800           0
      9773 MEMB     87       POPC     H8Y      HAL2     0.900000E-01   1.00800           0
      9774 MEMB     87       POPC     C39      CTL2    -0.180000       12.0110           0
      9775 MEMB     87       POPC     H9X      HAL2     0.900000E-01   1.00800           0
      9776 MEMB     87       POPC     H9Y      HAL2     0.900000E-01   1.00800           0
      9777 MEMB     87       POPC     C310     CTL2    -0.180000       12.0110           0
      9778 MEMB     87       POPC     H10X     HAL2     0.900000E-01   1.00800           0
      9779 MEMB     87       POPC     H10Y     HAL2     0.900000E-01   1.00800           0
      9780 MEMB     87       POPC     C311     CTL2    -0.180000       12.0110           0
      9781 MEMB     87       POPC     H11X     HAL2     0.900000E-01   1.00800           0
      9782 MEMB     87       POPC     H11Y     HAL2     0.900000E-01   1.00800           0
      9783 MEMB     87       POPC     C312     CTL2    -0.180000       12.0110           0
      9784 MEMB     87       POPC     H12X     HAL2     0.900000E-01   1.00800           0
      9785 MEMB     87       POPC     H12Y     HAL2     0.900000E-01   1.00800           0
      9786 MEMB     87       POPC     C313     CTL2    -0.180000       12.0110           0
      9787 MEMB     87       POPC     H13X     HAL2     0.900000E-01   1.00800           0
      9788 MEMB     87       POPC     H13Y     HAL2     0.900000E-01   1.00800           0
      9789 MEMB     87       POPC     C314     CTL2    -0.180000       12.0110           0
      9790 MEMB     87       POPC     H14X     HAL2     0.900000E-01   1.00800           0
      9791 MEMB     87       POPC     H14Y     HAL2     0.900000E-01   1.00800           0
      9792 MEMB     87       POPC     C315     CTL2    -0.180000       12.0110           0
      9793 MEMB     87       POPC     H15X     HAL2     0.900000E-01   1.00800           0
      9794 MEMB     87       POPC     H15Y     HAL2     0.900000E-01   1.00800           0
      9795 MEMB     87       POPC     C316     CTL3    -0.270000       12.0110           0
      9796 MEMB     87       POPC     H16X     HAL3     0.900000E-01   1.00800           0
      9797 MEMB     87       POPC     H16Y     HAL3     0.900000E-01   1.00800           0
      9798 MEMB     87       POPC     H16Z     HAL3     0.900000E-01   1.00800           0
      9799 MEMB     88       POPC     N        NTL     -0.600000       14.0070           0
      9800 MEMB     88       POPC     C12      CTL2    -0.100000       12.0110           0
      9801 MEMB     88       POPC     H12A     HL       0.250000       1.00800           0
      9802 MEMB     88       POPC     H12B     HL       0.250000       1.00800           0
      9803 MEMB     88       POPC     C13      CTL5    -0.350000       12.0110           0
      9804 MEMB     88       POPC     H13A     HL       0.250000       1.00800           0
      9805 MEMB     88       POPC     H13B     HL       0.250000       1.00800           0
      9806 MEMB     88       POPC     H13C     HL       0.250000       1.00800           0
      9807 MEMB     88       POPC     C14      CTL5    -0.350000       12.0110           0
      9808 MEMB     88       POPC     H14A     HL       0.250000       1.00800           0
      9809 MEMB     88       POPC     H14B     HL       0.250000       1.00800           0
      9810 MEMB     88       POPC     H14C     HL       0.250000       1.00800           0
      9811 MEMB     88       POPC     C15      CTL5    -0.350000       12.0110           0
      9812 MEMB     88       POPC     H15A     HL       0.250000       1.00800           0
      9813 MEMB     88       POPC     H15B     HL       0.250000       1.00800           0
      9814 MEMB     88       POPC     H15C     HL       0.250000       1.00800           0
      9815 MEMB     88       POPC     C11      CTL2    -0.800000E-01   12.0110           0
      9816 MEMB     88       POPC     H11A     HAL2     0.900000E-01   1.00800           0
      9817 MEMB     88       POPC     H11B     HAL2     0.900000E-01   1.00800           0
      9818 MEMB     88       POPC     P        PL        1.50000       30.9740           0
      9819 MEMB     88       POPC     O13      O2L     -0.780000       15.9994           0
      9820 MEMB     88       POPC     O14      O2L     -0.780000       15.9994           0
      9821 MEMB     88       POPC     O12      OSLP    -0.570000       15.9994           0
      9822 MEMB     88       POPC     O11      OSLP    -0.570000       15.9994           0
      9823 MEMB     88       POPC     C1       CTL2    -0.800000E-01   12.0110           0
      9824 MEMB     88       POPC     HA       HAL2     0.900000E-01   1.00800           0
      9825 MEMB     88       POPC     HB       HAL2     0.900000E-01   1.00800           0
      9826 MEMB     88       POPC     C2       CTL1     0.170000       12.0110           0
      9827 MEMB     88       POPC     HS       HAL1     0.900000E-01   1.00800           0
      9828 MEMB     88       POPC     O21      OSL     -0.490000       15.9994           0
      9829 MEMB     88       POPC     C21      CL       0.900000       12.0110           0
      9830 MEMB     88       POPC     O22      OBL     -0.630000       15.9994           0
      9831 MEMB     88       POPC     C22      CTL2    -0.220000       12.0110           0
      9832 MEMB     88       POPC     H2R      HAL2     0.900000E-01   1.00800           0
      9833 MEMB     88       POPC     H2S      HAL2     0.900000E-01   1.00800           0
      9834 MEMB     88       POPC     C3       CTL2     0.800000E-01   12.0110           0
      9835 MEMB     88       POPC     HX       HAL2     0.900000E-01   1.00800           0
      9836 MEMB     88       POPC     HY       HAL2     0.900000E-01   1.00800           0
      9837 MEMB     88       POPC     O31      OSL     -0.490000       15.9994           0
      9838 MEMB     88       POPC     C31      CL       0.900000       12.0110           0
      9839 MEMB     88       POPC     O32      OBL     -0.630000       15.9994           0
      9840 MEMB     88       POPC     C32      CTL2    -0.220000       12.0110           0
      9841 MEMB     88       POPC     H2X      HAL2     0.900000E-01   1.00800           0
      9842 MEMB     88       POPC     H2Y      HAL2     0.900000E-01   1.00800           0
      9843 MEMB     88       POPC     C23      CTL2    -0.180000       12.0110           0
      9844 MEMB     88       POPC     H3R      HAL2     0.900000E-01   1.00800           0
      9845 MEMB     88       POPC     H3S      HAL2     0.900000E-01   1.00800           0
      9846 MEMB     88       POPC     C24      CTL2    -0.180000       12.0110           0
      9847 MEMB     88       POPC     H4R      HAL2     0.900000E-01   1.00800           0
      9848 MEMB     88       POPC     H4S      HAL2     0.900000E-01   1.00800           0
      9849 MEMB     88       POPC     C25      CTL2    -0.180000       12.0110           0
      9850 MEMB     88       POPC     H5R      HAL2     0.900000E-01   1.00800           0
      9851 MEMB     88       POPC     H5S      HAL2     0.900000E-01   1.00800           0
      9852 MEMB     88       POPC     C26      CTL2    -0.180000       12.0110           0
      9853 MEMB     88       POPC     H6R      HAL2     0.900000E-01   1.00800           0
      9854 MEMB     88       POPC     H6S      HAL2     0.900000E-01   1.00800           0
      9855 MEMB     88       POPC     C27      CTL2    -0.180000       12.0110           0
      9856 MEMB     88       POPC     H7R      HAL2     0.900000E-01   1.00800           0
      9857 MEMB     88       POPC     H7S      HAL2     0.900000E-01   1.00800           0
      9858 MEMB     88       POPC     C28      CTL2    -0.180000       12.0110           0
      9859 MEMB     88       POPC     H8R      HAL2     0.900000E-01   1.00800           0
      9860 MEMB     88       POPC     H8S      HAL2     0.900000E-01   1.00800           0
      9861 MEMB     88       POPC     C29      CEL1    -0.150000       12.0110           0
      9862 MEMB     88       POPC     H91      HEL1     0.150000       1.00800           0
      9863 MEMB     88       POPC     C210     CEL1    -0.150000       12.0110           0
      9864 MEMB     88       POPC     H101     HEL1     0.150000       1.00800           0
      9865 MEMB     88       POPC     C211     CTL2    -0.180000       12.0110           0
      9866 MEMB     88       POPC     H11R     HAL2     0.900000E-01   1.00800           0
      9867 MEMB     88       POPC     H11S     HAL2     0.900000E-01   1.00800           0
      9868 MEMB     88       POPC     C212     CTL2    -0.180000       12.0110           0
      9869 MEMB     88       POPC     H12R     HAL2     0.900000E-01   1.00800           0
      9870 MEMB     88       POPC     H12S     HAL2     0.900000E-01   1.00800           0
      9871 MEMB     88       POPC     C213     CTL2    -0.180000       12.0110           0
      9872 MEMB     88       POPC     H13R     HAL2     0.900000E-01   1.00800           0
      9873 MEMB     88       POPC     H13S     HAL2     0.900000E-01   1.00800           0
      9874 MEMB     88       POPC     C214     CTL2    -0.180000       12.0110           0
      9875 MEMB     88       POPC     H14R     HAL2     0.900000E-01   1.00800           0
      9876 MEMB     88       POPC     H14S     HAL2     0.900000E-01   1.00800           0
      9877 MEMB     88       POPC     C215     CTL2    -0.180000       12.0110           0
      9878 MEMB     88       POPC     H15R     HAL2     0.900000E-01   1.00800           0
      9879 MEMB     88       POPC     H15S     HAL2     0.900000E-01   1.00800           0
      9880 MEMB     88       POPC     C216     CTL2    -0.180000       12.0110           0
      9881 MEMB     88       POPC     H16R     HAL2     0.900000E-01   1.00800           0
      9882 MEMB     88       POPC     H16S     HAL2     0.900000E-01   1.00800           0
      9883 MEMB     88       POPC     C217     CTL2    -0.180000       12.0110           0
      9884 MEMB     88       POPC     H17R     HAL2     0.900000E-01   1.00800           0
      9885 MEMB     88       POPC     H17S     HAL2     0.900000E-01   1.00800           0
      9886 MEMB     88       POPC     C218     CTL3    -0.270000       12.0110           0
      9887 MEMB     88       POPC     H18R     HAL3     0.900000E-01   1.00800           0
      9888 MEMB     88       POPC     H18S     HAL3     0.900000E-01   1.00800           0
      9889 MEMB     88       POPC     H18T     HAL3     0.900000E-01   1.00800           0
      9890 MEMB     88       POPC     C33      CTL2    -0.180000       12.0110           0
      9891 MEMB     88       POPC     H3X      HAL2     0.900000E-01   1.00800           0
      9892 MEMB     88       POPC     H3Y      HAL2     0.900000E-01   1.00800           0
      9893 MEMB     88       POPC     C34      CTL2    -0.180000       12.0110           0
      9894 MEMB     88       POPC     H4X      HAL2     0.900000E-01   1.00800           0
      9895 MEMB     88       POPC     H4Y      HAL2     0.900000E-01   1.00800           0
      9896 MEMB     88       POPC     C35      CTL2    -0.180000       12.0110           0
      9897 MEMB     88       POPC     H5X      HAL2     0.900000E-01   1.00800           0
      9898 MEMB     88       POPC     H5Y      HAL2     0.900000E-01   1.00800           0
      9899 MEMB     88       POPC     C36      CTL2    -0.180000       12.0110           0
      9900 MEMB     88       POPC     H6X      HAL2     0.900000E-01   1.00800           0
      9901 MEMB     88       POPC     H6Y      HAL2     0.900000E-01   1.00800           0
      9902 MEMB     88       POPC     C37      CTL2    -0.180000       12.0110           0
      9903 MEMB     88       POPC     H7X      HAL2     0.900000E-01   1.00800           0
      9904 MEMB     88       POPC     H7Y      HAL2     0.900000E-01   1.00800           0
      9905 MEMB     88       POPC     C38      CTL2    -0.180000       12.0110           0
      9906 MEMB     88       POPC     H8X      HAL2     0.900000E-01   1.00800           0
      9907 MEMB     88       POPC     H8Y      HAL2     0.900000E-01   1.00800           0
      9908 MEMB     88       POPC     C39      CTL2    -0.180000       12.0110           0
      9909 MEMB     88       POPC     H9X      HAL2     0.900000E-01   1.00800           0
      9910 MEMB     88       POPC     H9Y      HAL2     0.900000E-01   1.00800           0
      9911 MEMB     88       POPC     C310     CTL2    -0.180000       12.0110           0
      9912 MEMB     88       POPC     H10X     HAL2     0.900000E-01   1.00800           0
      9913 MEMB     88       POPC     H10Y     HAL2     0.900000E-01   1.00800           0
      9914 MEMB     88       POPC     C311     CTL2    -0.180000       12.0110           0
      9915 MEMB     88       POPC     H11X     HAL2     0.900000E-01   1.00800           0
      9916 MEMB     88       POPC     H11Y     HAL2     0.900000E-01   1.00800           0
      9917 MEMB     88       POPC     C312     CTL2    -0.180000       12.0110           0
      9918 MEMB     88       POPC     H12X     HAL2     0.900000E-01   1.00800           0
      9919 MEMB     88       POPC     H12Y     HAL2     0.900000E-01   1.00800           0
      9920 MEMB     88       POPC     C313     CTL2    -0.180000       12.0110           0
      9921 MEMB     88       POPC     H13X     HAL2     0.900000E-01   1.00800           0
      9922 MEMB     88       POPC     H13Y     HAL2     0.900000E-01   1.00800           0
      9923 MEMB     88       POPC     C314     CTL2    -0.180000       12.0110           0
      9924 MEMB     88       POPC     H14X     HAL2     0.900000E-01   1.00800           0
      9925 MEMB     88       POPC     H14Y     HAL2     0.900000E-01   1.00800           0
      9926 MEMB     88       POPC     C315     CTL2    -0.180000       12.0110           0
      9927 MEMB     88       POPC     H15X     HAL2     0.900000E-01   1.00800           0
      9928 MEMB     88       POPC     H15Y     HAL2     0.900000E-01   1.00800           0
      9929 MEMB     88       POPC     C316     CTL3    -0.270000       12.0110           0
      9930 MEMB     88       POPC     H16X     HAL3     0.900000E-01   1.00800           0
      9931 MEMB     88       POPC     H16Y     HAL3     0.900000E-01   1.00800           0
      9932 MEMB     88       POPC     H16Z     HAL3     0.900000E-01   1.00800           0
      9933 MEMB     89       POPC     N        NTL     -0.600000       14.0070           0
      9934 MEMB     89       POPC     C12      CTL2    -0.100000       12.0110           0
      9935 MEMB     89       POPC     H12A     HL       0.250000       1.00800           0
      9936 MEMB     89       POPC     H12B     HL       0.250000       1.00800           0
      9937 MEMB     89       POPC     C13      CTL5    -0.350000       12.0110           0
      9938 MEMB     89       POPC     H13A     HL       0.250000       1.00800           0
      9939 MEMB     89       POPC     H13B     HL       0.250000       1.00800           0
      9940 MEMB     89       POPC     H13C     HL       0.250000       1.00800           0
      9941 MEMB     89       POPC     C14      CTL5    -0.350000       12.0110           0
      9942 MEMB     89       POPC     H14A     HL       0.250000       1.00800           0
      9943 MEMB     89       POPC     H14B     HL       0.250000       1.00800           0
      9944 MEMB     89       POPC     H14C     HL       0.250000       1.00800           0
      9945 MEMB     89       POPC     C15      CTL5    -0.350000       12.0110           0
      9946 MEMB     89       POPC     H15A     HL       0.250000       1.00800           0
      9947 MEMB     89       POPC     H15B     HL       0.250000       1.00800           0
      9948 MEMB     89       POPC     H15C     HL       0.250000       1.00800           0
      9949 MEMB     89       POPC     C11      CTL2    -0.800000E-01   12.0110           0
      9950 MEMB     89       POPC     H11A     HAL2     0.900000E-01   1.00800           0
      9951 MEMB     89       POPC     H11B     HAL2     0.900000E-01   1.00800           0
      9952 MEMB     89       POPC     P        PL        1.50000       30.9740           0
      9953 MEMB     89       POPC     O13      O2L     -0.780000       15.9994           0
      9954 MEMB     89       POPC     O14      O2L     -0.780000       15.9994           0
      9955 MEMB     89       POPC     O12      OSLP    -0.570000       15.9994           0
      9956 MEMB     89       POPC     O11      OSLP    -0.570000       15.9994           0
      9957 MEMB     89       POPC     C1       CTL2    -0.800000E-01   12.0110           0
      9958 MEMB     89       POPC     HA       HAL2     0.900000E-01   1.00800           0
      9959 MEMB     89       POPC     HB       HAL2     0.900000E-01   1.00800           0
      9960 MEMB     89       POPC     C2       CTL1     0.170000       12.0110           0
      9961 MEMB     89       POPC     HS       HAL1     0.900000E-01   1.00800           0
      9962 MEMB     89       POPC     O21      OSL     -0.490000       15.9994           0
      9963 MEMB     89       POPC     C21      CL       0.900000       12.0110           0
      9964 MEMB     89       POPC     O22      OBL     -0.630000       15.9994           0
      9965 MEMB     89       POPC     C22      CTL2    -0.220000       12.0110           0
      9966 MEMB     89       POPC     H2R      HAL2     0.900000E-01   1.00800           0
      9967 MEMB     89       POPC     H2S      HAL2     0.900000E-01   1.00800           0
      9968 MEMB     89       POPC     C3       CTL2     0.800000E-01   12.0110           0
      9969 MEMB     89       POPC     HX       HAL2     0.900000E-01   1.00800           0
      9970 MEMB     89       POPC     HY       HAL2     0.900000E-01   1.00800           0
      9971 MEMB     89       POPC     O31      OSL     -0.490000       15.9994           0
      9972 MEMB     89       POPC     C31      CL       0.900000       12.0110           0
      9973 MEMB     89       POPC     O32      OBL     -0.630000       15.9994           0
      9974 MEMB     89       POPC     C32      CTL2    -0.220000       12.0110           0
      9975 MEMB     89       POPC     H2X      HAL2     0.900000E-01   1.00800           0
      9976 MEMB     89       POPC     H2Y      HAL2     0.900000E-01   1.00800           0
      9977 MEMB     89       POPC     C23      CTL2    -0.180000       12.0110           0
      9978 MEMB     89       POPC     H3R      HAL2     0.900000E-01   1.00800           0
      9979 MEMB     89       POPC     H3S      HAL2     0.900000E-01   1.00800           0
      9980 MEMB     89       POPC     C24      CTL2    -0.180000       12.0110           0
      9981 MEMB     89       POPC     H4R      HAL2     0.900000E-01   1.00800           0
      9982 MEMB     89       POPC     H4S      HAL2     0.900000E-01   1.00800           0
      9983 MEMB     89       POPC     C25      CTL2    -0.180000       12.0110           0
      9984 MEMB     89       POPC     H5R      HAL2     0.900000E-01   1.00800           0
      9985 MEMB     89       POPC     H5S      HAL2     0.900000E-01   1.00800           0
      9986 MEMB     89       POPC     C26      CTL2    -0.180000       12.0110           0
      9987 MEMB     89       POPC     H6R      HAL2     0.900000E-01   1.00800           0
      9988 MEMB     89       POPC     H6S      HAL2     0.900000E-01   1.00800           0
      9989 MEMB     89       POPC     C27      CTL2    -0.180000       12.0110           0
      9990 MEMB     89       POPC     H7R      HAL2     0.900000E-01   1.00800           0
      9991 MEMB     89       POPC     H7S      HAL2     0.900000E-01   1.00800           0
      9992 MEMB     89       POPC     C28      CTL2    -0.180000       12.0110           0
      9993 MEMB     89       POPC     H8R      HAL2     0.900000E-01   1.00800           0
      9994 MEMB     89       POPC     H8S      HAL2     0.900000E-01   1.00800           0
      9995 MEMB     89       POPC     C29      CEL1    -0.150000       12.0110           0
      9996 MEMB     89       POPC     H91      HEL1     0.150000       1.00800           0
      9997 MEMB     89       POPC     C210     CEL1    -0.150000       12.0110           0
      9998 MEMB     89       POPC     H101     HEL1     0.150000       1.00800           0
      9999 MEMB     89       POPC     C211     CTL2    -0.180000       12.0110           0
     10000 MEMB     89       POPC     H11R     HAL2     0.900000E-01   1.00800           0
     10001 MEMB     89       POPC     H11S     HAL2     0.900000E-01   1.00800           0
     10002 MEMB     89       POPC     C212     CTL2    -0.180000       12.0110           0
     10003 MEMB     89       POPC     H12R     HAL2     0.900000E-01   1.00800           0
     10004 MEMB     89       POPC     H12S     HAL2     0.900000E-01   1.00800           0
     10005 MEMB     89       POPC     C213     CTL2    -0.180000       12.0110           0
     10006 MEMB     89       POPC     H13R     HAL2     0.900000E-01   1.00800           0
     10007 MEMB     89       POPC     H13S     HAL2     0.900000E-01   1.00800           0
     10008 MEMB     89       POPC     C214     CTL2    -0.180000       12.0110           0
     10009 MEMB     89       POPC     H14R     HAL2     0.900000E-01   1.00800           0
     10010 MEMB     89       POPC     H14S     HAL2     0.900000E-01   1.00800           0
     10011 MEMB     89       POPC     C215     CTL2    -0.180000       12.0110           0
     10012 MEMB     89       POPC     H15R     HAL2     0.900000E-01   1.00800           0
     10013 MEMB     89       POPC     H15S     HAL2     0.900000E-01   1.00800           0
     10014 MEMB     89       POPC     C216     CTL2    -0.180000       12.0110           0
     10015 MEMB     89       POPC     H16R     HAL2     0.900000E-01   1.00800           0
     10016 MEMB     89       POPC     H16S     HAL2     0.900000E-01   1.00800           0
     10017 MEMB     89       POPC     C217     CTL2    -0.180000       12.0110           0
     10018 MEMB     89       POPC     H17R     HAL2     0.900000E-01   1.00800           0
     10019 MEMB     89       POPC     H17S     HAL2     0.900000E-01   1.00800           0
     10020 MEMB     89       POPC     C218     CTL3    -0.270000       12.0110           0
     10021 MEMB     89       POPC     H18R     HAL3     0.900000E-01   1.00800           0
     10022 MEMB     89       POPC     H18S     HAL3     0.900000E-01   1.00800           0
     10023 MEMB     89       POPC     H18T     HAL3     0.900000E-01   1.00800           0
     10024 MEMB     89       POPC     C33      CTL2    -0.180000       12.0110           0
     10025 MEMB     89       POPC     H3X      HAL2     0.900000E-01   1.00800           0
     10026 MEMB     89       POPC     H3Y      HAL2     0.900000E-01   1.00800           0
     10027 MEMB     89       POPC     C34      CTL2    -0.180000       12.0110           0
     10028 MEMB     89       POPC     H4X      HAL2     0.900000E-01   1.00800           0
     10029 MEMB     89       POPC     H4Y      HAL2     0.900000E-01   1.00800           0
     10030 MEMB     89       POPC     C35      CTL2    -0.180000       12.0110           0
     10031 MEMB     89       POPC     H5X      HAL2     0.900000E-01   1.00800           0
     10032 MEMB     89       POPC     H5Y      HAL2     0.900000E-01   1.00800           0
     10033 MEMB     89       POPC     C36      CTL2    -0.180000       12.0110           0
     10034 MEMB     89       POPC     H6X      HAL2     0.900000E-01   1.00800           0
     10035 MEMB     89       POPC     H6Y      HAL2     0.900000E-01   1.00800           0
     10036 MEMB     89       POPC     C37      CTL2    -0.180000       12.0110           0
     10037 MEMB     89       POPC     H7X      HAL2     0.900000E-01   1.00800           0
     10038 MEMB     89       POPC     H7Y      HAL2     0.900000E-01   1.00800           0
     10039 MEMB     89       POPC     C38      CTL2    -0.180000       12.0110           0
     10040 MEMB     89       POPC     H8X      HAL2     0.900000E-01   1.00800           0
     10041 MEMB     89       POPC     H8Y      HAL2     0.900000E-01   1.00800           0
     10042 MEMB     89       POPC     C39      CTL2    -0.180000       12.0110           0
     10043 MEMB     89       POPC     H9X      HAL2     0.900000E-01   1.00800           0
     10044 MEMB     89       POPC     H9Y      HAL2     0.900000E-01   1.00800           0
     10045 MEMB     89       POPC     C310     CTL2    -0.180000       12.0110           0
     10046 MEMB     89       POPC     H10X     HAL2     0.900000E-01   1.00800           0
     10047 MEMB     89       POPC     H10Y     HAL2     0.900000E-01   1.00800           0
     10048 MEMB     89       POPC     C311     CTL2    -0.180000       12.0110           0
     10049 MEMB     89       POPC     H11X     HAL2     0.900000E-01   1.00800           0
     10050 MEMB     89       POPC     H11Y     HAL2     0.900000E-01   1.00800           0
     10051 MEMB     89       POPC     C312     CTL2    -0.180000       12.0110           0
     10052 MEMB     89       POPC     H12X     HAL2     0.900000E-01   1.00800           0
     10053 MEMB     89       POPC     H12Y     HAL2     0.900000E-01   1.00800           0
     10054 MEMB     89       POPC     C313     CTL2    -0.180000       12.0110           0
     10055 MEMB     89       POPC     H13X     HAL2     0.900000E-01   1.00800           0
     10056 MEMB     89       POPC     H13Y     HAL2     0.900000E-01   1.00800           0
     10057 MEMB     89       POPC     C314     CTL2    -0.180000       12.0110           0
     10058 MEMB     89       POPC     H14X     HAL2     0.900000E-01   1.00800           0
     10059 MEMB     89       POPC     H14Y     HAL2     0.900000E-01   1.00800           0
     10060 MEMB     89       POPC     C315     CTL2    -0.180000       12.0110           0
     10061 MEMB     89       POPC     H15X     HAL2     0.900000E-01   1.00800           0
     10062 MEMB     89       POPC     H15Y     HAL2     0.900000E-01   1.00800           0
     10063 MEMB     89       POPC     C316     CTL3    -0.270000       12.0110           0
     10064 MEMB     89       POPC     H16X     HAL3     0.900000E-01   1.00800           0
     10065 MEMB     89       POPC     H16Y     HAL3     0.900000E-01   1.00800           0
     10066 MEMB     89       POPC     H16Z     HAL3     0.900000E-01   1.00800           0
     10067 MEMB     90       POPC     N        NTL     -0.600000       14.0070           0
     10068 MEMB     90       POPC     C12      CTL2    -0.100000       12.0110           0
     10069 MEMB     90       POPC     H12A     HL       0.250000       1.00800           0
     10070 MEMB     90       POPC     H12B     HL       0.250000       1.00800           0
     10071 MEMB     90       POPC     C13      CTL5    -0.350000       12.0110           0
     10072 MEMB     90       POPC     H13A     HL       0.250000       1.00800           0
     10073 MEMB     90       POPC     H13B     HL       0.250000       1.00800           0
     10074 MEMB     90       POPC     H13C     HL       0.250000       1.00800           0
     10075 MEMB     90       POPC     C14      CTL5    -0.350000       12.0110           0
     10076 MEMB     90       POPC     H14A     HL       0.250000       1.00800           0
     10077 MEMB     90       POPC     H14B     HL       0.250000       1.00800           0
     10078 MEMB     90       POPC     H14C     HL       0.250000       1.00800           0
     10079 MEMB     90       POPC     C15      CTL5    -0.350000       12.0110           0
     10080 MEMB     90       POPC     H15A     HL       0.250000       1.00800           0
     10081 MEMB     90       POPC     H15B     HL       0.250000       1.00800           0
     10082 MEMB     90       POPC     H15C     HL       0.250000       1.00800           0
     10083 MEMB     90       POPC     C11      CTL2    -0.800000E-01   12.0110           0
     10084 MEMB     90       POPC     H11A     HAL2     0.900000E-01   1.00800           0
     10085 MEMB     90       POPC     H11B     HAL2     0.900000E-01   1.00800           0
     10086 MEMB     90       POPC     P        PL        1.50000       30.9740           0
     10087 MEMB     90       POPC     O13      O2L     -0.780000       15.9994           0
     10088 MEMB     90       POPC     O14      O2L     -0.780000       15.9994           0
     10089 MEMB     90       POPC     O12      OSLP    -0.570000       15.9994           0
     10090 MEMB     90       POPC     O11      OSLP    -0.570000       15.9994           0
     10091 MEMB     90       POPC     C1       CTL2    -0.800000E-01   12.0110           0
     10092 MEMB     90       POPC     HA       HAL2     0.900000E-01   1.00800           0
     10093 MEMB     90       POPC     HB       HAL2     0.900000E-01   1.00800           0
     10094 MEMB     90       POPC     C2       CTL1     0.170000       12.0110           0
     10095 MEMB     90       POPC     HS       HAL1     0.900000E-01   1.00800           0
     10096 MEMB     90       POPC     O21      OSL     -0.490000       15.9994           0
     10097 MEMB     90       POPC     C21      CL       0.900000       12.0110           0
     10098 MEMB     90       POPC     O22      OBL     -0.630000       15.9994           0
     10099 MEMB     90       POPC     C22      CTL2    -0.220000       12.0110           0
     10100 MEMB     90       POPC     H2R      HAL2     0.900000E-01   1.00800           0
     10101 MEMB     90       POPC     H2S      HAL2     0.900000E-01   1.00800           0
     10102 MEMB     90       POPC     C3       CTL2     0.800000E-01   12.0110           0
     10103 MEMB     90       POPC     HX       HAL2     0.900000E-01   1.00800           0
     10104 MEMB     90       POPC     HY       HAL2     0.900000E-01   1.00800           0
     10105 MEMB     90       POPC     O31      OSL     -0.490000       15.9994           0
     10106 MEMB     90       POPC     C31      CL       0.900000       12.0110           0
     10107 MEMB     90       POPC     O32      OBL     -0.630000       15.9994           0
     10108 MEMB     90       POPC     C32      CTL2    -0.220000       12.0110           0
     10109 MEMB     90       POPC     H2X      HAL2     0.900000E-01   1.00800           0
     10110 MEMB     90       POPC     H2Y      HAL2     0.900000E-01   1.00800           0
     10111 MEMB     90       POPC     C23      CTL2    -0.180000       12.0110           0
     10112 MEMB     90       POPC     H3R      HAL2     0.900000E-01   1.00800           0
     10113 MEMB     90       POPC     H3S      HAL2     0.900000E-01   1.00800           0
     10114 MEMB     90       POPC     C24      CTL2    -0.180000       12.0110           0
     10115 MEMB     90       POPC     H4R      HAL2     0.900000E-01   1.00800           0
     10116 MEMB     90       POPC     H4S      HAL2     0.900000E-01   1.00800           0
     10117 MEMB     90       POPC     C25      CTL2    -0.180000       12.0110           0
     10118 MEMB     90       POPC     H5R      HAL2     0.900000E-01   1.00800           0
     10119 MEMB     90       POPC     H5S      HAL2     0.900000E-01   1.00800           0
     10120 MEMB     90       POPC     C26      CTL2    -0.180000       12.0110           0
     10121 MEMB     90       POPC     H6R      HAL2     0.900000E-01   1.00800           0
     10122 MEMB     90       POPC     H6S      HAL2     0.900000E-01   1.00800           0
     10123 MEMB     90       POPC     C27      CTL2    -0.180000       12.0110           0
     10124 MEMB     90       POPC     H7R      HAL2     0.900000E-01   1.00800           0
     10125 MEMB     90       POPC     H7S      HAL2     0.900000E-01   1.00800           0
     10126 MEMB     90       POPC     C28      CTL2    -0.180000       12.0110           0
     10127 MEMB     90       POPC     H8R      HAL2     0.900000E-01   1.00800           0
     10128 MEMB     90       POPC     H8S      HAL2     0.900000E-01   1.00800           0
     10129 MEMB     90       POPC     C29      CEL1    -0.150000       12.0110           0
     10130 MEMB     90       POPC     H91      HEL1     0.150000       1.00800           0
     10131 MEMB     90       POPC     C210     CEL1    -0.150000       12.0110           0
     10132 MEMB     90       POPC     H101     HEL1     0.150000       1.00800           0
     10133 MEMB     90       POPC     C211     CTL2    -0.180000       12.0110           0
     10134 MEMB     90       POPC     H11R     HAL2     0.900000E-01   1.00800           0
     10135 MEMB     90       POPC     H11S     HAL2     0.900000E-01   1.00800           0
     10136 MEMB     90       POPC     C212     CTL2    -0.180000       12.0110           0
     10137 MEMB     90       POPC     H12R     HAL2     0.900000E-01   1.00800           0
     10138 MEMB     90       POPC     H12S     HAL2     0.900000E-01   1.00800           0
     10139 MEMB     90       POPC     C213     CTL2    -0.180000       12.0110           0
     10140 MEMB     90       POPC     H13R     HAL2     0.900000E-01   1.00800           0
     10141 MEMB     90       POPC     H13S     HAL2     0.900000E-01   1.00800           0
     10142 MEMB     90       POPC     C214     CTL2    -0.180000       12.0110           0
     10143 MEMB     90       POPC     H14R     HAL2     0.900000E-01   1.00800           0
     10144 MEMB     90       POPC     H14S     HAL2     0.900000E-01   1.00800           0
     10145 MEMB     90       POPC     C215     CTL2    -0.180000       12.0110           0
     10146 MEMB     90       POPC     H15R     HAL2     0.900000E-01   1.00800           0
     10147 MEMB     90       POPC     H15S     HAL2     0.900000E-01   1.00800           0
     10148 MEMB     90       POPC     C216     CTL2    -0.180000       12.0110           0
     10149 MEMB     90       POPC     H16R     HAL2     0.900000E-01   1.00800           0
     10150 MEMB     90       POPC     H16S     HAL2     0.900000E-01   1.00800           0
     10151 MEMB     90       POPC     C217     CTL2    -0.180000       12.0110           0
     10152 MEMB     90       POPC     H17R     HAL2     0.900000E-01   1.00800           0
     10153 MEMB     90       POPC     H17S     HAL2     0.900000E-01   1.00800           0
     10154 MEMB     90       POPC     C218     CTL3    -0.270000       12.0110           0
     10155 MEMB     90       POPC     H18R     HAL3     0.900000E-01   1.00800           0
     10156 MEMB     90       POPC     H18S     HAL3     0.900000E-01   1.00800           0
     10157 MEMB     90       POPC     H18T     HAL3     0.900000E-01   1.00800           0
     10158 MEMB     90       POPC     C33      CTL2    -0.180000       12.0110           0
     10159 MEMB     90       POPC     H3X      HAL2     0.900000E-01   1.00800           0
     10160 MEMB     90       POPC     H3Y      HAL2     0.900000E-01   1.00800           0
     10161 MEMB     90       POPC     C34      CTL2    -0.180000       12.0110           0
     10162 MEMB     90       POPC     H4X      HAL2     0.900000E-01   1.00800           0
     10163 MEMB     90       POPC     H4Y      HAL2     0.900000E-01   1.00800           0
     10164 MEMB     90       POPC     C35      CTL2    -0.180000       12.0110           0
     10165 MEMB     90       POPC     H5X      HAL2     0.900000E-01   1.00800           0
     10166 MEMB     90       POPC     H5Y      HAL2     0.900000E-01   1.00800           0
     10167 MEMB     90       POPC     C36      CTL2    -0.180000       12.0110           0
     10168 MEMB     90       POPC     H6X      HAL2     0.900000E-01   1.00800           0
     10169 MEMB     90       POPC     H6Y      HAL2     0.900000E-01   1.00800           0
     10170 MEMB     90       POPC     C37      CTL2    -0.180000       12.0110           0
     10171 MEMB     90       POPC     H7X      HAL2     0.900000E-01   1.00800           0
     10172 MEMB     90       POPC     H7Y      HAL2     0.900000E-01   1.00800           0
     10173 MEMB     90       POPC     C38      CTL2    -0.180000       12.0110           0
     10174 MEMB     90       POPC     H8X      HAL2     0.900000E-01   1.00800           0
     10175 MEMB     90       POPC     H8Y      HAL2     0.900000E-01   1.00800           0
     10176 MEMB     90       POPC     C39      CTL2    -0.180000       12.0110           0
     10177 MEMB     90       POPC     H9X      HAL2     0.900000E-01   1.00800           0
     10178 MEMB     90       POPC     H9Y      HAL2     0.900000E-01   1.00800           0
     10179 MEMB     90       POPC     C310     CTL2    -0.180000       12.0110           0
     10180 MEMB     90       POPC     H10X     HAL2     0.900000E-01   1.00800           0
     10181 MEMB     90       POPC     H10Y     HAL2     0.900000E-01   1.00800           0
     10182 MEMB     90       POPC     C311     CTL2    -0.180000       12.0110           0
     10183 MEMB     90       POPC     H11X     HAL2     0.900000E-01   1.00800           0
     10184 MEMB     90       POPC     H11Y     HAL2     0.900000E-01   1.00800           0
     10185 MEMB     90       POPC     C312     CTL2    -0.180000       12.0110           0
     10186 MEMB     90       POPC     H12X     HAL2     0.900000E-01   1.00800           0
     10187 MEMB     90       POPC     H12Y     HAL2     0.900000E-01   1.00800           0
     10188 MEMB     90       POPC     C313     CTL2    -0.180000       12.0110           0
     10189 MEMB     90       POPC     H13X     HAL2     0.900000E-01   1.00800           0
     10190 MEMB     90       POPC     H13Y     HAL2     0.900000E-01   1.00800           0
     10191 MEMB     90       POPC     C314     CTL2    -0.180000       12.0110           0
     10192 MEMB     90       POPC     H14X     HAL2     0.900000E-01   1.00800           0
     10193 MEMB     90       POPC     H14Y     HAL2     0.900000E-01   1.00800           0
     10194 MEMB     90       POPC     C315     CTL2    -0.180000       12.0110           0
     10195 MEMB     90       POPC     H15X     HAL2     0.900000E-01   1.00800           0
     10196 MEMB     90       POPC     H15Y     HAL2     0.900000E-01   1.00800           0
     10197 MEMB     90       POPC     C316     CTL3    -0.270000       12.0110           0
     10198 MEMB     90       POPC     H16X     HAL3     0.900000E-01   1.00800           0
     10199 MEMB     90       POPC     H16Y     HAL3     0.900000E-01   1.00800           0
     10200 MEMB     90       POPC     H16Z     HAL3     0.900000E-01   1.00800           0
     10201 MEMB     91       POPC     N        NTL     -0.600000       14.0070           0
     10202 MEMB     91       POPC     C12      CTL2    -0.100000       12.0110           0
     10203 MEMB     91       POPC     H12A     HL       0.250000       1.00800           0
     10204 MEMB     91       POPC     H12B     HL       0.250000       1.00800           0
     10205 MEMB     91       POPC     C13      CTL5    -0.350000       12.0110           0
     10206 MEMB     91       POPC     H13A     HL       0.250000       1.00800           0
     10207 MEMB     91       POPC     H13B     HL       0.250000       1.00800           0
     10208 MEMB     91       POPC     H13C     HL       0.250000       1.00800           0
     10209 MEMB     91       POPC     C14      CTL5    -0.350000       12.0110           0
     10210 MEMB     91       POPC     H14A     HL       0.250000       1.00800           0
     10211 MEMB     91       POPC     H14B     HL       0.250000       1.00800           0
     10212 MEMB     91       POPC     H14C     HL       0.250000       1.00800           0
     10213 MEMB     91       POPC     C15      CTL5    -0.350000       12.0110           0
     10214 MEMB     91       POPC     H15A     HL       0.250000       1.00800           0
     10215 MEMB     91       POPC     H15B     HL       0.250000       1.00800           0
     10216 MEMB     91       POPC     H15C     HL       0.250000       1.00800           0
     10217 MEMB     91       POPC     C11      CTL2    -0.800000E-01   12.0110           0
     10218 MEMB     91       POPC     H11A     HAL2     0.900000E-01   1.00800           0
     10219 MEMB     91       POPC     H11B     HAL2     0.900000E-01   1.00800           0
     10220 MEMB     91       POPC     P        PL        1.50000       30.9740           0
     10221 MEMB     91       POPC     O13      O2L     -0.780000       15.9994           0
     10222 MEMB     91       POPC     O14      O2L     -0.780000       15.9994           0
     10223 MEMB     91       POPC     O12      OSLP    -0.570000       15.9994           0
     10224 MEMB     91       POPC     O11      OSLP    -0.570000       15.9994           0
     10225 MEMB     91       POPC     C1       CTL2    -0.800000E-01   12.0110           0
     10226 MEMB     91       POPC     HA       HAL2     0.900000E-01   1.00800           0
     10227 MEMB     91       POPC     HB       HAL2     0.900000E-01   1.00800           0
     10228 MEMB     91       POPC     C2       CTL1     0.170000       12.0110           0
     10229 MEMB     91       POPC     HS       HAL1     0.900000E-01   1.00800           0
     10230 MEMB     91       POPC     O21      OSL     -0.490000       15.9994           0
     10231 MEMB     91       POPC     C21      CL       0.900000       12.0110           0
     10232 MEMB     91       POPC     O22      OBL     -0.630000       15.9994           0
     10233 MEMB     91       POPC     C22      CTL2    -0.220000       12.0110           0
     10234 MEMB     91       POPC     H2R      HAL2     0.900000E-01   1.00800           0
     10235 MEMB     91       POPC     H2S      HAL2     0.900000E-01   1.00800           0
     10236 MEMB     91       POPC     C3       CTL2     0.800000E-01   12.0110           0
     10237 MEMB     91       POPC     HX       HAL2     0.900000E-01   1.00800           0
     10238 MEMB     91       POPC     HY       HAL2     0.900000E-01   1.00800           0
     10239 MEMB     91       POPC     O31      OSL     -0.490000       15.9994           0
     10240 MEMB     91       POPC     C31      CL       0.900000       12.0110           0
     10241 MEMB     91       POPC     O32      OBL     -0.630000       15.9994           0
     10242 MEMB     91       POPC     C32      CTL2    -0.220000       12.0110           0
     10243 MEMB     91       POPC     H2X      HAL2     0.900000E-01   1.00800           0
     10244 MEMB     91       POPC     H2Y      HAL2     0.900000E-01   1.00800           0
     10245 MEMB     91       POPC     C23      CTL2    -0.180000       12.0110           0
     10246 MEMB     91       POPC     H3R      HAL2     0.900000E-01   1.00800           0
     10247 MEMB     91       POPC     H3S      HAL2     0.900000E-01   1.00800           0
     10248 MEMB     91       POPC     C24      CTL2    -0.180000       12.0110           0
     10249 MEMB     91       POPC     H4R      HAL2     0.900000E-01   1.00800           0
     10250 MEMB     91       POPC     H4S      HAL2     0.900000E-01   1.00800           0
     10251 MEMB     91       POPC     C25      CTL2    -0.180000       12.0110           0
     10252 MEMB     91       POPC     H5R      HAL2     0.900000E-01   1.00800           0
     10253 MEMB     91       POPC     H5S      HAL2     0.900000E-01   1.00800           0
     10254 MEMB     91       POPC     C26      CTL2    -0.180000       12.0110           0
     10255 MEMB     91       POPC     H6R      HAL2     0.900000E-01   1.00800           0
     10256 MEMB     91       POPC     H6S      HAL2     0.900000E-01   1.00800           0
     10257 MEMB     91       POPC     C27      CTL2    -0.180000       12.0110           0
     10258 MEMB     91       POPC     H7R      HAL2     0.900000E-01   1.00800           0
     10259 MEMB     91       POPC     H7S      HAL2     0.900000E-01   1.00800           0
     10260 MEMB     91       POPC     C28      CTL2    -0.180000       12.0110           0
     10261 MEMB     91       POPC     H8R      HAL2     0.900000E-01   1.00800           0
     10262 MEMB     91       POPC     H8S      HAL2     0.900000E-01   1.00800           0
     10263 MEMB     91       POPC     C29      CEL1    -0.150000       12.0110           0
     10264 MEMB     91       POPC     H91      HEL1     0.150000       1.00800           0
     10265 MEMB     91       POPC     C210     CEL1    -0.150000       12.0110           0
     10266 MEMB     91       POPC     H101     HEL1     0.150000       1.00800           0
     10267 MEMB     91       POPC     C211     CTL2    -0.180000       12.0110           0
     10268 MEMB     91       POPC     H11R     HAL2     0.900000E-01   1.00800           0
     10269 MEMB     91       POPC     H11S     HAL2     0.900000E-01   1.00800           0
     10270 MEMB     91       POPC     C212     CTL2    -0.180000       12.0110           0
     10271 MEMB     91       POPC     H12R     HAL2     0.900000E-01   1.00800           0
     10272 MEMB     91       POPC     H12S     HAL2     0.900000E-01   1.00800           0
     10273 MEMB     91       POPC     C213     CTL2    -0.180000       12.0110           0
     10274 MEMB     91       POPC     H13R     HAL2     0.900000E-01   1.00800           0
     10275 MEMB     91       POPC     H13S     HAL2     0.900000E-01   1.00800           0
     10276 MEMB     91       POPC     C214     CTL2    -0.180000       12.0110           0
     10277 MEMB     91       POPC     H14R     HAL2     0.900000E-01   1.00800           0
     10278 MEMB     91       POPC     H14S     HAL2     0.900000E-01   1.00800           0
     10279 MEMB     91       POPC     C215     CTL2    -0.180000       12.0110           0
     10280 MEMB     91       POPC     H15R     HAL2     0.900000E-01   1.00800           0
     10281 MEMB     91       POPC     H15S     HAL2     0.900000E-01   1.00800           0
     10282 MEMB     91       POPC     C216     CTL2    -0.180000       12.0110           0
     10283 MEMB     91       POPC     H16R     HAL2     0.900000E-01   1.00800           0
     10284 MEMB     91       POPC     H16S     HAL2     0.900000E-01   1.00800           0
     10285 MEMB     91       POPC     C217     CTL2    -0.180000       12.0110           0
     10286 MEMB     91       POPC     H17R     HAL2     0.900000E-01   1.00800           0
     10287 MEMB     91       POPC     H17S     HAL2     0.900000E-01   1.00800           0
     10288 MEMB     91       POPC     C218     CTL3    -0.270000       12.0110           0
     10289 MEMB     91       POPC     H18R     HAL3     0.900000E-01   1.00800           0
     10290 MEMB     91       POPC     H18S     HAL3     0.900000E-01   1.00800           0
     10291 MEMB     91       POPC     H18T     HAL3     0.900000E-01   1.00800           0
     10292 MEMB     91       POPC     C33      CTL2    -0.180000       12.0110           0
     10293 MEMB     91       POPC     H3X      HAL2     0.900000E-01   1.00800           0
     10294 MEMB     91       POPC     H3Y      HAL2     0.900000E-01   1.00800           0
     10295 MEMB     91       POPC     C34      CTL2    -0.180000       12.0110           0
     10296 MEMB     91       POPC     H4X      HAL2     0.900000E-01   1.00800           0
     10297 MEMB     91       POPC     H4Y      HAL2     0.900000E-01   1.00800           0
     10298 MEMB     91       POPC     C35      CTL2    -0.180000       12.0110           0
     10299 MEMB     91       POPC     H5X      HAL2     0.900000E-01   1.00800           0
     10300 MEMB     91       POPC     H5Y      HAL2     0.900000E-01   1.00800           0
     10301 MEMB     91       POPC     C36      CTL2    -0.180000       12.0110           0
     10302 MEMB     91       POPC     H6X      HAL2     0.900000E-01   1.00800           0
     10303 MEMB     91       POPC     H6Y      HAL2     0.900000E-01   1.00800           0
     10304 MEMB     91       POPC     C37      CTL2    -0.180000       12.0110           0
     10305 MEMB     91       POPC     H7X      HAL2     0.900000E-01   1.00800           0
     10306 MEMB     91       POPC     H7Y      HAL2     0.900000E-01   1.00800           0
     10307 MEMB     91       POPC     C38      CTL2    -0.180000       12.0110           0
     10308 MEMB     91       POPC     H8X      HAL2     0.900000E-01   1.00800           0
     10309 MEMB     91       POPC     H8Y      HAL2     0.900000E-01   1.00800           0
     10310 MEMB     91       POPC     C39      CTL2    -0.180000       12.0110           0
     10311 MEMB     91       POPC     H9X      HAL2     0.900000E-01   1.00800           0
     10312 MEMB     91       POPC     H9Y      HAL2     0.900000E-01   1.00800           0
     10313 MEMB     91       POPC     C310     CTL2    -0.180000       12.0110           0
     10314 MEMB     91       POPC     H10X     HAL2     0.900000E-01   1.00800           0
     10315 MEMB     91       POPC     H10Y     HAL2     0.900000E-01   1.00800           0
     10316 MEMB     91       POPC     C311     CTL2    -0.180000       12.0110           0
     10317 MEMB     91       POPC     H11X     HAL2     0.900000E-01   1.00800           0
     10318 MEMB     91       POPC     H11Y     HAL2     0.900000E-01   1.00800           0
     10319 MEMB     91       POPC     C312     CTL2    -0.180000       12.0110           0
     10320 MEMB     91       POPC     H12X     HAL2     0.900000E-01   1.00800           0
     10321 MEMB     91       POPC     H12Y     HAL2     0.900000E-01   1.00800           0
     10322 MEMB     91       POPC     C313     CTL2    -0.180000       12.0110           0
     10323 MEMB     91       POPC     H13X     HAL2     0.900000E-01   1.00800           0
     10324 MEMB     91       POPC     H13Y     HAL2     0.900000E-01   1.00800           0
     10325 MEMB     91       POPC     C314     CTL2    -0.180000       12.0110           0
     10326 MEMB     91       POPC     H14X     HAL2     0.900000E-01   1.00800           0
     10327 MEMB     91       POPC     H14Y     HAL2     0.900000E-01   1.00800           0
     10328 MEMB     91       POPC     C315     CTL2    -0.180000       12.0110           0
     10329 MEMB     91       POPC     H15X     HAL2     0.900000E-01   1.00800           0
     10330 MEMB     91       POPC     H15Y     HAL2     0.900000E-01   1.00800           0
     10331 MEMB     91       POPC     C316     CTL3    -0.270000       12.0110           0
     10332 MEMB     91       POPC     H16X     HAL3     0.900000E-01   1.00800           0
     10333 MEMB     91       POPC     H16Y     HAL3     0.900000E-01   1.00800           0
     10334 MEMB     91       POPC     H16Z     HAL3     0.900000E-01   1.00800           0
     10335 MEMB     92       POPC     N        NTL     -0.600000       14.0070           0
     10336 MEMB     92       POPC     C12      CTL2    -0.100000       12.0110           0
     10337 MEMB     92       POPC     H12A     HL       0.250000       1.00800           0
     10338 MEMB     92       POPC     H12B     HL       0.250000       1.00800           0
     10339 MEMB     92       POPC     C13      CTL5    -0.350000       12.0110           0
     10340 MEMB     92       POPC     H13A     HL       0.250000       1.00800           0
     10341 MEMB     92       POPC     H13B     HL       0.250000       1.00800           0
     10342 MEMB     92       POPC     H13C     HL       0.250000       1.00800           0
     10343 MEMB     92       POPC     C14      CTL5    -0.350000       12.0110           0
     10344 MEMB     92       POPC     H14A     HL       0.250000       1.00800           0
     10345 MEMB     92       POPC     H14B     HL       0.250000       1.00800           0
     10346 MEMB     92       POPC     H14C     HL       0.250000       1.00800           0
     10347 MEMB     92       POPC     C15      CTL5    -0.350000       12.0110           0
     10348 MEMB     92       POPC     H15A     HL       0.250000       1.00800           0
     10349 MEMB     92       POPC     H15B     HL       0.250000       1.00800           0
     10350 MEMB     92       POPC     H15C     HL       0.250000       1.00800           0
     10351 MEMB     92       POPC     C11      CTL2    -0.800000E-01   12.0110           0
     10352 MEMB     92       POPC     H11A     HAL2     0.900000E-01   1.00800           0
     10353 MEMB     92       POPC     H11B     HAL2     0.900000E-01   1.00800           0
     10354 MEMB     92       POPC     P        PL        1.50000       30.9740           0
     10355 MEMB     92       POPC     O13      O2L     -0.780000       15.9994           0
     10356 MEMB     92       POPC     O14      O2L     -0.780000       15.9994           0
     10357 MEMB     92       POPC     O12      OSLP    -0.570000       15.9994           0
     10358 MEMB     92       POPC     O11      OSLP    -0.570000       15.9994           0
     10359 MEMB     92       POPC     C1       CTL2    -0.800000E-01   12.0110           0
     10360 MEMB     92       POPC     HA       HAL2     0.900000E-01   1.00800           0
     10361 MEMB     92       POPC     HB       HAL2     0.900000E-01   1.00800           0
     10362 MEMB     92       POPC     C2       CTL1     0.170000       12.0110           0
     10363 MEMB     92       POPC     HS       HAL1     0.900000E-01   1.00800           0
     10364 MEMB     92       POPC     O21      OSL     -0.490000       15.9994           0
     10365 MEMB     92       POPC     C21      CL       0.900000       12.0110           0
     10366 MEMB     92       POPC     O22      OBL     -0.630000       15.9994           0
     10367 MEMB     92       POPC     C22      CTL2    -0.220000       12.0110           0
     10368 MEMB     92       POPC     H2R      HAL2     0.900000E-01   1.00800           0
     10369 MEMB     92       POPC     H2S      HAL2     0.900000E-01   1.00800           0
     10370 MEMB     92       POPC     C3       CTL2     0.800000E-01   12.0110           0
     10371 MEMB     92       POPC     HX       HAL2     0.900000E-01   1.00800           0
     10372 MEMB     92       POPC     HY       HAL2     0.900000E-01   1.00800           0
     10373 MEMB     92       POPC     O31      OSL     -0.490000       15.9994           0
     10374 MEMB     92       POPC     C31      CL       0.900000       12.0110           0
     10375 MEMB     92       POPC     O32      OBL     -0.630000       15.9994           0
     10376 MEMB     92       POPC     C32      CTL2    -0.220000       12.0110           0
     10377 MEMB     92       POPC     H2X      HAL2     0.900000E-01   1.00800           0
     10378 MEMB     92       POPC     H2Y      HAL2     0.900000E-01   1.00800           0
     10379 MEMB     92       POPC     C23      CTL2    -0.180000       12.0110           0
     10380 MEMB     92       POPC     H3R      HAL2     0.900000E-01   1.00800           0
     10381 MEMB     92       POPC     H3S      HAL2     0.900000E-01   1.00800           0
     10382 MEMB     92       POPC     C24      CTL2    -0.180000       12.0110           0
     10383 MEMB     92       POPC     H4R      HAL2     0.900000E-01   1.00800           0
     10384 MEMB     92       POPC     H4S      HAL2     0.900000E-01   1.00800           0
     10385 MEMB     92       POPC     C25      CTL2    -0.180000       12.0110           0
     10386 MEMB     92       POPC     H5R      HAL2     0.900000E-01   1.00800           0
     10387 MEMB     92       POPC     H5S      HAL2     0.900000E-01   1.00800           0
     10388 MEMB     92       POPC     C26      CTL2    -0.180000       12.0110           0
     10389 MEMB     92       POPC     H6R      HAL2     0.900000E-01   1.00800           0
     10390 MEMB     92       POPC     H6S      HAL2     0.900000E-01   1.00800           0
     10391 MEMB     92       POPC     C27      CTL2    -0.180000       12.0110           0
     10392 MEMB     92       POPC     H7R      HAL2     0.900000E-01   1.00800           0
     10393 MEMB     92       POPC     H7S      HAL2     0.900000E-01   1.00800           0
     10394 MEMB     92       POPC     C28      CTL2    -0.180000       12.0110           0
     10395 MEMB     92       POPC     H8R      HAL2     0.900000E-01   1.00800           0
     10396 MEMB     92       POPC     H8S      HAL2     0.900000E-01   1.00800           0
     10397 MEMB     92       POPC     C29      CEL1    -0.150000       12.0110           0
     10398 MEMB     92       POPC     H91      HEL1     0.150000       1.00800           0
     10399 MEMB     92       POPC     C210     CEL1    -0.150000       12.0110           0
     10400 MEMB     92       POPC     H101     HEL1     0.150000       1.00800           0
     10401 MEMB     92       POPC     C211     CTL2    -0.180000       12.0110           0
     10402 MEMB     92       POPC     H11R     HAL2     0.900000E-01   1.00800           0
     10403 MEMB     92       POPC     H11S     HAL2     0.900000E-01   1.00800           0
     10404 MEMB     92       POPC     C212     CTL2    -0.180000       12.0110           0
     10405 MEMB     92       POPC     H12R     HAL2     0.900000E-01   1.00800           0
     10406 MEMB     92       POPC     H12S     HAL2     0.900000E-01   1.00800           0
     10407 MEMB     92       POPC     C213     CTL2    -0.180000       12.0110           0
     10408 MEMB     92       POPC     H13R     HAL2     0.900000E-01   1.00800           0
     10409 MEMB     92       POPC     H13S     HAL2     0.900000E-01   1.00800           0
     10410 MEMB     92       POPC     C214     CTL2    -0.180000       12.0110           0
     10411 MEMB     92       POPC     H14R     HAL2     0.900000E-01   1.00800           0
     10412 MEMB     92       POPC     H14S     HAL2     0.900000E-01   1.00800           0
     10413 MEMB     92       POPC     C215     CTL2    -0.180000       12.0110           0
     10414 MEMB     92       POPC     H15R     HAL2     0.900000E-01   1.00800           0
     10415 MEMB     92       POPC     H15S     HAL2     0.900000E-01   1.00800           0
     10416 MEMB     92       POPC     C216     CTL2    -0.180000       12.0110           0
     10417 MEMB     92       POPC     H16R     HAL2     0.900000E-01   1.00800           0
     10418 MEMB     92       POPC     H16S     HAL2     0.900000E-01   1.00800           0
     10419 MEMB     92       POPC     C217     CTL2    -0.180000       12.0110           0
     10420 MEMB     92       POPC     H17R     HAL2     0.900000E-01   1.00800           0
     10421 MEMB     92       POPC     H17S     HAL2     0.900000E-01   1.00800           0
     10422 MEMB     92       POPC     C218     CTL3    -0.270000       12.0110           0
     10423 MEMB     92       POPC     H18R     HAL3     0.900000E-01   1.00800           0
     10424 MEMB     92       POPC     H18S     HAL3     0.900000E-01   1.00800           0
     10425 MEMB     92       POPC     H18T     HAL3     0.900000E-01   1.00800           0
     10426 MEMB     92       POPC     C33      CTL2    -0.180000       12.0110           0
     10427 MEMB     92       POPC     H3X      HAL2     0.900000E-01   1.00800           0
     10428 MEMB     92       POPC     H3Y      HAL2     0.900000E-01   1.00800           0
     10429 MEMB     92       POPC     C34      CTL2    -0.180000       12.0110           0
     10430 MEMB     92       POPC     H4X      HAL2     0.900000E-01   1.00800           0
     10431 MEMB     92       POPC     H4Y      HAL2     0.900000E-01   1.00800           0
     10432 MEMB     92       POPC     C35      CTL2    -0.180000       12.0110           0
     10433 MEMB     92       POPC     H5X      HAL2     0.900000E-01   1.00800           0
     10434 MEMB     92       POPC     H5Y      HAL2     0.900000E-01   1.00800           0
     10435 MEMB     92       POPC     C36      CTL2    -0.180000       12.0110           0
     10436 MEMB     92       POPC     H6X      HAL2     0.900000E-01   1.00800           0
     10437 MEMB     92       POPC     H6Y      HAL2     0.900000E-01   1.00800           0
     10438 MEMB     92       POPC     C37      CTL2    -0.180000       12.0110           0
     10439 MEMB     92       POPC     H7X      HAL2     0.900000E-01   1.00800           0
     10440 MEMB     92       POPC     H7Y      HAL2     0.900000E-01   1.00800           0
     10441 MEMB     92       POPC     C38      CTL2    -0.180000       12.0110           0
     10442 MEMB     92       POPC     H8X      HAL2     0.900000E-01   1.00800           0
     10443 MEMB     92       POPC     H8Y      HAL2     0.900000E-01   1.00800           0
     10444 MEMB     92       POPC     C39      CTL2    -0.180000       12.0110           0
     10445 MEMB     92       POPC     H9X      HAL2     0.900000E-01   1.00800           0
     10446 MEMB     92       POPC     H9Y      HAL2     0.900000E-01   1.00800           0
     10447 MEMB     92       POPC     C310     CTL2    -0.180000       12.0110           0
     10448 MEMB     92       POPC     H10X     HAL2     0.900000E-01   1.00800           0
     10449 MEMB     92       POPC     H10Y     HAL2     0.900000E-01   1.00800           0
     10450 MEMB     92       POPC     C311     CTL2    -0.180000       12.0110           0
     10451 MEMB     92       POPC     H11X     HAL2     0.900000E-01   1.00800           0
     10452 MEMB     92       POPC     H11Y     HAL2     0.900000E-01   1.00800           0
     10453 MEMB     92       POPC     C312     CTL2    -0.180000       12.0110           0
     10454 MEMB     92       POPC     H12X     HAL2     0.900000E-01   1.00800           0
     10455 MEMB     92       POPC     H12Y     HAL2     0.900000E-01   1.00800           0
     10456 MEMB     92       POPC     C313     CTL2    -0.180000       12.0110           0
     10457 MEMB     92       POPC     H13X     HAL2     0.900000E-01   1.00800           0
     10458 MEMB     92       POPC     H13Y     HAL2     0.900000E-01   1.00800           0
     10459 MEMB     92       POPC     C314     CTL2    -0.180000       12.0110           0
     10460 MEMB     92       POPC     H14X     HAL2     0.900000E-01   1.00800           0
     10461 MEMB     92       POPC     H14Y     HAL2     0.900000E-01   1.00800           0
     10462 MEMB     92       POPC     C315     CTL2    -0.180000       12.0110           0
     10463 MEMB     92       POPC     H15X     HAL2     0.900000E-01   1.00800           0
     10464 MEMB     92       POPC     H15Y     HAL2     0.900000E-01   1.00800           0
     10465 MEMB     92       POPC     C316     CTL3    -0.270000       12.0110           0
     10466 MEMB     92       POPC     H16X     HAL3     0.900000E-01   1.00800           0
     10467 MEMB     92       POPC     H16Y     HAL3     0.900000E-01   1.00800           0
     10468 MEMB     92       POPC     H16Z     HAL3     0.900000E-01   1.00800           0
     10469 MEMB     93       POPC     N        NTL     -0.600000       14.0070           0
     10470 MEMB     93       POPC     C12      CTL2    -0.100000       12.0110           0
     10471 MEMB     93       POPC     H12A     HL       0.250000       1.00800           0
     10472 MEMB     93       POPC     H12B     HL       0.250000       1.00800           0
     10473 MEMB     93       POPC     C13      CTL5    -0.350000       12.0110           0
     10474 MEMB     93       POPC     H13A     HL       0.250000       1.00800           0
     10475 MEMB     93       POPC     H13B     HL       0.250000       1.00800           0
     10476 MEMB     93       POPC     H13C     HL       0.250000       1.00800           0
     10477 MEMB     93       POPC     C14      CTL5    -0.350000       12.0110           0
     10478 MEMB     93       POPC     H14A     HL       0.250000       1.00800           0
     10479 MEMB     93       POPC     H14B     HL       0.250000       1.00800           0
     10480 MEMB     93       POPC     H14C     HL       0.250000       1.00800           0
     10481 MEMB     93       POPC     C15      CTL5    -0.350000       12.0110           0
     10482 MEMB     93       POPC     H15A     HL       0.250000       1.00800           0
     10483 MEMB     93       POPC     H15B     HL       0.250000       1.00800           0
     10484 MEMB     93       POPC     H15C     HL       0.250000       1.00800           0
     10485 MEMB     93       POPC     C11      CTL2    -0.800000E-01   12.0110           0
     10486 MEMB     93       POPC     H11A     HAL2     0.900000E-01   1.00800           0
     10487 MEMB     93       POPC     H11B     HAL2     0.900000E-01   1.00800           0
     10488 MEMB     93       POPC     P        PL        1.50000       30.9740           0
     10489 MEMB     93       POPC     O13      O2L     -0.780000       15.9994           0
     10490 MEMB     93       POPC     O14      O2L     -0.780000       15.9994           0
     10491 MEMB     93       POPC     O12      OSLP    -0.570000       15.9994           0
     10492 MEMB     93       POPC     O11      OSLP    -0.570000       15.9994           0
     10493 MEMB     93       POPC     C1       CTL2    -0.800000E-01   12.0110           0
     10494 MEMB     93       POPC     HA       HAL2     0.900000E-01   1.00800           0
     10495 MEMB     93       POPC     HB       HAL2     0.900000E-01   1.00800           0
     10496 MEMB     93       POPC     C2       CTL1     0.170000       12.0110           0
     10497 MEMB     93       POPC     HS       HAL1     0.900000E-01   1.00800           0
     10498 MEMB     93       POPC     O21      OSL     -0.490000       15.9994           0
     10499 MEMB     93       POPC     C21      CL       0.900000       12.0110           0
     10500 MEMB     93       POPC     O22      OBL     -0.630000       15.9994           0
     10501 MEMB     93       POPC     C22      CTL2    -0.220000       12.0110           0
     10502 MEMB     93       POPC     H2R      HAL2     0.900000E-01   1.00800           0
     10503 MEMB     93       POPC     H2S      HAL2     0.900000E-01   1.00800           0
     10504 MEMB     93       POPC     C3       CTL2     0.800000E-01   12.0110           0
     10505 MEMB     93       POPC     HX       HAL2     0.900000E-01   1.00800           0
     10506 MEMB     93       POPC     HY       HAL2     0.900000E-01   1.00800           0
     10507 MEMB     93       POPC     O31      OSL     -0.490000       15.9994           0
     10508 MEMB     93       POPC     C31      CL       0.900000       12.0110           0
     10509 MEMB     93       POPC     O32      OBL     -0.630000       15.9994           0
     10510 MEMB     93       POPC     C32      CTL2    -0.220000       12.0110           0
     10511 MEMB     93       POPC     H2X      HAL2     0.900000E-01   1.00800           0
     10512 MEMB     93       POPC     H2Y      HAL2     0.900000E-01   1.00800           0
     10513 MEMB     93       POPC     C23      CTL2    -0.180000       12.0110           0
     10514 MEMB     93       POPC     H3R      HAL2     0.900000E-01   1.00800           0
     10515 MEMB     93       POPC     H3S      HAL2     0.900000E-01   1.00800           0
     10516 MEMB     93       POPC     C24      CTL2    -0.180000       12.0110           0
     10517 MEMB     93       POPC     H4R      HAL2     0.900000E-01   1.00800           0
     10518 MEMB     93       POPC     H4S      HAL2     0.900000E-01   1.00800           0
     10519 MEMB     93       POPC     C25      CTL2    -0.180000       12.0110           0
     10520 MEMB     93       POPC     H5R      HAL2     0.900000E-01   1.00800           0
     10521 MEMB     93       POPC     H5S      HAL2     0.900000E-01   1.00800           0
     10522 MEMB     93       POPC     C26      CTL2    -0.180000       12.0110           0
     10523 MEMB     93       POPC     H6R      HAL2     0.900000E-01   1.00800           0
     10524 MEMB     93       POPC     H6S      HAL2     0.900000E-01   1.00800           0
     10525 MEMB     93       POPC     C27      CTL2    -0.180000       12.0110           0
     10526 MEMB     93       POPC     H7R      HAL2     0.900000E-01   1.00800           0
     10527 MEMB     93       POPC     H7S      HAL2     0.900000E-01   1.00800           0
     10528 MEMB     93       POPC     C28      CTL2    -0.180000       12.0110           0
     10529 MEMB     93       POPC     H8R      HAL2     0.900000E-01   1.00800           0
     10530 MEMB     93       POPC     H8S      HAL2     0.900000E-01   1.00800           0
     10531 MEMB     93       POPC     C29      CEL1    -0.150000       12.0110           0
     10532 MEMB     93       POPC     H91      HEL1     0.150000       1.00800           0
     10533 MEMB     93       POPC     C210     CEL1    -0.150000       12.0110           0
     10534 MEMB     93       POPC     H101     HEL1     0.150000       1.00800           0
     10535 MEMB     93       POPC     C211     CTL2    -0.180000       12.0110           0
     10536 MEMB     93       POPC     H11R     HAL2     0.900000E-01   1.00800           0
     10537 MEMB     93       POPC     H11S     HAL2     0.900000E-01   1.00800           0
     10538 MEMB     93       POPC     C212     CTL2    -0.180000       12.0110           0
     10539 MEMB     93       POPC     H12R     HAL2     0.900000E-01   1.00800           0
     10540 MEMB     93       POPC     H12S     HAL2     0.900000E-01   1.00800           0
     10541 MEMB     93       POPC     C213     CTL2    -0.180000       12.0110           0
     10542 MEMB     93       POPC     H13R     HAL2     0.900000E-01   1.00800           0
     10543 MEMB     93       POPC     H13S     HAL2     0.900000E-01   1.00800           0
     10544 MEMB     93       POPC     C214     CTL2    -0.180000       12.0110           0
     10545 MEMB     93       POPC     H14R     HAL2     0.900000E-01   1.00800           0
     10546 MEMB     93       POPC     H14S     HAL2     0.900000E-01   1.00800           0
     10547 MEMB     93       POPC     C215     CTL2    -0.180000       12.0110           0
     10548 MEMB     93       POPC     H15R     HAL2     0.900000E-01   1.00800           0
     10549 MEMB     93       POPC     H15S     HAL2     0.900000E-01   1.00800           0
     10550 MEMB     93       POPC     C216     CTL2    -0.180000       12.0110           0
     10551 MEMB     93       POPC     H16R     HAL2     0.900000E-01   1.00800           0
     10552 MEMB     93       POPC     H16S     HAL2     0.900000E-01   1.00800           0
     10553 MEMB     93       POPC     C217     CTL2    -0.180000       12.0110           0
     10554 MEMB     93       POPC     H17R     HAL2     0.900000E-01   1.00800           0
     10555 MEMB     93       POPC     H17S     HAL2     0.900000E-01   1.00800           0
     10556 MEMB     93       POPC     C218     CTL3    -0.270000       12.0110           0
     10557 MEMB     93       POPC     H18R     HAL3     0.900000E-01   1.00800           0
     10558 MEMB     93       POPC     H18S     HAL3     0.900000E-01   1.00800           0
     10559 MEMB     93       POPC     H18T     HAL3     0.900000E-01   1.00800           0
     10560 MEMB     93       POPC     C33      CTL2    -0.180000       12.0110           0
     10561 MEMB     93       POPC     H3X      HAL2     0.900000E-01   1.00800           0
     10562 MEMB     93       POPC     H3Y      HAL2     0.900000E-01   1.00800           0
     10563 MEMB     93       POPC     C34      CTL2    -0.180000       12.0110           0
     10564 MEMB     93       POPC     H4X      HAL2     0.900000E-01   1.00800           0
     10565 MEMB     93       POPC     H4Y      HAL2     0.900000E-01   1.00800           0
     10566 MEMB     93       POPC     C35      CTL2    -0.180000       12.0110           0
     10567 MEMB     93       POPC     H5X      HAL2     0.900000E-01   1.00800           0
     10568 MEMB     93       POPC     H5Y      HAL2     0.900000E-01   1.00800           0
     10569 MEMB     93       POPC     C36      CTL2    -0.180000       12.0110           0
     10570 MEMB     93       POPC     H6X      HAL2     0.900000E-01   1.00800           0
     10571 MEMB     93       POPC     H6Y      HAL2     0.900000E-01   1.00800           0
     10572 MEMB     93       POPC     C37      CTL2    -0.180000       12.0110           0
     10573 MEMB     93       POPC     H7X      HAL2     0.900000E-01   1.00800           0
     10574 MEMB     93       POPC     H7Y      HAL2     0.900000E-01   1.00800           0
     10575 MEMB     93       POPC     C38      CTL2    -0.180000       12.0110           0
     10576 MEMB     93       POPC     H8X      HAL2     0.900000E-01   1.00800           0
     10577 MEMB     93       POPC     H8Y      HAL2     0.900000E-01   1.00800           0
     10578 MEMB     93       POPC     C39      CTL2    -0.180000       12.0110           0
     10579 MEMB     93       POPC     H9X      HAL2     0.900000E-01   1.00800           0
     10580 MEMB     93       POPC     H9Y      HAL2     0.900000E-01   1.00800           0
     10581 MEMB     93       POPC     C310     CTL2    -0.180000       12.0110           0
     10582 MEMB     93       POPC     H10X     HAL2     0.900000E-01   1.00800           0
     10583 MEMB     93       POPC     H10Y     HAL2     0.900000E-01   1.00800           0
     10584 MEMB     93       POPC     C311     CTL2    -0.180000       12.0110           0
     10585 MEMB     93       POPC     H11X     HAL2     0.900000E-01   1.00800           0
     10586 MEMB     93       POPC     H11Y     HAL2     0.900000E-01   1.00800           0
     10587 MEMB     93       POPC     C312     CTL2    -0.180000       12.0110           0
     10588 MEMB     93       POPC     H12X     HAL2     0.900000E-01   1.00800           0
     10589 MEMB     93       POPC     H12Y     HAL2     0.900000E-01   1.00800           0
     10590 MEMB     93       POPC     C313     CTL2    -0.180000       12.0110           0
     10591 MEMB     93       POPC     H13X     HAL2     0.900000E-01   1.00800           0
     10592 MEMB     93       POPC     H13Y     HAL2     0.900000E-01   1.00800           0
     10593 MEMB     93       POPC     C314     CTL2    -0.180000       12.0110           0
     10594 MEMB     93       POPC     H14X     HAL2     0.900000E-01   1.00800           0
     10595 MEMB     93       POPC     H14Y     HAL2     0.900000E-01   1.00800           0
     10596 MEMB     93       POPC     C315     CTL2    -0.180000       12.0110           0
     10597 MEMB     93       POPC     H15X     HAL2     0.900000E-01   1.00800           0
     10598 MEMB     93       POPC     H15Y     HAL2     0.900000E-01   1.00800           0
     10599 MEMB     93       POPC     C316     CTL3    -0.270000       12.0110           0
     10600 MEMB     93       POPC     H16X     HAL3     0.900000E-01   1.00800           0
     10601 MEMB     93       POPC     H16Y     HAL3     0.900000E-01   1.00800           0
     10602 MEMB     93       POPC     H16Z     HAL3     0.900000E-01   1.00800           0
     10603 MEMB     94       POPC     N        NTL     -0.600000       14.0070           0
     10604 MEMB     94       POPC     C12      CTL2    -0.100000       12.0110           0
     10605 MEMB     94       POPC     H12A     HL       0.250000       1.00800           0
     10606 MEMB     94       POPC     H12B     HL       0.250000       1.00800           0
     10607 MEMB     94       POPC     C13      CTL5    -0.350000       12.0110           0
     10608 MEMB     94       POPC     H13A     HL       0.250000       1.00800           0
     10609 MEMB     94       POPC     H13B     HL       0.250000       1.00800           0
     10610 MEMB     94       POPC     H13C     HL       0.250000       1.00800           0
     10611 MEMB     94       POPC     C14      CTL5    -0.350000       12.0110           0
     10612 MEMB     94       POPC     H14A     HL       0.250000       1.00800           0
     10613 MEMB     94       POPC     H14B     HL       0.250000       1.00800           0
     10614 MEMB     94       POPC     H14C     HL       0.250000       1.00800           0
     10615 MEMB     94       POPC     C15      CTL5    -0.350000       12.0110           0
     10616 MEMB     94       POPC     H15A     HL       0.250000       1.00800           0
     10617 MEMB     94       POPC     H15B     HL       0.250000       1.00800           0
     10618 MEMB     94       POPC     H15C     HL       0.250000       1.00800           0
     10619 MEMB     94       POPC     C11      CTL2    -0.800000E-01   12.0110           0
     10620 MEMB     94       POPC     H11A     HAL2     0.900000E-01   1.00800           0
     10621 MEMB     94       POPC     H11B     HAL2     0.900000E-01   1.00800           0
     10622 MEMB     94       POPC     P        PL        1.50000       30.9740           0
     10623 MEMB     94       POPC     O13      O2L     -0.780000       15.9994           0
     10624 MEMB     94       POPC     O14      O2L     -0.780000       15.9994           0
     10625 MEMB     94       POPC     O12      OSLP    -0.570000       15.9994           0
     10626 MEMB     94       POPC     O11      OSLP    -0.570000       15.9994           0
     10627 MEMB     94       POPC     C1       CTL2    -0.800000E-01   12.0110           0
     10628 MEMB     94       POPC     HA       HAL2     0.900000E-01   1.00800           0
     10629 MEMB     94       POPC     HB       HAL2     0.900000E-01   1.00800           0
     10630 MEMB     94       POPC     C2       CTL1     0.170000       12.0110           0
     10631 MEMB     94       POPC     HS       HAL1     0.900000E-01   1.00800           0
     10632 MEMB     94       POPC     O21      OSL     -0.490000       15.9994           0
     10633 MEMB     94       POPC     C21      CL       0.900000       12.0110           0
     10634 MEMB     94       POPC     O22      OBL     -0.630000       15.9994           0
     10635 MEMB     94       POPC     C22      CTL2    -0.220000       12.0110           0
     10636 MEMB     94       POPC     H2R      HAL2     0.900000E-01   1.00800           0
     10637 MEMB     94       POPC     H2S      HAL2     0.900000E-01   1.00800           0
     10638 MEMB     94       POPC     C3       CTL2     0.800000E-01   12.0110           0
     10639 MEMB     94       POPC     HX       HAL2     0.900000E-01   1.00800           0
     10640 MEMB     94       POPC     HY       HAL2     0.900000E-01   1.00800           0
     10641 MEMB     94       POPC     O31      OSL     -0.490000       15.9994           0
     10642 MEMB     94       POPC     C31      CL       0.900000       12.0110           0
     10643 MEMB     94       POPC     O32      OBL     -0.630000       15.9994           0
     10644 MEMB     94       POPC     C32      CTL2    -0.220000       12.0110           0
     10645 MEMB     94       POPC     H2X      HAL2     0.900000E-01   1.00800           0
     10646 MEMB     94       POPC     H2Y      HAL2     0.900000E-01   1.00800           0
     10647 MEMB     94       POPC     C23      CTL2    -0.180000       12.0110           0
     10648 MEMB     94       POPC     H3R      HAL2     0.900000E-01   1.00800           0
     10649 MEMB     94       POPC     H3S      HAL2     0.900000E-01   1.00800           0
     10650 MEMB     94       POPC     C24      CTL2    -0.180000       12.0110           0
     10651 MEMB     94       POPC     H4R      HAL2     0.900000E-01   1.00800           0
     10652 MEMB     94       POPC     H4S      HAL2     0.900000E-01   1.00800           0
     10653 MEMB     94       POPC     C25      CTL2    -0.180000       12.0110           0
     10654 MEMB     94       POPC     H5R      HAL2     0.900000E-01   1.00800           0
     10655 MEMB     94       POPC     H5S      HAL2     0.900000E-01   1.00800           0
     10656 MEMB     94       POPC     C26      CTL2    -0.180000       12.0110           0
     10657 MEMB     94       POPC     H6R      HAL2     0.900000E-01   1.00800           0
     10658 MEMB     94       POPC     H6S      HAL2     0.900000E-01   1.00800           0
     10659 MEMB     94       POPC     C27      CTL2    -0.180000       12.0110           0
     10660 MEMB     94       POPC     H7R      HAL2     0.900000E-01   1.00800           0
     10661 MEMB     94       POPC     H7S      HAL2     0.900000E-01   1.00800           0
     10662 MEMB     94       POPC     C28      CTL2    -0.180000       12.0110           0
     10663 MEMB     94       POPC     H8R      HAL2     0.900000E-01   1.00800           0
     10664 MEMB     94       POPC     H8S      HAL2     0.900000E-01   1.00800           0
     10665 MEMB     94       POPC     C29      CEL1    -0.150000       12.0110           0
     10666 MEMB     94       POPC     H91      HEL1     0.150000       1.00800           0
     10667 MEMB     94       POPC     C210     CEL1    -0.150000       12.0110           0
     10668 MEMB     94       POPC     H101     HEL1     0.150000       1.00800           0
     10669 MEMB     94       POPC     C211     CTL2    -0.180000       12.0110           0
     10670 MEMB     94       POPC     H11R     HAL2     0.900000E-01   1.00800           0
     10671 MEMB     94       POPC     H11S     HAL2     0.900000E-01   1.00800           0
     10672 MEMB     94       POPC     C212     CTL2    -0.180000       12.0110           0
     10673 MEMB     94       POPC     H12R     HAL2     0.900000E-01   1.00800           0
     10674 MEMB     94       POPC     H12S     HAL2     0.900000E-01   1.00800           0
     10675 MEMB     94       POPC     C213     CTL2    -0.180000       12.0110           0
     10676 MEMB     94       POPC     H13R     HAL2     0.900000E-01   1.00800           0
     10677 MEMB     94       POPC     H13S     HAL2     0.900000E-01   1.00800           0
     10678 MEMB     94       POPC     C214     CTL2    -0.180000       12.0110           0
     10679 MEMB     94       POPC     H14R     HAL2     0.900000E-01   1.00800           0
     10680 MEMB     94       POPC     H14S     HAL2     0.900000E-01   1.00800           0
     10681 MEMB     94       POPC     C215     CTL2    -0.180000       12.0110           0
     10682 MEMB     94       POPC     H15R     HAL2     0.900000E-01   1.00800           0
     10683 MEMB     94       POPC     H15S     HAL2     0.900000E-01   1.00800           0
     10684 MEMB     94       POPC     C216     CTL2    -0.180000       12.0110           0
     10685 MEMB     94       POPC     H16R     HAL2     0.900000E-01   1.00800           0
     10686 MEMB     94       POPC     H16S     HAL2     0.900000E-01   1.00800           0
     10687 MEMB     94       POPC     C217     CTL2    -0.180000       12.0110           0
     10688 MEMB     94       POPC     H17R     HAL2     0.900000E-01   1.00800           0
     10689 MEMB     94       POPC     H17S     HAL2     0.900000E-01   1.00800           0
     10690 MEMB     94       POPC     C218     CTL3    -0.270000       12.0110           0
     10691 MEMB     94       POPC     H18R     HAL3     0.900000E-01   1.00800           0
     10692 MEMB     94       POPC     H18S     HAL3     0.900000E-01   1.00800           0
     10693 MEMB     94       POPC     H18T     HAL3     0.900000E-01   1.00800           0
     10694 MEMB     94       POPC     C33      CTL2    -0.180000       12.0110           0
     10695 MEMB     94       POPC     H3X      HAL2     0.900000E-01   1.00800           0
     10696 MEMB     94       POPC     H3Y      HAL2     0.900000E-01   1.00800           0
     10697 MEMB     94       POPC     C34      CTL2    -0.180000       12.0110           0
     10698 MEMB     94       POPC     H4X      HAL2     0.900000E-01   1.00800           0
     10699 MEMB     94       POPC     H4Y      HAL2     0.900000E-01   1.00800           0
     10700 MEMB     94       POPC     C35      CTL2    -0.180000       12.0110           0
     10701 MEMB     94       POPC     H5X      HAL2     0.900000E-01   1.00800           0
     10702 MEMB     94       POPC     H5Y      HAL2     0.900000E-01   1.00800           0
     10703 MEMB     94       POPC     C36      CTL2    -0.180000       12.0110           0
     10704 MEMB     94       POPC     H6X      HAL2     0.900000E-01   1.00800           0
     10705 MEMB     94       POPC     H6Y      HAL2     0.900000E-01   1.00800           0
     10706 MEMB     94       POPC     C37      CTL2    -0.180000       12.0110           0
     10707 MEMB     94       POPC     H7X      HAL2     0.900000E-01   1.00800           0
     10708 MEMB     94       POPC     H7Y      HAL2     0.900000E-01   1.00800           0
     10709 MEMB     94       POPC     C38      CTL2    -0.180000       12.0110           0
     10710 MEMB     94       POPC     H8X      HAL2     0.900000E-01   1.00800           0
     10711 MEMB     94       POPC     H8Y      HAL2     0.900000E-01   1.00800           0
     10712 MEMB     94       POPC     C39      CTL2    -0.180000       12.0110           0
     10713 MEMB     94       POPC     H9X      HAL2     0.900000E-01   1.00800           0
     10714 MEMB     94       POPC     H9Y      HAL2     0.900000E-01   1.00800           0
     10715 MEMB     94       POPC     C310     CTL2    -0.180000       12.0110           0
     10716 MEMB     94       POPC     H10X     HAL2     0.900000E-01   1.00800           0
     10717 MEMB     94       POPC     H10Y     HAL2     0.900000E-01   1.00800           0
     10718 MEMB     94       POPC     C311     CTL2    -0.180000       12.0110           0
     10719 MEMB     94       POPC     H11X     HAL2     0.900000E-01   1.00800           0
     10720 MEMB     94       POPC     H11Y     HAL2     0.900000E-01   1.00800           0
     10721 MEMB     94       POPC     C312     CTL2    -0.180000       12.0110           0
     10722 MEMB     94       POPC     H12X     HAL2     0.900000E-01   1.00800           0
     10723 MEMB     94       POPC     H12Y     HAL2     0.900000E-01   1.00800           0
     10724 MEMB     94       POPC     C313     CTL2    -0.180000       12.0110           0
     10725 MEMB     94       POPC     H13X     HAL2     0.900000E-01   1.00800           0
     10726 MEMB     94       POPC     H13Y     HAL2     0.900000E-01   1.00800           0
     10727 MEMB     94       POPC     C314     CTL2    -0.180000       12.0110           0
     10728 MEMB     94       POPC     H14X     HAL2     0.900000E-01   1.00800           0
     10729 MEMB     94       POPC     H14Y     HAL2     0.900000E-01   1.00800           0
     10730 MEMB     94       POPC     C315     CTL2    -0.180000       12.0110           0
     10731 MEMB     94       POPC     H15X     HAL2     0.900000E-01   1.00800           0
     10732 MEMB     94       POPC     H15Y     HAL2     0.900000E-01   1.00800           0
     10733 MEMB     94       POPC     C316     CTL3    -0.270000       12.0110           0
     10734 MEMB     94       POPC     H16X     HAL3     0.900000E-01   1.00800           0
     10735 MEMB     94       POPC     H16Y     HAL3     0.900000E-01   1.00800           0
     10736 MEMB     94       POPC     H16Z     HAL3     0.900000E-01   1.00800           0
     10737 MEMB     95       POPC     N        NTL     -0.600000       14.0070           0
     10738 MEMB     95       POPC     C12      CTL2    -0.100000       12.0110           0
     10739 MEMB     95       POPC     H12A     HL       0.250000       1.00800           0
     10740 MEMB     95       POPC     H12B     HL       0.250000       1.00800           0
     10741 MEMB     95       POPC     C13      CTL5    -0.350000       12.0110           0
     10742 MEMB     95       POPC     H13A     HL       0.250000       1.00800           0
     10743 MEMB     95       POPC     H13B     HL       0.250000       1.00800           0
     10744 MEMB     95       POPC     H13C     HL       0.250000       1.00800           0
     10745 MEMB     95       POPC     C14      CTL5    -0.350000       12.0110           0
     10746 MEMB     95       POPC     H14A     HL       0.250000       1.00800           0
     10747 MEMB     95       POPC     H14B     HL       0.250000       1.00800           0
     10748 MEMB     95       POPC     H14C     HL       0.250000       1.00800           0
     10749 MEMB     95       POPC     C15      CTL5    -0.350000       12.0110           0
     10750 MEMB     95       POPC     H15A     HL       0.250000       1.00800           0
     10751 MEMB     95       POPC     H15B     HL       0.250000       1.00800           0
     10752 MEMB     95       POPC     H15C     HL       0.250000       1.00800           0
     10753 MEMB     95       POPC     C11      CTL2    -0.800000E-01   12.0110           0
     10754 MEMB     95       POPC     H11A     HAL2     0.900000E-01   1.00800           0
     10755 MEMB     95       POPC     H11B     HAL2     0.900000E-01   1.00800           0
     10756 MEMB     95       POPC     P        PL        1.50000       30.9740           0
     10757 MEMB     95       POPC     O13      O2L     -0.780000       15.9994           0
     10758 MEMB     95       POPC     O14      O2L     -0.780000       15.9994           0
     10759 MEMB     95       POPC     O12      OSLP    -0.570000       15.9994           0
     10760 MEMB     95       POPC     O11      OSLP    -0.570000       15.9994           0
     10761 MEMB     95       POPC     C1       CTL2    -0.800000E-01   12.0110           0
     10762 MEMB     95       POPC     HA       HAL2     0.900000E-01   1.00800           0
     10763 MEMB     95       POPC     HB       HAL2     0.900000E-01   1.00800           0
     10764 MEMB     95       POPC     C2       CTL1     0.170000       12.0110           0
     10765 MEMB     95       POPC     HS       HAL1     0.900000E-01   1.00800           0
     10766 MEMB     95       POPC     O21      OSL     -0.490000       15.9994           0
     10767 MEMB     95       POPC     C21      CL       0.900000       12.0110           0
     10768 MEMB     95       POPC     O22      OBL     -0.630000       15.9994           0
     10769 MEMB     95       POPC     C22      CTL2    -0.220000       12.0110           0
     10770 MEMB     95       POPC     H2R      HAL2     0.900000E-01   1.00800           0
     10771 MEMB     95       POPC     H2S      HAL2     0.900000E-01   1.00800           0
     10772 MEMB     95       POPC     C3       CTL2     0.800000E-01   12.0110           0
     10773 MEMB     95       POPC     HX       HAL2     0.900000E-01   1.00800           0
     10774 MEMB     95       POPC     HY       HAL2     0.900000E-01   1.00800           0
     10775 MEMB     95       POPC     O31      OSL     -0.490000       15.9994           0
     10776 MEMB     95       POPC     C31      CL       0.900000       12.0110           0
     10777 MEMB     95       POPC     O32      OBL     -0.630000       15.9994           0
     10778 MEMB     95       POPC     C32      CTL2    -0.220000       12.0110           0
     10779 MEMB     95       POPC     H2X      HAL2     0.900000E-01   1.00800           0
     10780 MEMB     95       POPC     H2Y      HAL2     0.900000E-01   1.00800           0
     10781 MEMB     95       POPC     C23      CTL2    -0.180000       12.0110           0
     10782 MEMB     95       POPC     H3R      HAL2     0.900000E-01   1.00800           0
     10783 MEMB     95       POPC     H3S      HAL2     0.900000E-01   1.00800           0
     10784 MEMB     95       POPC     C24      CTL2    -0.180000       12.0110           0
     10785 MEMB     95       POPC     H4R      HAL2     0.900000E-01   1.00800           0
     10786 MEMB     95       POPC     H4S      HAL2     0.900000E-01   1.00800           0
     10787 MEMB     95       POPC     C25      CTL2    -0.180000       12.0110           0
     10788 MEMB     95       POPC     H5R      HAL2     0.900000E-01   1.00800           0
     10789 MEMB     95       POPC     H5S      HAL2     0.900000E-01   1.00800           0
     10790 MEMB     95       POPC     C26      CTL2    -0.180000       12.0110           0
     10791 MEMB     95       POPC     H6R      HAL2     0.900000E-01   1.00800           0
     10792 MEMB     95       POPC     H6S      HAL2     0.900000E-01   1.00800           0
     10793 MEMB     95       POPC     C27      CTL2    -0.180000       12.0110           0
     10794 MEMB     95       POPC     H7R      HAL2     0.900000E-01   1.00800           0
     10795 MEMB     95       POPC     H7S      HAL2     0.900000E-01   1.00800           0
     10796 MEMB     95       POPC     C28      CTL2    -0.180000       12.0110           0
     10797 MEMB     95       POPC     H8R      HAL2     0.900000E-01   1.00800           0
     10798 MEMB     95       POPC     H8S      HAL2     0.900000E-01   1.00800           0
     10799 MEMB     95       POPC     C29      CEL1    -0.150000       12.0110           0
     10800 MEMB     95       POPC     H91      HEL1     0.150000       1.00800           0
     10801 MEMB     95       POPC     C210     CEL1    -0.150000       12.0110           0
     10802 MEMB     95       POPC     H101     HEL1     0.150000       1.00800           0
     10803 MEMB     95       POPC     C211     CTL2    -0.180000       12.0110           0
     10804 MEMB     95       POPC     H11R     HAL2     0.900000E-01   1.00800           0
     10805 MEMB     95       POPC     H11S     HAL2     0.900000E-01   1.00800           0
     10806 MEMB     95       POPC     C212     CTL2    -0.180000       12.0110           0
     10807 MEMB     95       POPC     H12R     HAL2     0.900000E-01   1.00800           0
     10808 MEMB     95       POPC     H12S     HAL2     0.900000E-01   1.00800           0
     10809 MEMB     95       POPC     C213     CTL2    -0.180000       12.0110           0
     10810 MEMB     95       POPC     H13R     HAL2     0.900000E-01   1.00800           0
     10811 MEMB     95       POPC     H13S     HAL2     0.900000E-01   1.00800           0
     10812 MEMB     95       POPC     C214     CTL2    -0.180000       12.0110           0
     10813 MEMB     95       POPC     H14R     HAL2     0.900000E-01   1.00800           0
     10814 MEMB     95       POPC     H14S     HAL2     0.900000E-01   1.00800           0
     10815 MEMB     95       POPC     C215     CTL2    -0.180000       12.0110           0
     10816 MEMB     95       POPC     H15R     HAL2     0.900000E-01   1.00800           0
     10817 MEMB     95       POPC     H15S     HAL2     0.900000E-01   1.00800           0
     10818 MEMB     95       POPC     C216     CTL2    -0.180000       12.0110           0
     10819 MEMB     95       POPC     H16R     HAL2     0.900000E-01   1.00800           0
     10820 MEMB     95       POPC     H16S     HAL2     0.900000E-01   1.00800           0
     10821 MEMB     95       POPC     C217     CTL2    -0.180000       12.0110           0
     10822 MEMB     95       POPC     H17R     HAL2     0.900000E-01   1.00800           0
     10823 MEMB     95       POPC     H17S     HAL2     0.900000E-01   1.00800           0
     10824 MEMB     95       POPC     C218     CTL3    -0.270000       12.0110           0
     10825 MEMB     95       POPC     H18R     HAL3     0.900000E-01   1.00800           0
     10826 MEMB     95       POPC     H18S     HAL3     0.900000E-01   1.00800           0
     10827 MEMB     95       POPC     H18T     HAL3     0.900000E-01   1.00800           0
     10828 MEMB     95       POPC     C33      CTL2    -0.180000       12.0110           0
     10829 MEMB     95       POPC     H3X      HAL2     0.900000E-01   1.00800           0
     10830 MEMB     95       POPC     H3Y      HAL2     0.900000E-01   1.00800           0
     10831 MEMB     95       POPC     C34      CTL2    -0.180000       12.0110           0
     10832 MEMB     95       POPC     H4X      HAL2     0.900000E-01   1.00800           0
     10833 MEMB     95       POPC     H4Y      HAL2     0.900000E-01   1.00800           0
     10834 MEMB     95       POPC     C35      CTL2    -0.180000       12.0110           0
     10835 MEMB     95       POPC     H5X      HAL2     0.900000E-01   1.00800           0
     10836 MEMB     95       POPC     H5Y      HAL2     0.900000E-01   1.00800           0
     10837 MEMB     95       POPC     C36      CTL2    -0.180000       12.0110           0
     10838 MEMB     95       POPC     H6X      HAL2     0.900000E-01   1.00800           0
     10839 MEMB     95       POPC     H6Y      HAL2     0.900000E-01   1.00800           0
     10840 MEMB     95       POPC     C37      CTL2    -0.180000       12.0110           0
     10841 MEMB     95       POPC     H7X      HAL2     0.900000E-01   1.00800           0
     10842 MEMB     95       POPC     H7Y      HAL2     0.900000E-01   1.00800           0
     10843 MEMB     95       POPC     C38      CTL2    -0.180000       12.0110           0
     10844 MEMB     95       POPC     H8X      HAL2     0.900000E-01   1.00800           0
     10845 MEMB     95       POPC     H8Y      HAL2     0.900000E-01   1.00800           0
     10846 MEMB     95       POPC     C39      CTL2    -0.180000       12.0110           0
     10847 MEMB     95       POPC     H9X      HAL2     0.900000E-01   1.00800           0
     10848 MEMB     95       POPC     H9Y      HAL2     0.900000E-01   1.00800           0
     10849 MEMB     95       POPC     C310     CTL2    -0.180000       12.0110           0
     10850 MEMB     95       POPC     H10X     HAL2     0.900000E-01   1.00800           0
     10851 MEMB     95       POPC     H10Y     HAL2     0.900000E-01   1.00800           0
     10852 MEMB     95       POPC     C311     CTL2    -0.180000       12.0110           0
     10853 MEMB     95       POPC     H11X     HAL2     0.900000E-01   1.00800           0
     10854 MEMB     95       POPC     H11Y     HAL2     0.900000E-01   1.00800           0
     10855 MEMB     95       POPC     C312     CTL2    -0.180000       12.0110           0
     10856 MEMB     95       POPC     H12X     HAL2     0.900000E-01   1.00800           0
     10857 MEMB     95       POPC     H12Y     HAL2     0.900000E-01   1.00800           0
     10858 MEMB     95       POPC     C313     CTL2    -0.180000       12.0110           0
     10859 MEMB     95       POPC     H13X     HAL2     0.900000E-01   1.00800           0
     10860 MEMB     95       POPC     H13Y     HAL2     0.900000E-01   1.00800           0
     10861 MEMB     95       POPC     C314     CTL2    -0.180000       12.0110           0
     10862 MEMB     95       POPC     H14X     HAL2     0.900000E-01   1.00800           0
     10863 MEMB     95       POPC     H14Y     HAL2     0.900000E-01   1.00800           0
     10864 MEMB     95       POPC     C315     CTL2    -0.180000       12.0110           0
     10865 MEMB     95       POPC     H15X     HAL2     0.900000E-01   1.00800           0
     10866 MEMB     95       POPC     H15Y     HAL2     0.900000E-01   1.00800           0
     10867 MEMB     95       POPC     C316     CTL3    -0.270000       12.0110           0
     10868 MEMB     95       POPC     H16X     HAL3     0.900000E-01   1.00800           0
     10869 MEMB     95       POPC     H16Y     HAL3     0.900000E-01   1.00800           0
     10870 MEMB     95       POPC     H16Z     HAL3     0.900000E-01   1.00800           0
     10871 MEMB     96       POPC     N        NTL     -0.600000       14.0070           0
     10872 MEMB     96       POPC     C12      CTL2    -0.100000       12.0110           0
     10873 MEMB     96       POPC     H12A     HL       0.250000       1.00800           0
     10874 MEMB     96       POPC     H12B     HL       0.250000       1.00800           0
     10875 MEMB     96       POPC     C13      CTL5    -0.350000       12.0110           0
     10876 MEMB     96       POPC     H13A     HL       0.250000       1.00800           0
     10877 MEMB     96       POPC     H13B     HL       0.250000       1.00800           0
     10878 MEMB     96       POPC     H13C     HL       0.250000       1.00800           0
     10879 MEMB     96       POPC     C14      CTL5    -0.350000       12.0110           0
     10880 MEMB     96       POPC     H14A     HL       0.250000       1.00800           0
     10881 MEMB     96       POPC     H14B     HL       0.250000       1.00800           0
     10882 MEMB     96       POPC     H14C     HL       0.250000       1.00800           0
     10883 MEMB     96       POPC     C15      CTL5    -0.350000       12.0110           0
     10884 MEMB     96       POPC     H15A     HL       0.250000       1.00800           0
     10885 MEMB     96       POPC     H15B     HL       0.250000       1.00800           0
     10886 MEMB     96       POPC     H15C     HL       0.250000       1.00800           0
     10887 MEMB     96       POPC     C11      CTL2    -0.800000E-01   12.0110           0
     10888 MEMB     96       POPC     H11A     HAL2     0.900000E-01   1.00800           0
     10889 MEMB     96       POPC     H11B     HAL2     0.900000E-01   1.00800           0
     10890 MEMB     96       POPC     P        PL        1.50000       30.9740           0
     10891 MEMB     96       POPC     O13      O2L     -0.780000       15.9994           0
     10892 MEMB     96       POPC     O14      O2L     -0.780000       15.9994           0
     10893 MEMB     96       POPC     O12      OSLP    -0.570000       15.9994           0
     10894 MEMB     96       POPC     O11      OSLP    -0.570000       15.9994           0
     10895 MEMB     96       POPC     C1       CTL2    -0.800000E-01   12.0110           0
     10896 MEMB     96       POPC     HA       HAL2     0.900000E-01   1.00800           0
     10897 MEMB     96       POPC     HB       HAL2     0.900000E-01   1.00800           0
     10898 MEMB     96       POPC     C2       CTL1     0.170000       12.0110           0
     10899 MEMB     96       POPC     HS       HAL1     0.900000E-01   1.00800           0
     10900 MEMB     96       POPC     O21      OSL     -0.490000       15.9994           0
     10901 MEMB     96       POPC     C21      CL       0.900000       12.0110           0
     10902 MEMB     96       POPC     O22      OBL     -0.630000       15.9994           0
     10903 MEMB     96       POPC     C22      CTL2    -0.220000       12.0110           0
     10904 MEMB     96       POPC     H2R      HAL2     0.900000E-01   1.00800           0
     10905 MEMB     96       POPC     H2S      HAL2     0.900000E-01   1.00800           0
     10906 MEMB     96       POPC     C3       CTL2     0.800000E-01   12.0110           0
     10907 MEMB     96       POPC     HX       HAL2     0.900000E-01   1.00800           0
     10908 MEMB     96       POPC     HY       HAL2     0.900000E-01   1.00800           0
     10909 MEMB     96       POPC     O31      OSL     -0.490000       15.9994           0
     10910 MEMB     96       POPC     C31      CL       0.900000       12.0110           0
     10911 MEMB     96       POPC     O32      OBL     -0.630000       15.9994           0
     10912 MEMB     96       POPC     C32      CTL2    -0.220000       12.0110           0
     10913 MEMB     96       POPC     H2X      HAL2     0.900000E-01   1.00800           0
     10914 MEMB     96       POPC     H2Y      HAL2     0.900000E-01   1.00800           0
     10915 MEMB     96       POPC     C23      CTL2    -0.180000       12.0110           0
     10916 MEMB     96       POPC     H3R      HAL2     0.900000E-01   1.00800           0
     10917 MEMB     96       POPC     H3S      HAL2     0.900000E-01   1.00800           0
     10918 MEMB     96       POPC     C24      CTL2    -0.180000       12.0110           0
     10919 MEMB     96       POPC     H4R      HAL2     0.900000E-01   1.00800           0
     10920 MEMB     96       POPC     H4S      HAL2     0.900000E-01   1.00800           0
     10921 MEMB     96       POPC     C25      CTL2    -0.180000       12.0110           0
     10922 MEMB     96       POPC     H5R      HAL2     0.900000E-01   1.00800           0
     10923 MEMB     96       POPC     H5S      HAL2     0.900000E-01   1.00800           0
     10924 MEMB     96       POPC     C26      CTL2    -0.180000       12.0110           0
     10925 MEMB     96       POPC     H6R      HAL2     0.900000E-01   1.00800           0
     10926 MEMB     96       POPC     H6S      HAL2     0.900000E-01   1.00800           0
     10927 MEMB     96       POPC     C27      CTL2    -0.180000       12.0110           0
     10928 MEMB     96       POPC     H7R      HAL2     0.900000E-01   1.00800           0
     10929 MEMB     96       POPC     H7S      HAL2     0.900000E-01   1.00800           0
     10930 MEMB     96       POPC     C28      CTL2    -0.180000       12.0110           0
     10931 MEMB     96       POPC     H8R      HAL2     0.900000E-01   1.00800           0
     10932 MEMB     96       POPC     H8S      HAL2     0.900000E-01   1.00800           0
     10933 MEMB     96       POPC     C29      CEL1    -0.150000       12.0110           0
     10934 MEMB     96       POPC     H91      HEL1     0.150000       1.00800           0
     10935 MEMB     96       POPC     C210     CEL1    -0.150000       12.0110           0
     10936 MEMB     96       POPC     H101     HEL1     0.150000       1.00800           0
     10937 MEMB     96       POPC     C211     CTL2    -0.180000       12.0110           0
     10938 MEMB     96       POPC     H11R     HAL2     0.900000E-01   1.00800           0
     10939 MEMB     96       POPC     H11S     HAL2     0.900000E-01   1.00800           0
     10940 MEMB     96       POPC     C212     CTL2    -0.180000       12.0110           0
     10941 MEMB     96       POPC     H12R     HAL2     0.900000E-01   1.00800           0
     10942 MEMB     96       POPC     H12S     HAL2     0.900000E-01   1.00800           0
     10943 MEMB     96       POPC     C213     CTL2    -0.180000       12.0110           0
     10944 MEMB     96       POPC     H13R     HAL2     0.900000E-01   1.00800           0
     10945 MEMB     96       POPC     H13S     HAL2     0.900000E-01   1.00800           0
     10946 MEMB     96       POPC     C214     CTL2    -0.180000       12.0110           0
     10947 MEMB     96       POPC     H14R     HAL2     0.900000E-01   1.00800           0
     10948 MEMB     96       POPC     H14S     HAL2     0.900000E-01   1.00800           0
     10949 MEMB     96       POPC     C215     CTL2    -0.180000       12.0110           0
     10950 MEMB     96       POPC     H15R     HAL2     0.900000E-01   1.00800           0
     10951 MEMB     96       POPC     H15S     HAL2     0.900000E-01   1.00800           0
     10952 MEMB     96       POPC     C216     CTL2    -0.180000       12.0110           0
     10953 MEMB     96       POPC     H16R     HAL2     0.900000E-01   1.00800           0
     10954 MEMB     96       POPC     H16S     HAL2     0.900000E-01   1.00800           0
     10955 MEMB     96       POPC     C217     CTL2    -0.180000       12.0110           0
     10956 MEMB     96       POPC     H17R     HAL2     0.900000E-01   1.00800           0
     10957 MEMB     96       POPC     H17S     HAL2     0.900000E-01   1.00800           0
     10958 MEMB     96       POPC     C218     CTL3    -0.270000       12.0110           0
     10959 MEMB     96       POPC     H18R     HAL3     0.900000E-01   1.00800           0
     10960 MEMB     96       POPC     H18S     HAL3     0.900000E-01   1.00800           0
     10961 MEMB     96       POPC     H18T     HAL3     0.900000E-01   1.00800           0
     10962 MEMB     96       POPC     C33      CTL2    -0.180000       12.0110           0
     10963 MEMB     96       POPC     H3X      HAL2     0.900000E-01   1.00800           0
     10964 MEMB     96       POPC     H3Y      HAL2     0.900000E-01   1.00800           0
     10965 MEMB     96       POPC     C34      CTL2    -0.180000       12.0110           0
     10966 MEMB     96       POPC     H4X      HAL2     0.900000E-01   1.00800           0
     10967 MEMB     96       POPC     H4Y      HAL2     0.900000E-01   1.00800           0
     10968 MEMB     96       POPC     C35      CTL2    -0.180000       12.0110           0
     10969 MEMB     96       POPC     H5X      HAL2     0.900000E-01   1.00800           0
     10970 MEMB     96       POPC     H5Y      HAL2     0.900000E-01   1.00800           0
     10971 MEMB     96       POPC     C36      CTL2    -0.180000       12.0110           0
     10972 MEMB     96       POPC     H6X      HAL2     0.900000E-01   1.00800           0
     10973 MEMB     96       POPC     H6Y      HAL2     0.900000E-01   1.00800           0
     10974 MEMB     96       POPC     C37      CTL2    -0.180000       12.0110           0
     10975 MEMB     96       POPC     H7X      HAL2     0.900000E-01   1.00800           0
     10976 MEMB     96       POPC     H7Y      HAL2     0.900000E-01   1.00800           0
     10977 MEMB     96       POPC     C38      CTL2    -0.180000       12.0110           0
     10978 MEMB     96       POPC     H8X      HAL2     0.900000E-01   1.00800           0
     10979 MEMB     96       POPC     H8Y      HAL2     0.900000E-01   1.00800           0
     10980 MEMB     96       POPC     C39      CTL2    -0.180000       12.0110           0
     10981 MEMB     96       POPC     H9X      HAL2     0.900000E-01   1.00800           0
     10982 MEMB     96       POPC     H9Y      HAL2     0.900000E-01   1.00800           0
     10983 MEMB     96       POPC     C310     CTL2    -0.180000       12.0110           0
     10984 MEMB     96       POPC     H10X     HAL2     0.900000E-01   1.00800           0
     10985 MEMB     96       POPC     H10Y     HAL2     0.900000E-01   1.00800           0
     10986 MEMB     96       POPC     C311     CTL2    -0.180000       12.0110           0
     10987 MEMB     96       POPC     H11X     HAL2     0.900000E-01   1.00800           0
     10988 MEMB     96       POPC     H11Y     HAL2     0.900000E-01   1.00800           0
     10989 MEMB     96       POPC     C312     CTL2    -0.180000       12.0110           0
     10990 MEMB     96       POPC     H12X     HAL2     0.900000E-01   1.00800           0
     10991 MEMB     96       POPC     H12Y     HAL2     0.900000E-01   1.00800           0
     10992 MEMB     96       POPC     C313     CTL2    -0.180000       12.0110           0
     10993 MEMB     96       POPC     H13X     HAL2     0.900000E-01   1.00800           0
     10994 MEMB     96       POPC     H13Y     HAL2     0.900000E-01   1.00800           0
     10995 MEMB     96       POPC     C314     CTL2    -0.180000       12.0110           0
     10996 MEMB     96       POPC     H14X     HAL2     0.900000E-01   1.00800           0
     10997 MEMB     96       POPC     H14Y     HAL2     0.900000E-01   1.00800           0
     10998 MEMB     96       POPC     C315     CTL2    -0.180000       12.0110           0
     10999 MEMB     96       POPC     H15X     HAL2     0.900000E-01   1.00800           0
     11000 MEMB     96       POPC     H15Y     HAL2     0.900000E-01   1.00800           0
     11001 MEMB     96       POPC     C316     CTL3    -0.270000       12.0110           0
     11002 MEMB     96       POPC     H16X     HAL3     0.900000E-01   1.00800           0
     11003 MEMB     96       POPC     H16Y     HAL3     0.900000E-01   1.00800           0
     11004 MEMB     96       POPC     H16Z     HAL3     0.900000E-01   1.00800           0
     11005 MEMB     97       POPC     N        NTL     -0.600000       14.0070           0
     11006 MEMB     97       POPC     C12      CTL2    -0.100000       12.0110           0
     11007 MEMB     97       POPC     H12A     HL       0.250000       1.00800           0
     11008 MEMB     97       POPC     H12B     HL       0.250000       1.00800           0
     11009 MEMB     97       POPC     C13      CTL5    -0.350000       12.0110           0
     11010 MEMB     97       POPC     H13A     HL       0.250000       1.00800           0
     11011 MEMB     97       POPC     H13B     HL       0.250000       1.00800           0
     11012 MEMB     97       POPC     H13C     HL       0.250000       1.00800           0
     11013 MEMB     97       POPC     C14      CTL5    -0.350000       12.0110           0
     11014 MEMB     97       POPC     H14A     HL       0.250000       1.00800           0
     11015 MEMB     97       POPC     H14B     HL       0.250000       1.00800           0
     11016 MEMB     97       POPC     H14C     HL       0.250000       1.00800           0
     11017 MEMB     97       POPC     C15      CTL5    -0.350000       12.0110           0
     11018 MEMB     97       POPC     H15A     HL       0.250000       1.00800           0
     11019 MEMB     97       POPC     H15B     HL       0.250000       1.00800           0
     11020 MEMB     97       POPC     H15C     HL       0.250000       1.00800           0
     11021 MEMB     97       POPC     C11      CTL2    -0.800000E-01   12.0110           0
     11022 MEMB     97       POPC     H11A     HAL2     0.900000E-01   1.00800           0
     11023 MEMB     97       POPC     H11B     HAL2     0.900000E-01   1.00800           0
     11024 MEMB     97       POPC     P        PL        1.50000       30.9740           0
     11025 MEMB     97       POPC     O13      O2L     -0.780000       15.9994           0
     11026 MEMB     97       POPC     O14      O2L     -0.780000       15.9994           0
     11027 MEMB     97       POPC     O12      OSLP    -0.570000       15.9994           0
     11028 MEMB     97       POPC     O11      OSLP    -0.570000       15.9994           0
     11029 MEMB     97       POPC     C1       CTL2    -0.800000E-01   12.0110           0
     11030 MEMB     97       POPC     HA       HAL2     0.900000E-01   1.00800           0
     11031 MEMB     97       POPC     HB       HAL2     0.900000E-01   1.00800           0
     11032 MEMB     97       POPC     C2       CTL1     0.170000       12.0110           0
     11033 MEMB     97       POPC     HS       HAL1     0.900000E-01   1.00800           0
     11034 MEMB     97       POPC     O21      OSL     -0.490000       15.9994           0
     11035 MEMB     97       POPC     C21      CL       0.900000       12.0110           0
     11036 MEMB     97       POPC     O22      OBL     -0.630000       15.9994           0
     11037 MEMB     97       POPC     C22      CTL2    -0.220000       12.0110           0
     11038 MEMB     97       POPC     H2R      HAL2     0.900000E-01   1.00800           0
     11039 MEMB     97       POPC     H2S      HAL2     0.900000E-01   1.00800           0
     11040 MEMB     97       POPC     C3       CTL2     0.800000E-01   12.0110           0
     11041 MEMB     97       POPC     HX       HAL2     0.900000E-01   1.00800           0
     11042 MEMB     97       POPC     HY       HAL2     0.900000E-01   1.00800           0
     11043 MEMB     97       POPC     O31      OSL     -0.490000       15.9994           0
     11044 MEMB     97       POPC     C31      CL       0.900000       12.0110           0
     11045 MEMB     97       POPC     O32      OBL     -0.630000       15.9994           0
     11046 MEMB     97       POPC     C32      CTL2    -0.220000       12.0110           0
     11047 MEMB     97       POPC     H2X      HAL2     0.900000E-01   1.00800           0
     11048 MEMB     97       POPC     H2Y      HAL2     0.900000E-01   1.00800           0
     11049 MEMB     97       POPC     C23      CTL2    -0.180000       12.0110           0
     11050 MEMB     97       POPC     H3R      HAL2     0.900000E-01   1.00800           0
     11051 MEMB     97       POPC     H3S      HAL2     0.900000E-01   1.00800           0
     11052 MEMB     97       POPC     C24      CTL2    -0.180000       12.0110           0
     11053 MEMB     97       POPC     H4R      HAL2     0.900000E-01   1.00800           0
     11054 MEMB     97       POPC     H4S      HAL2     0.900000E-01   1.00800           0
     11055 MEMB     97       POPC     C25      CTL2    -0.180000       12.0110           0
     11056 MEMB     97       POPC     H5R      HAL2     0.900000E-01   1.00800           0
     11057 MEMB     97       POPC     H5S      HAL2     0.900000E-01   1.00800           0
     11058 MEMB     97       POPC     C26      CTL2    -0.180000       12.0110           0
     11059 MEMB     97       POPC     H6R      HAL2     0.900000E-01   1.00800           0
     11060 MEMB     97       POPC     H6S      HAL2     0.900000E-01   1.00800           0
     11061 MEMB     97       POPC     C27      CTL2    -0.180000       12.0110           0
     11062 MEMB     97       POPC     H7R      HAL2     0.900000E-01   1.00800           0
     11063 MEMB     97       POPC     H7S      HAL2     0.900000E-01   1.00800           0
     11064 MEMB     97       POPC     C28      CTL2    -0.180000       12.0110           0
     11065 MEMB     97       POPC     H8R      HAL2     0.900000E-01   1.00800           0
     11066 MEMB     97       POPC     H8S      HAL2     0.900000E-01   1.00800           0
     11067 MEMB     97       POPC     C29      CEL1    -0.150000       12.0110           0
     11068 MEMB     97       POPC     H91      HEL1     0.150000       1.00800           0
     11069 MEMB     97       POPC     C210     CEL1    -0.150000       12.0110           0
     11070 MEMB     97       POPC     H101     HEL1     0.150000       1.00800           0
     11071 MEMB     97       POPC     C211     CTL2    -0.180000       12.0110           0
     11072 MEMB     97       POPC     H11R     HAL2     0.900000E-01   1.00800           0
     11073 MEMB     97       POPC     H11S     HAL2     0.900000E-01   1.00800           0
     11074 MEMB     97       POPC     C212     CTL2    -0.180000       12.0110           0
     11075 MEMB     97       POPC     H12R     HAL2     0.900000E-01   1.00800           0
     11076 MEMB     97       POPC     H12S     HAL2     0.900000E-01   1.00800           0
     11077 MEMB     97       POPC     C213     CTL2    -0.180000       12.0110           0
     11078 MEMB     97       POPC     H13R     HAL2     0.900000E-01   1.00800           0
     11079 MEMB     97       POPC     H13S     HAL2     0.900000E-01   1.00800           0
     11080 MEMB     97       POPC     C214     CTL2    -0.180000       12.0110           0
     11081 MEMB     97       POPC     H14R     HAL2     0.900000E-01   1.00800           0
     11082 MEMB     97       POPC     H14S     HAL2     0.900000E-01   1.00800           0
     11083 MEMB     97       POPC     C215     CTL2    -0.180000       12.0110           0
     11084 MEMB     97       POPC     H15R     HAL2     0.900000E-01   1.00800           0
     11085 MEMB     97       POPC     H15S     HAL2     0.900000E-01   1.00800           0
     11086 MEMB     97       POPC     C216     CTL2    -0.180000       12.0110           0
     11087 MEMB     97       POPC     H16R     HAL2     0.900000E-01   1.00800           0
     11088 MEMB     97       POPC     H16S     HAL2     0.900000E-01   1.00800           0
     11089 MEMB     97       POPC     C217     CTL2    -0.180000       12.0110           0
     11090 MEMB     97       POPC     H17R     HAL2     0.900000E-01   1.00800           0
     11091 MEMB     97       POPC     H17S     HAL2     0.900000E-01   1.00800           0
     11092 MEMB     97       POPC     C218     CTL3    -0.270000       12.0110           0
     11093 MEMB     97       POPC     H18R     HAL3     0.900000E-01   1.00800           0
     11094 MEMB     97       POPC     H18S     HAL3     0.900000E-01   1.00800           0
     11095 MEMB     97       POPC     H18T     HAL3     0.900000E-01   1.00800           0
     11096 MEMB     97       POPC     C33      CTL2    -0.180000       12.0110           0
     11097 MEMB     97       POPC     H3X      HAL2     0.900000E-01   1.00800           0
     11098 MEMB     97       POPC     H3Y      HAL2     0.900000E-01   1.00800           0
     11099 MEMB     97       POPC     C34      CTL2    -0.180000       12.0110           0
     11100 MEMB     97       POPC     H4X      HAL2     0.900000E-01   1.00800           0
     11101 MEMB     97       POPC     H4Y      HAL2     0.900000E-01   1.00800           0
     11102 MEMB     97       POPC     C35      CTL2    -0.180000       12.0110           0
     11103 MEMB     97       POPC     H5X      HAL2     0.900000E-01   1.00800           0
     11104 MEMB     97       POPC     H5Y      HAL2     0.900000E-01   1.00800           0
     11105 MEMB     97       POPC     C36      CTL2    -0.180000       12.0110           0
     11106 MEMB     97       POPC     H6X      HAL2     0.900000E-01   1.00800           0
     11107 MEMB     97       POPC     H6Y      HAL2     0.900000E-01   1.00800           0
     11108 MEMB     97       POPC     C37      CTL2    -0.180000       12.0110           0
     11109 MEMB     97       POPC     H7X      HAL2     0.900000E-01   1.00800           0
     11110 MEMB     97       POPC     H7Y      HAL2     0.900000E-01   1.00800           0
     11111 MEMB     97       POPC     C38      CTL2    -0.180000       12.0110           0
     11112 MEMB     97       POPC     H8X      HAL2     0.900000E-01   1.00800           0
     11113 MEMB     97       POPC     H8Y      HAL2     0.900000E-01   1.00800           0
     11114 MEMB     97       POPC     C39      CTL2    -0.180000       12.0110           0
     11115 MEMB     97       POPC     H9X      HAL2     0.900000E-01   1.00800           0
     11116 MEMB     97       POPC     H9Y      HAL2     0.900000E-01   1.00800           0
     11117 MEMB     97       POPC     C310     CTL2    -0.180000       12.0110           0
     11118 MEMB     97       POPC     H10X     HAL2     0.900000E-01   1.00800           0
     11119 MEMB     97       POPC     H10Y     HAL2     0.900000E-01   1.00800           0
     11120 MEMB     97       POPC     C311     CTL2    -0.180000       12.0110           0
     11121 MEMB     97       POPC     H11X     HAL2     0.900000E-01   1.00800           0
     11122 MEMB     97       POPC     H11Y     HAL2     0.900000E-01   1.00800           0
     11123 MEMB     97       POPC     C312     CTL2    -0.180000       12.0110           0
     11124 MEMB     97       POPC     H12X     HAL2     0.900000E-01   1.00800           0
     11125 MEMB     97       POPC     H12Y     HAL2     0.900000E-01   1.00800           0
     11126 MEMB     97       POPC     C313     CTL2    -0.180000       12.0110           0
     11127 MEMB     97       POPC     H13X     HAL2     0.900000E-01   1.00800           0
     11128 MEMB     97       POPC     H13Y     HAL2     0.900000E-01   1.00800           0
     11129 MEMB     97       POPC     C314     CTL2    -0.180000       12.0110           0
     11130 MEMB     97       POPC     H14X     HAL2     0.900000E-01   1.00800           0
     11131 MEMB     97       POPC     H14Y     HAL2     0.900000E-01   1.00800           0
     11132 MEMB     97       POPC     C315     CTL2    -0.180000       12.0110           0
     11133 MEMB     97       POPC     H15X     HAL2     0.900000E-01   1.00800           0
     11134 MEMB     97       POPC     H15Y     HAL2     0.900000E-01   1.00800           0
     11135 MEMB     97       POPC     C316     CTL3    -0.270000       12.0110           0
     11136 MEMB     97       POPC     H16X     HAL3     0.900000E-01   1.00800           0
     11137 MEMB     97       POPC     H16Y     HAL3     0.900000E-01   1.00800           0
     11138 MEMB     97       POPC     H16Z     HAL3     0.900000E-01   1.00800           0
     11139 MEMB     98       POPC     N        NTL     -0.600000       14.0070           0
     11140 MEMB     98       POPC     C12      CTL2    -0.100000       12.0110           0
     11141 MEMB     98       POPC     H12A     HL       0.250000       1.00800           0
     11142 MEMB     98       POPC     H12B     HL       0.250000       1.00800           0
     11143 MEMB     98       POPC     C13      CTL5    -0.350000       12.0110           0
     11144 MEMB     98       POPC     H13A     HL       0.250000       1.00800           0
     11145 MEMB     98       POPC     H13B     HL       0.250000       1.00800           0
     11146 MEMB     98       POPC     H13C     HL       0.250000       1.00800           0
     11147 MEMB     98       POPC     C14      CTL5    -0.350000       12.0110           0
     11148 MEMB     98       POPC     H14A     HL       0.250000       1.00800           0
     11149 MEMB     98       POPC     H14B     HL       0.250000       1.00800           0
     11150 MEMB     98       POPC     H14C     HL       0.250000       1.00800           0
     11151 MEMB     98       POPC     C15      CTL5    -0.350000       12.0110           0
     11152 MEMB     98       POPC     H15A     HL       0.250000       1.00800           0
     11153 MEMB     98       POPC     H15B     HL       0.250000       1.00800           0
     11154 MEMB     98       POPC     H15C     HL       0.250000       1.00800           0
     11155 MEMB     98       POPC     C11      CTL2    -0.800000E-01   12.0110           0
     11156 MEMB     98       POPC     H11A     HAL2     0.900000E-01   1.00800           0
     11157 MEMB     98       POPC     H11B     HAL2     0.900000E-01   1.00800           0
     11158 MEMB     98       POPC     P        PL        1.50000       30.9740           0
     11159 MEMB     98       POPC     O13      O2L     -0.780000       15.9994           0
     11160 MEMB     98       POPC     O14      O2L     -0.780000       15.9994           0
     11161 MEMB     98       POPC     O12      OSLP    -0.570000       15.9994           0
     11162 MEMB     98       POPC     O11      OSLP    -0.570000       15.9994           0
     11163 MEMB     98       POPC     C1       CTL2    -0.800000E-01   12.0110           0
     11164 MEMB     98       POPC     HA       HAL2     0.900000E-01   1.00800           0
     11165 MEMB     98       POPC     HB       HAL2     0.900000E-01   1.00800           0
     11166 MEMB     98       POPC     C2       CTL1     0.170000       12.0110           0
     11167 MEMB     98       POPC     HS       HAL1     0.900000E-01   1.00800           0
     11168 MEMB     98       POPC     O21      OSL     -0.490000       15.9994           0
     11169 MEMB     98       POPC     C21      CL       0.900000       12.0110           0
     11170 MEMB     98       POPC     O22      OBL     -0.630000       15.9994           0
     11171 MEMB     98       POPC     C22      CTL2    -0.220000       12.0110           0
     11172 MEMB     98       POPC     H2R      HAL2     0.900000E-01   1.00800           0
     11173 MEMB     98       POPC     H2S      HAL2     0.900000E-01   1.00800           0
     11174 MEMB     98       POPC     C3       CTL2     0.800000E-01   12.0110           0
     11175 MEMB     98       POPC     HX       HAL2     0.900000E-01   1.00800           0
     11176 MEMB     98       POPC     HY       HAL2     0.900000E-01   1.00800           0
     11177 MEMB     98       POPC     O31      OSL     -0.490000       15.9994           0
     11178 MEMB     98       POPC     C31      CL       0.900000       12.0110           0
     11179 MEMB     98       POPC     O32      OBL     -0.630000       15.9994           0
     11180 MEMB     98       POPC     C32      CTL2    -0.220000       12.0110           0
     11181 MEMB     98       POPC     H2X      HAL2     0.900000E-01   1.00800           0
     11182 MEMB     98       POPC     H2Y      HAL2     0.900000E-01   1.00800           0
     11183 MEMB     98       POPC     C23      CTL2    -0.180000       12.0110           0
     11184 MEMB     98       POPC     H3R      HAL2     0.900000E-01   1.00800           0
     11185 MEMB     98       POPC     H3S      HAL2     0.900000E-01   1.00800           0
     11186 MEMB     98       POPC     C24      CTL2    -0.180000       12.0110           0
     11187 MEMB     98       POPC     H4R      HAL2     0.900000E-01   1.00800           0
     11188 MEMB     98       POPC     H4S      HAL2     0.900000E-01   1.00800           0
     11189 MEMB     98       POPC     C25      CTL2    -0.180000       12.0110           0
     11190 MEMB     98       POPC     H5R      HAL2     0.900000E-01   1.00800           0
     11191 MEMB     98       POPC     H5S      HAL2     0.900000E-01   1.00800           0
     11192 MEMB     98       POPC     C26      CTL2    -0.180000       12.0110           0
     11193 MEMB     98       POPC     H6R      HAL2     0.900000E-01   1.00800           0
     11194 MEMB     98       POPC     H6S      HAL2     0.900000E-01   1.00800           0
     11195 MEMB     98       POPC     C27      CTL2    -0.180000       12.0110           0
     11196 MEMB     98       POPC     H7R      HAL2     0.900000E-01   1.00800           0
     11197 MEMB     98       POPC     H7S      HAL2     0.900000E-01   1.00800           0
     11198 MEMB     98       POPC     C28      CTL2    -0.180000       12.0110           0
     11199 MEMB     98       POPC     H8R      HAL2     0.900000E-01   1.00800           0
     11200 MEMB     98       POPC     H8S      HAL2     0.900000E-01   1.00800           0
     11201 MEMB     98       POPC     C29      CEL1    -0.150000       12.0110           0
     11202 MEMB     98       POPC     H91      HEL1     0.150000       1.00800           0
     11203 MEMB     98       POPC     C210     CEL1    -0.150000       12.0110           0
     11204 MEMB     98       POPC     H101     HEL1     0.150000       1.00800           0
     11205 MEMB     98       POPC     C211     CTL2    -0.180000       12.0110           0
     11206 MEMB     98       POPC     H11R     HAL2     0.900000E-01   1.00800           0
     11207 MEMB     98       POPC     H11S     HAL2     0.900000E-01   1.00800           0
     11208 MEMB     98       POPC     C212     CTL2    -0.180000       12.0110           0
     11209 MEMB     98       POPC     H12R     HAL2     0.900000E-01   1.00800           0
     11210 MEMB     98       POPC     H12S     HAL2     0.900000E-01   1.00800           0
     11211 MEMB     98       POPC     C213     CTL2    -0.180000       12.0110           0
     11212 MEMB     98       POPC     H13R     HAL2     0.900000E-01   1.00800           0
     11213 MEMB     98       POPC     H13S     HAL2     0.900000E-01   1.00800           0
     11214 MEMB     98       POPC     C214     CTL2    -0.180000       12.0110           0
     11215 MEMB     98       POPC     H14R     HAL2     0.900000E-01   1.00800           0
     11216 MEMB     98       POPC     H14S     HAL2     0.900000E-01   1.00800           0
     11217 MEMB     98       POPC     C215     CTL2    -0.180000       12.0110           0
     11218 MEMB     98       POPC     H15R     HAL2     0.900000E-01   1.00800           0
     11219 MEMB     98       POPC     H15S     HAL2     0.900000E-01   1.00800           0
     11220 MEMB     98       POPC     C216     CTL2    -0.180000       12.0110           0
     11221 MEMB     98       POPC     H16R     HAL2     0.900000E-01   1.00800           0
     11222 MEMB     98       POPC     H16S     HAL2     0.900000E-01   1.00800           0
     11223 MEMB     98       POPC     C217     CTL2    -0.180000       12.0110           0
     11224 MEMB     98       POPC     H17R     HAL2     0.900000E-01   1.00800           0
     11225 MEMB     98       POPC     H17S     HAL2     0.900000E-01   1.00800           0
     11226 MEMB     98       POPC     C218     CTL3    -0.270000       12.0110           0
     11227 MEMB     98       POPC     H18R     HAL3     0.900000E-01   1.00800           0
     11228 MEMB     98       POPC     H18S     HAL3     0.900000E-01   1.00800           0
     11229 MEMB     98       POPC     H18T     HAL3     0.900000E-01   1.00800           0
     11230 MEMB     98       POPC     C33      CTL2    -0.180000       12.0110           0
     11231 MEMB     98       POPC     H3X      HAL2     0.900000E-01   1.00800           0
     11232 MEMB     98       POPC     H3Y      HAL2     0.900000E-01   1.00800           0
     11233 MEMB     98       POPC     C34      CTL2    -0.180000       12.0110           0
     11234 MEMB     98       POPC     H4X      HAL2     0.900000E-01   1.00800           0
     11235 MEMB     98       POPC     H4Y      HAL2     0.900000E-01   1.00800           0
     11236 MEMB     98       POPC     C35      CTL2    -0.180000       12.0110           0
     11237 MEMB     98       POPC     H5X      HAL2     0.900000E-01   1.00800           0
     11238 MEMB     98       POPC     H5Y      HAL2     0.900000E-01   1.00800           0
     11239 MEMB     98       POPC     C36      CTL2    -0.180000       12.0110           0
     11240 MEMB     98       POPC     H6X      HAL2     0.900000E-01   1.00800           0
     11241 MEMB     98       POPC     H6Y      HAL2     0.900000E-01   1.00800           0
     11242 MEMB     98       POPC     C37      CTL2    -0.180000       12.0110           0
     11243 MEMB     98       POPC     H7X      HAL2     0.900000E-01   1.00800           0
     11244 MEMB     98       POPC     H7Y      HAL2     0.900000E-01   1.00800           0
     11245 MEMB     98       POPC     C38      CTL2    -0.180000       12.0110           0
     11246 MEMB     98       POPC     H8X      HAL2     0.900000E-01   1.00800           0
     11247 MEMB     98       POPC     H8Y      HAL2     0.900000E-01   1.00800           0
     11248 MEMB     98       POPC     C39      CTL2    -0.180000       12.0110           0
     11249 MEMB     98       POPC     H9X      HAL2     0.900000E-01   1.00800           0
     11250 MEMB     98       POPC     H9Y      HAL2     0.900000E-01   1.00800           0
     11251 MEMB     98       POPC     C310     CTL2    -0.180000       12.0110           0
     11252 MEMB     98       POPC     H10X     HAL2     0.900000E-01   1.00800           0
     11253 MEMB     98       POPC     H10Y     HAL2     0.900000E-01   1.00800           0
     11254 MEMB     98       POPC     C311     CTL2    -0.180000       12.0110           0
     11255 MEMB     98       POPC     H11X     HAL2     0.900000E-01   1.00800           0
     11256 MEMB     98       POPC     H11Y     HAL2     0.900000E-01   1.00800           0
     11257 MEMB     98       POPC     C312     CTL2    -0.180000       12.0110           0
     11258 MEMB     98       POPC     H12X     HAL2     0.900000E-01   1.00800           0
     11259 MEMB     98       POPC     H12Y     HAL2     0.900000E-01   1.00800           0
     11260 MEMB     98       POPC     C313     CTL2    -0.180000       12.0110           0
     11261 MEMB     98       POPC     H13X     HAL2     0.900000E-01   1.00800           0
     11262 MEMB     98       POPC     H13Y     HAL2     0.900000E-01   1.00800           0
     11263 MEMB     98       POPC     C314     CTL2    -0.180000       12.0110           0
     11264 MEMB     98       POPC     H14X     HAL2     0.900000E-01   1.00800           0
     11265 MEMB     98       POPC     H14Y     HAL2     0.900000E-01   1.00800           0
     11266 MEMB     98       POPC     C315     CTL2    -0.180000       12.0110           0
     11267 MEMB     98       POPC     H15X     HAL2     0.900000E-01   1.00800           0
     11268 MEMB     98       POPC     H15Y     HAL2     0.900000E-01   1.00800           0
     11269 MEMB     98       POPC     C316     CTL3    -0.270000       12.0110           0
     11270 MEMB     98       POPC     H16X     HAL3     0.900000E-01   1.00800           0
     11271 MEMB     98       POPC     H16Y     HAL3     0.900000E-01   1.00800           0
     11272 MEMB     98       POPC     H16Z     HAL3     0.900000E-01   1.00800           0
     11273 MEMB     99       POPC     N        NTL     -0.600000       14.0070           0
     11274 MEMB     99       POPC     C12      CTL2    -0.100000       12.0110           0
     11275 MEMB     99       POPC     H12A     HL       0.250000       1.00800           0
     11276 MEMB     99       POPC     H12B     HL       0.250000       1.00800           0
     11277 MEMB     99       POPC     C13      CTL5    -0.350000       12.0110           0
     11278 MEMB     99       POPC     H13A     HL       0.250000       1.00800           0
     11279 MEMB     99       POPC     H13B     HL       0.250000       1.00800           0
     11280 MEMB     99       POPC     H13C     HL       0.250000       1.00800           0
     11281 MEMB     99       POPC     C14      CTL5    -0.350000       12.0110           0
     11282 MEMB     99       POPC     H14A     HL       0.250000       1.00800           0
     11283 MEMB     99       POPC     H14B     HL       0.250000       1.00800           0
     11284 MEMB     99       POPC     H14C     HL       0.250000       1.00800           0
     11285 MEMB     99       POPC     C15      CTL5    -0.350000       12.0110           0
     11286 MEMB     99       POPC     H15A     HL       0.250000       1.00800           0
     11287 MEMB     99       POPC     H15B     HL       0.250000       1.00800           0
     11288 MEMB     99       POPC     H15C     HL       0.250000       1.00800           0
     11289 MEMB     99       POPC     C11      CTL2    -0.800000E-01   12.0110           0
     11290 MEMB     99       POPC     H11A     HAL2     0.900000E-01   1.00800           0
     11291 MEMB     99       POPC     H11B     HAL2     0.900000E-01   1.00800           0
     11292 MEMB     99       POPC     P        PL        1.50000       30.9740           0
     11293 MEMB     99       POPC     O13      O2L     -0.780000       15.9994           0
     11294 MEMB     99       POPC     O14      O2L     -0.780000       15.9994           0
     11295 MEMB     99       POPC     O12      OSLP    -0.570000       15.9994           0
     11296 MEMB     99       POPC     O11      OSLP    -0.570000       15.9994           0
     11297 MEMB     99       POPC     C1       CTL2    -0.800000E-01   12.0110           0
     11298 MEMB     99       POPC     HA       HAL2     0.900000E-01   1.00800           0
     11299 MEMB     99       POPC     HB       HAL2     0.900000E-01   1.00800           0
     11300 MEMB     99       POPC     C2       CTL1     0.170000       12.0110           0
     11301 MEMB     99       POPC     HS       HAL1     0.900000E-01   1.00800           0
     11302 MEMB     99       POPC     O21      OSL     -0.490000       15.9994           0
     11303 MEMB     99       POPC     C21      CL       0.900000       12.0110           0
     11304 MEMB     99       POPC     O22      OBL     -0.630000       15.9994           0
     11305 MEMB     99       POPC     C22      CTL2    -0.220000       12.0110           0
     11306 MEMB     99       POPC     H2R      HAL2     0.900000E-01   1.00800           0
     11307 MEMB     99       POPC     H2S      HAL2     0.900000E-01   1.00800           0
     11308 MEMB     99       POPC     C3       CTL2     0.800000E-01   12.0110           0
     11309 MEMB     99       POPC     HX       HAL2     0.900000E-01   1.00800           0
     11310 MEMB     99       POPC     HY       HAL2     0.900000E-01   1.00800           0
     11311 MEMB     99       POPC     O31      OSL     -0.490000       15.9994           0
     11312 MEMB     99       POPC     C31      CL       0.900000       12.0110           0
     11313 MEMB     99       POPC     O32      OBL     -0.630000       15.9994           0
     11314 MEMB     99       POPC     C32      CTL2    -0.220000       12.0110           0
     11315 MEMB     99       POPC     H2X      HAL2     0.900000E-01   1.00800           0
     11316 MEMB     99       POPC     H2Y      HAL2     0.900000E-01   1.00800           0
     11317 MEMB     99       POPC     C23      CTL2    -0.180000       12.0110           0
     11318 MEMB     99       POPC     H3R      HAL2     0.900000E-01   1.00800           0
     11319 MEMB     99       POPC     H3S      HAL2     0.900000E-01   1.00800           0
     11320 MEMB     99       POPC     C24      CTL2    -0.180000       12.0110           0
     11321 MEMB     99       POPC     H4R      HAL2     0.900000E-01   1.00800           0
     11322 MEMB     99       POPC     H4S      HAL2     0.900000E-01   1.00800           0
     11323 MEMB     99       POPC     C25      CTL2    -0.180000       12.0110           0
     11324 MEMB     99       POPC     H5R      HAL2     0.900000E-01   1.00800           0
     11325 MEMB     99       POPC     H5S      HAL2     0.900000E-01   1.00800           0
     11326 MEMB     99       POPC     C26      CTL2    -0.180000       12.0110           0
     11327 MEMB     99       POPC     H6R      HAL2     0.900000E-01   1.00800           0
     11328 MEMB     99       POPC     H6S      HAL2     0.900000E-01   1.00800           0
     11329 MEMB     99       POPC     C27      CTL2    -0.180000       12.0110           0
     11330 MEMB     99       POPC     H7R      HAL2     0.900000E-01   1.00800           0
     11331 MEMB     99       POPC     H7S      HAL2     0.900000E-01   1.00800           0
     11332 MEMB     99       POPC     C28      CTL2    -0.180000       12.0110           0
     11333 MEMB     99       POPC     H8R      HAL2     0.900000E-01   1.00800           0
     11334 MEMB     99       POPC     H8S      HAL2     0.900000E-01   1.00800           0
     11335 MEMB     99       POPC     C29      CEL1    -0.150000       12.0110           0
     11336 MEMB     99       POPC     H91      HEL1     0.150000       1.00800           0
     11337 MEMB     99       POPC     C210     CEL1    -0.150000       12.0110           0
     11338 MEMB     99       POPC     H101     HEL1     0.150000       1.00800           0
     11339 MEMB     99       POPC     C211     CTL2    -0.180000       12.0110           0
     11340 MEMB     99       POPC     H11R     HAL2     0.900000E-01   1.00800           0
     11341 MEMB     99       POPC     H11S     HAL2     0.900000E-01   1.00800           0
     11342 MEMB     99       POPC     C212     CTL2    -0.180000       12.0110           0
     11343 MEMB     99       POPC     H12R     HAL2     0.900000E-01   1.00800           0
     11344 MEMB     99       POPC     H12S     HAL2     0.900000E-01   1.00800           0
     11345 MEMB     99       POPC     C213     CTL2    -0.180000       12.0110           0
     11346 MEMB     99       POPC     H13R     HAL2     0.900000E-01   1.00800           0
     11347 MEMB     99       POPC     H13S     HAL2     0.900000E-01   1.00800           0
     11348 MEMB     99       POPC     C214     CTL2    -0.180000       12.0110           0
     11349 MEMB     99       POPC     H14R     HAL2     0.900000E-01   1.00800           0
     11350 MEMB     99       POPC     H14S     HAL2     0.900000E-01   1.00800           0
     11351 MEMB     99       POPC     C215     CTL2    -0.180000       12.0110           0
     11352 MEMB     99       POPC     H15R     HAL2     0.900000E-01   1.00800           0
     11353 MEMB     99       POPC     H15S     HAL2     0.900000E-01   1.00800           0
     11354 MEMB     99       POPC     C216     CTL2    -0.180000       12.0110           0
     11355 MEMB     99       POPC     H16R     HAL2     0.900000E-01   1.00800           0
     11356 MEMB     99       POPC     H16S     HAL2     0.900000E-01   1.00800           0
     11357 MEMB     99       POPC     C217     CTL2    -0.180000       12.0110           0
     11358 MEMB     99       POPC     H17R     HAL2     0.900000E-01   1.00800           0
     11359 MEMB     99       POPC     H17S     HAL2     0.900000E-01   1.00800           0
     11360 MEMB     99       POPC     C218     CTL3    -0.270000       12.0110           0
     11361 MEMB     99       POPC     H18R     HAL3     0.900000E-01   1.00800           0
     11362 MEMB     99       POPC     H18S     HAL3     0.900000E-01   1.00800           0
     11363 MEMB     99       POPC     H18T     HAL3     0.900000E-01   1.00800           0
     11364 MEMB     99       POPC     C33      CTL2    -0.180000       12.0110           0
     11365 MEMB     99       POPC     H3X      HAL2     0.900000E-01   1.00800           0
     11366 MEMB     99       POPC     H3Y      HAL2     0.900000E-01   1.00800           0
     11367 MEMB     99       POPC     C34      CTL2    -0.180000       12.0110           0
     11368 MEMB     99       POPC     H4X      HAL2     0.900000E-01   1.00800           0
     11369 MEMB     99       POPC     H4Y      HAL2     0.900000E-01   1.00800           0
     11370 MEMB     99       POPC     C35      CTL2    -0.180000       12.0110           0
     11371 MEMB     99       POPC     H5X      HAL2     0.900000E-01   1.00800           0
     11372 MEMB     99       POPC     H5Y      HAL2     0.900000E-01   1.00800           0
     11373 MEMB     99       POPC     C36      CTL2    -0.180000       12.0110           0
     11374 MEMB     99       POPC     H6X      HAL2     0.900000E-01   1.00800           0
     11375 MEMB     99       POPC     H6Y      HAL2     0.900000E-01   1.00800           0
     11376 MEMB     99       POPC     C37      CTL2    -0.180000       12.0110           0
     11377 MEMB     99       POPC     H7X      HAL2     0.900000E-01   1.00800           0
     11378 MEMB     99       POPC     H7Y      HAL2     0.900000E-01   1.00800           0
     11379 MEMB     99       POPC     C38      CTL2    -0.180000       12.0110           0
     11380 MEMB     99       POPC     H8X      HAL2     0.900000E-01   1.00800           0
     11381 MEMB     99       POPC     H8Y      HAL2     0.900000E-01   1.00800           0
     11382 MEMB     99       POPC     C39      CTL2    -0.180000       12.0110           0
     11383 MEMB     99       POPC     H9X      HAL2     0.900000E-01   1.00800           0
     11384 MEMB     99       POPC     H9Y      HAL2     0.900000E-01   1.00800           0
     11385 MEMB     99       POPC     C310     CTL2    -0.180000       12.0110           0
     11386 MEMB     99       POPC     H10X     HAL2     0.900000E-01   1.00800           0
     11387 MEMB     99       POPC     H10Y     HAL2     0.900000E-01   1.00800           0
     11388 MEMB     99       POPC     C311     CTL2    -0.180000       12.0110           0
     11389 MEMB     99       POPC     H11X     HAL2     0.900000E-01   1.00800           0
     11390 MEMB     99       POPC     H11Y     HAL2     0.900000E-01   1.00800           0
     11391 MEMB     99       POPC     C312     CTL2    -0.180000       12.0110           0
     11392 MEMB     99       POPC     H12X     HAL2     0.900000E-01   1.00800           0
     11393 MEMB     99       POPC     H12Y     HAL2     0.900000E-01   1.00800           0
     11394 MEMB     99       POPC     C313     CTL2    -0.180000       12.0110           0
     11395 MEMB     99       POPC     H13X     HAL2     0.900000E-01   1.00800           0
     11396 MEMB     99       POPC     H13Y     HAL2     0.900000E-01   1.00800           0
     11397 MEMB     99       POPC     C314     CTL2    -0.180000       12.0110           0
     11398 MEMB     99       POPC     H14X     HAL2     0.900000E-01   1.00800           0
     11399 MEMB     99       POPC     H14Y     HAL2     0.900000E-01   1.00800           0
     11400 MEMB     99       POPC     C315     CTL2    -0.180000       12.0110           0
     11401 MEMB     99       POPC     H15X     HAL2     0.900000E-01   1.00800           0
     11402 MEMB     99       POPC     H15Y     HAL2     0.900000E-01   1.00800           0
     11403 MEMB     99       POPC     C316     CTL3    -0.270000       12.0110           0
     11404 MEMB     99       POPC     H16X     HAL3     0.900000E-01   1.00800           0
     11405 MEMB     99       POPC     H16Y     HAL3     0.900000E-01   1.00800           0
     11406 MEMB     99       POPC     H16Z     HAL3     0.900000E-01   1.00800           0
     11407 MEMB     100      POPC     N        NTL     -0.600000       14.0070           0
     11408 MEMB     100      POPC     C12      CTL2    -0.100000       12.0110           0
     11409 MEMB     100      POPC     H12A     HL       0.250000       1.00800           0
     11410 MEMB     100      POPC     H12B     HL       0.250000       1.00800           0
     11411 MEMB     100      POPC     C13      CTL5    -0.350000       12.0110           0
     11412 MEMB     100      POPC     H13A     HL       0.250000       1.00800           0
     11413 MEMB     100      POPC     H13B     HL       0.250000       1.00800           0
     11414 MEMB     100      POPC     H13C     HL       0.250000       1.00800           0
     11415 MEMB     100      POPC     C14      CTL5    -0.350000       12.0110           0
     11416 MEMB     100      POPC     H14A     HL       0.250000       1.00800           0
     11417 MEMB     100      POPC     H14B     HL       0.250000       1.00800           0
     11418 MEMB     100      POPC     H14C     HL       0.250000       1.00800           0
     11419 MEMB     100      POPC     C15      CTL5    -0.350000       12.0110           0
     11420 MEMB     100      POPC     H15A     HL       0.250000       1.00800           0
     11421 MEMB     100      POPC     H15B     HL       0.250000       1.00800           0
     11422 MEMB     100      POPC     H15C     HL       0.250000       1.00800           0
     11423 MEMB     100      POPC     C11      CTL2    -0.800000E-01   12.0110           0
     11424 MEMB     100      POPC     H11A     HAL2     0.900000E-01   1.00800           0
     11425 MEMB     100      POPC     H11B     HAL2     0.900000E-01   1.00800           0
     11426 MEMB     100      POPC     P        PL        1.50000       30.9740           0
     11427 MEMB     100      POPC     O13      O2L     -0.780000       15.9994           0
     11428 MEMB     100      POPC     O14      O2L     -0.780000       15.9994           0
     11429 MEMB     100      POPC     O12      OSLP    -0.570000       15.9994           0
     11430 MEMB     100      POPC     O11      OSLP    -0.570000       15.9994           0
     11431 MEMB     100      POPC     C1       CTL2    -0.800000E-01   12.0110           0
     11432 MEMB     100      POPC     HA       HAL2     0.900000E-01   1.00800           0
     11433 MEMB     100      POPC     HB       HAL2     0.900000E-01   1.00800           0
     11434 MEMB     100      POPC     C2       CTL1     0.170000       12.0110           0
     11435 MEMB     100      POPC     HS       HAL1     0.900000E-01   1.00800           0
     11436 MEMB     100      POPC     O21      OSL     -0.490000       15.9994           0
     11437 MEMB     100      POPC     C21      CL       0.900000       12.0110           0
     11438 MEMB     100      POPC     O22      OBL     -0.630000       15.9994           0
     11439 MEMB     100      POPC     C22      CTL2    -0.220000       12.0110           0
     11440 MEMB     100      POPC     H2R      HAL2     0.900000E-01   1.00800           0
     11441 MEMB     100      POPC     H2S      HAL2     0.900000E-01   1.00800           0
     11442 MEMB     100      POPC     C3       CTL2     0.800000E-01   12.0110           0
     11443 MEMB     100      POPC     HX       HAL2     0.900000E-01   1.00800           0
     11444 MEMB     100      POPC     HY       HAL2     0.900000E-01   1.00800           0
     11445 MEMB     100      POPC     O31      OSL     -0.490000       15.9994           0
     11446 MEMB     100      POPC     C31      CL       0.900000       12.0110           0
     11447 MEMB     100      POPC     O32      OBL     -0.630000       15.9994           0
     11448 MEMB     100      POPC     C32      CTL2    -0.220000       12.0110           0
     11449 MEMB     100      POPC     H2X      HAL2     0.900000E-01   1.00800           0
     11450 MEMB     100      POPC     H2Y      HAL2     0.900000E-01   1.00800           0
     11451 MEMB     100      POPC     C23      CTL2    -0.180000       12.0110           0
     11452 MEMB     100      POPC     H3R      HAL2     0.900000E-01   1.00800           0
     11453 MEMB     100      POPC     H3S      HAL2     0.900000E-01   1.00800           0
     11454 MEMB     100      POPC     C24      CTL2    -0.180000       12.0110           0
     11455 MEMB     100      POPC     H4R      HAL2     0.900000E-01   1.00800           0
     11456 MEMB     100      POPC     H4S      HAL2     0.900000E-01   1.00800           0
     11457 MEMB     100      POPC     C25      CTL2    -0.180000       12.0110           0
     11458 MEMB     100      POPC     H5R      HAL2     0.900000E-01   1.00800           0
     11459 MEMB     100      POPC     H5S      HAL2     0.900000E-01   1.00800           0
     11460 MEMB     100      POPC     C26      CTL2    -0.180000       12.0110           0
     11461 MEMB     100      POPC     H6R      HAL2     0.900000E-01   1.00800           0
     11462 MEMB     100      POPC     H6S      HAL2     0.900000E-01   1.00800           0
     11463 MEMB     100      POPC     C27      CTL2    -0.180000       12.0110           0
     11464 MEMB     100      POPC     H7R      HAL2     0.900000E-01   1.00800           0
     11465 MEMB     100      POPC     H7S      HAL2     0.900000E-01   1.00800           0
     11466 MEMB     100      POPC     C28      CTL2    -0.180000       12.0110           0
     11467 MEMB     100      POPC     H8R      HAL2     0.900000E-01   1.00800           0
     11468 MEMB     100      POPC     H8S      HAL2     0.900000E-01   1.00800           0
     11469 MEMB     100      POPC     C29      CEL1    -0.150000       12.0110           0
     11470 MEMB     100      POPC     H91      HEL1     0.150000       1.00800           0
     11471 MEMB     100      POPC     C210     CEL1    -0.150000       12.0110           0
     11472 MEMB     100      POPC     H101     HEL1     0.150000       1.00800           0
     11473 MEMB     100      POPC     C211     CTL2    -0.180000       12.0110           0
     11474 MEMB     100      POPC     H11R     HAL2     0.900000E-01   1.00800           0
     11475 MEMB     100      POPC     H11S     HAL2     0.900000E-01   1.00800           0
     11476 MEMB     100      POPC     C212     CTL2    -0.180000       12.0110           0
     11477 MEMB     100      POPC     H12R     HAL2     0.900000E-01   1.00800           0
     11478 MEMB     100      POPC     H12S     HAL2     0.900000E-01   1.00800           0
     11479 MEMB     100      POPC     C213     CTL2    -0.180000       12.0110           0
     11480 MEMB     100      POPC     H13R     HAL2     0.900000E-01   1.00800           0
     11481 MEMB     100      POPC     H13S     HAL2     0.900000E-01   1.00800           0
     11482 MEMB     100      POPC     C214     CTL2    -0.180000       12.0110           0
     11483 MEMB     100      POPC     H14R     HAL2     0.900000E-01   1.00800           0
     11484 MEMB     100      POPC     H14S     HAL2     0.900000E-01   1.00800           0
     11485 MEMB     100      POPC     C215     CTL2    -0.180000       12.0110           0
     11486 MEMB     100      POPC     H15R     HAL2     0.900000E-01   1.00800           0
     11487 MEMB     100      POPC     H15S     HAL2     0.900000E-01   1.00800           0
     11488 MEMB     100      POPC     C216     CTL2    -0.180000       12.0110           0
     11489 MEMB     100      POPC     H16R     HAL2     0.900000E-01   1.00800           0
     11490 MEMB     100      POPC     H16S     HAL2     0.900000E-01   1.00800           0
     11491 MEMB     100      POPC     C217     CTL2    -0.180000       12.0110           0
     11492 MEMB     100      POPC     H17R     HAL2     0.900000E-01   1.00800           0
     11493 MEMB     100      POPC     H17S     HAL2     0.900000E-01   1.00800           0
     11494 MEMB     100      POPC     C218     CTL3    -0.270000       12.0110           0
     11495 MEMB     100      POPC     H18R     HAL3     0.900000E-01   1.00800           0
     11496 MEMB     100      POPC     H18S     HAL3     0.900000E-01   1.00800           0
     11497 MEMB     100      POPC     H18T     HAL3     0.900000E-01   1.00800           0
     11498 MEMB     100      POPC     C33      CTL2    -0.180000       12.0110           0
     11499 MEMB     100      POPC     H3X      HAL2     0.900000E-01   1.00800           0
     11500 MEMB     100      POPC     H3Y      HAL2     0.900000E-01   1.00800           0
     11501 MEMB     100      POPC     C34      CTL2    -0.180000       12.0110           0
     11502 MEMB     100      POPC     H4X      HAL2     0.900000E-01   1.00800           0
     11503 MEMB     100      POPC     H4Y      HAL2     0.900000E-01   1.00800           0
     11504 MEMB     100      POPC     C35      CTL2    -0.180000       12.0110           0
     11505 MEMB     100      POPC     H5X      HAL2     0.900000E-01   1.00800           0
     11506 MEMB     100      POPC     H5Y      HAL2     0.900000E-01   1.00800           0
     11507 MEMB     100      POPC     C36      CTL2    -0.180000       12.0110           0
     11508 MEMB     100      POPC     H6X      HAL2     0.900000E-01   1.00800           0
     11509 MEMB     100      POPC     H6Y      HAL2     0.900000E-01   1.00800           0
     11510 MEMB     100      POPC     C37      CTL2    -0.180000       12.0110           0
     11511 MEMB     100      POPC     H7X      HAL2     0.900000E-01   1.00800           0
     11512 MEMB     100      POPC     H7Y      HAL2     0.900000E-01   1.00800           0
     11513 MEMB     100      POPC     C38      CTL2    -0.180000       12.0110           0
     11514 MEMB     100      POPC     H8X      HAL2     0.900000E-01   1.00800           0
     11515 MEMB     100      POPC     H8Y      HAL2     0.900000E-01   1.00800           0
     11516 MEMB     100      POPC     C39      CTL2    -0.180000       12.0110           0
     11517 MEMB     100      POPC     H9X      HAL2     0.900000E-01   1.00800           0
     11518 MEMB     100      POPC     H9Y      HAL2     0.900000E-01   1.00800           0
     11519 MEMB     100      POPC     C310     CTL2    -0.180000       12.0110           0
     11520 MEMB     100      POPC     H10X     HAL2     0.900000E-01   1.00800           0
     11521 MEMB     100      POPC     H10Y     HAL2     0.900000E-01   1.00800           0
     11522 MEMB     100      POPC     C311     CTL2    -0.180000       12.0110           0
     11523 MEMB     100      POPC     H11X     HAL2     0.900000E-01   1.00800           0
     11524 MEMB     100      POPC     H11Y     HAL2     0.900000E-01   1.00800           0
     11525 MEMB     100      POPC     C312     CTL2    -0.180000       12.0110           0
     11526 MEMB     100      POPC     H12X     HAL2     0.900000E-01   1.00800           0
     11527 MEMB     100      POPC     H12Y     HAL2     0.900000E-01   1.00800           0
     11528 MEMB     100      POPC     C313     CTL2    -0.180000       12.0110           0
     11529 MEMB     100      POPC     H13X     HAL2     0.900000E-01   1.00800           0
     11530 MEMB     100      POPC     H13Y     HAL2     0.900000E-01   1.00800           0
     11531 MEMB     100      POPC     C314     CTL2    -0.180000       12.0110           0
     11532 MEMB     100      POPC     H14X     HAL2     0.900000E-01   1.00800           0
     11533 MEMB     100      POPC     H14Y     HAL2     0.900000E-01   1.00800           0
     11534 MEMB     100      POPC     C315     CTL2    -0.180000       12.0110           0
     11535 MEMB     100      POPC     H15X     HAL2     0.900000E-01   1.00800           0
     11536 MEMB     100      POPC     H15Y     HAL2     0.900000E-01   1.00800           0
     11537 MEMB     100      POPC     C316     CTL3    -0.270000       12.0110           0
     11538 MEMB     100      POPC     H16X     HAL3     0.900000E-01   1.00800           0
     11539 MEMB     100      POPC     H16Y     HAL3     0.900000E-01   1.00800           0
     11540 MEMB     100      POPC     H16Z     HAL3     0.900000E-01   1.00800           0
     11541 MEMB     101      POPC     N        NTL     -0.600000       14.0070           0
     11542 MEMB     101      POPC     C12      CTL2    -0.100000       12.0110           0
     11543 MEMB     101      POPC     H12A     HL       0.250000       1.00800           0
     11544 MEMB     101      POPC     H12B     HL       0.250000       1.00800           0
     11545 MEMB     101      POPC     C13      CTL5    -0.350000       12.0110           0
     11546 MEMB     101      POPC     H13A     HL       0.250000       1.00800           0
     11547 MEMB     101      POPC     H13B     HL       0.250000       1.00800           0
     11548 MEMB     101      POPC     H13C     HL       0.250000       1.00800           0
     11549 MEMB     101      POPC     C14      CTL5    -0.350000       12.0110           0
     11550 MEMB     101      POPC     H14A     HL       0.250000       1.00800           0
     11551 MEMB     101      POPC     H14B     HL       0.250000       1.00800           0
     11552 MEMB     101      POPC     H14C     HL       0.250000       1.00800           0
     11553 MEMB     101      POPC     C15      CTL5    -0.350000       12.0110           0
     11554 MEMB     101      POPC     H15A     HL       0.250000       1.00800           0
     11555 MEMB     101      POPC     H15B     HL       0.250000       1.00800           0
     11556 MEMB     101      POPC     H15C     HL       0.250000       1.00800           0
     11557 MEMB     101      POPC     C11      CTL2    -0.800000E-01   12.0110           0
     11558 MEMB     101      POPC     H11A     HAL2     0.900000E-01   1.00800           0
     11559 MEMB     101      POPC     H11B     HAL2     0.900000E-01   1.00800           0
     11560 MEMB     101      POPC     P        PL        1.50000       30.9740           0
     11561 MEMB     101      POPC     O13      O2L     -0.780000       15.9994           0
     11562 MEMB     101      POPC     O14      O2L     -0.780000       15.9994           0
     11563 MEMB     101      POPC     O12      OSLP    -0.570000       15.9994           0
     11564 MEMB     101      POPC     O11      OSLP    -0.570000       15.9994           0
     11565 MEMB     101      POPC     C1       CTL2    -0.800000E-01   12.0110           0
     11566 MEMB     101      POPC     HA       HAL2     0.900000E-01   1.00800           0
     11567 MEMB     101      POPC     HB       HAL2     0.900000E-01   1.00800           0
     11568 MEMB     101      POPC     C2       CTL1     0.170000       12.0110           0
     11569 MEMB     101      POPC     HS       HAL1     0.900000E-01   1.00800           0
     11570 MEMB     101      POPC     O21      OSL     -0.490000       15.9994           0
     11571 MEMB     101      POPC     C21      CL       0.900000       12.0110           0
     11572 MEMB     101      POPC     O22      OBL     -0.630000       15.9994           0
     11573 MEMB     101      POPC     C22      CTL2    -0.220000       12.0110           0
     11574 MEMB     101      POPC     H2R      HAL2     0.900000E-01   1.00800           0
     11575 MEMB     101      POPC     H2S      HAL2     0.900000E-01   1.00800           0
     11576 MEMB     101      POPC     C3       CTL2     0.800000E-01   12.0110           0
     11577 MEMB     101      POPC     HX       HAL2     0.900000E-01   1.00800           0
     11578 MEMB     101      POPC     HY       HAL2     0.900000E-01   1.00800           0
     11579 MEMB     101      POPC     O31      OSL     -0.490000       15.9994           0
     11580 MEMB     101      POPC     C31      CL       0.900000       12.0110           0
     11581 MEMB     101      POPC     O32      OBL     -0.630000       15.9994           0
     11582 MEMB     101      POPC     C32      CTL2    -0.220000       12.0110           0
     11583 MEMB     101      POPC     H2X      HAL2     0.900000E-01   1.00800           0
     11584 MEMB     101      POPC     H2Y      HAL2     0.900000E-01   1.00800           0
     11585 MEMB     101      POPC     C23      CTL2    -0.180000       12.0110           0
     11586 MEMB     101      POPC     H3R      HAL2     0.900000E-01   1.00800           0
     11587 MEMB     101      POPC     H3S      HAL2     0.900000E-01   1.00800           0
     11588 MEMB     101      POPC     C24      CTL2    -0.180000       12.0110           0
     11589 MEMB     101      POPC     H4R      HAL2     0.900000E-01   1.00800           0
     11590 MEMB     101      POPC     H4S      HAL2     0.900000E-01   1.00800           0
     11591 MEMB     101      POPC     C25      CTL2    -0.180000       12.0110           0
     11592 MEMB     101      POPC     H5R      HAL2     0.900000E-01   1.00800           0
     11593 MEMB     101      POPC     H5S      HAL2     0.900000E-01   1.00800           0
     11594 MEMB     101      POPC     C26      CTL2    -0.180000       12.0110           0
     11595 MEMB     101      POPC     H6R      HAL2     0.900000E-01   1.00800           0
     11596 MEMB     101      POPC     H6S      HAL2     0.900000E-01   1.00800           0
     11597 MEMB     101      POPC     C27      CTL2    -0.180000       12.0110           0
     11598 MEMB     101      POPC     H7R      HAL2     0.900000E-01   1.00800           0
     11599 MEMB     101      POPC     H7S      HAL2     0.900000E-01   1.00800           0
     11600 MEMB     101      POPC     C28      CTL2    -0.180000       12.0110           0
     11601 MEMB     101      POPC     H8R      HAL2     0.900000E-01   1.00800           0
     11602 MEMB     101      POPC     H8S      HAL2     0.900000E-01   1.00800           0
     11603 MEMB     101      POPC     C29      CEL1    -0.150000       12.0110           0
     11604 MEMB     101      POPC     H91      HEL1     0.150000       1.00800           0
     11605 MEMB     101      POPC     C210     CEL1    -0.150000       12.0110           0
     11606 MEMB     101      POPC     H101     HEL1     0.150000       1.00800           0
     11607 MEMB     101      POPC     C211     CTL2    -0.180000       12.0110           0
     11608 MEMB     101      POPC     H11R     HAL2     0.900000E-01   1.00800           0
     11609 MEMB     101      POPC     H11S     HAL2     0.900000E-01   1.00800           0
     11610 MEMB     101      POPC     C212     CTL2    -0.180000       12.0110           0
     11611 MEMB     101      POPC     H12R     HAL2     0.900000E-01   1.00800           0
     11612 MEMB     101      POPC     H12S     HAL2     0.900000E-01   1.00800           0
     11613 MEMB     101      POPC     C213     CTL2    -0.180000       12.0110           0
     11614 MEMB     101      POPC     H13R     HAL2     0.900000E-01   1.00800           0
     11615 MEMB     101      POPC     H13S     HAL2     0.900000E-01   1.00800           0
     11616 MEMB     101      POPC     C214     CTL2    -0.180000       12.0110           0
     11617 MEMB     101      POPC     H14R     HAL2     0.900000E-01   1.00800           0
     11618 MEMB     101      POPC     H14S     HAL2     0.900000E-01   1.00800           0
     11619 MEMB     101      POPC     C215     CTL2    -0.180000       12.0110           0
     11620 MEMB     101      POPC     H15R     HAL2     0.900000E-01   1.00800           0
     11621 MEMB     101      POPC     H15S     HAL2     0.900000E-01   1.00800           0
     11622 MEMB     101      POPC     C216     CTL2    -0.180000       12.0110           0
     11623 MEMB     101      POPC     H16R     HAL2     0.900000E-01   1.00800           0
     11624 MEMB     101      POPC     H16S     HAL2     0.900000E-01   1.00800           0
     11625 MEMB     101      POPC     C217     CTL2    -0.180000       12.0110           0
     11626 MEMB     101      POPC     H17R     HAL2     0.900000E-01   1.00800           0
     11627 MEMB     101      POPC     H17S     HAL2     0.900000E-01   1.00800           0
     11628 MEMB     101      POPC     C218     CTL3    -0.270000       12.0110           0
     11629 MEMB     101      POPC     H18R     HAL3     0.900000E-01   1.00800           0
     11630 MEMB     101      POPC     H18S     HAL3     0.900000E-01   1.00800           0
     11631 MEMB     101      POPC     H18T     HAL3     0.900000E-01   1.00800           0
     11632 MEMB     101      POPC     C33      CTL2    -0.180000       12.0110           0
     11633 MEMB     101      POPC     H3X      HAL2     0.900000E-01   1.00800           0
     11634 MEMB     101      POPC     H3Y      HAL2     0.900000E-01   1.00800           0
     11635 MEMB     101      POPC     C34      CTL2    -0.180000       12.0110           0
     11636 MEMB     101      POPC     H4X      HAL2     0.900000E-01   1.00800           0
     11637 MEMB     101      POPC     H4Y      HAL2     0.900000E-01   1.00800           0
     11638 MEMB     101      POPC     C35      CTL2    -0.180000       12.0110           0
     11639 MEMB     101      POPC     H5X      HAL2     0.900000E-01   1.00800           0
     11640 MEMB     101      POPC     H5Y      HAL2     0.900000E-01   1.00800           0
     11641 MEMB     101      POPC     C36      CTL2    -0.180000       12.0110           0
     11642 MEMB     101      POPC     H6X      HAL2     0.900000E-01   1.00800           0
     11643 MEMB     101      POPC     H6Y      HAL2     0.900000E-01   1.00800           0
     11644 MEMB     101      POPC     C37      CTL2    -0.180000       12.0110           0
     11645 MEMB     101      POPC     H7X      HAL2     0.900000E-01   1.00800           0
     11646 MEMB     101      POPC     H7Y      HAL2     0.900000E-01   1.00800           0
     11647 MEMB     101      POPC     C38      CTL2    -0.180000       12.0110           0
     11648 MEMB     101      POPC     H8X      HAL2     0.900000E-01   1.00800           0
     11649 MEMB     101      POPC     H8Y      HAL2     0.900000E-01   1.00800           0
     11650 MEMB     101      POPC     C39      CTL2    -0.180000       12.0110           0
     11651 MEMB     101      POPC     H9X      HAL2     0.900000E-01   1.00800           0
     11652 MEMB     101      POPC     H9Y      HAL2     0.900000E-01   1.00800           0
     11653 MEMB     101      POPC     C310     CTL2    -0.180000       12.0110           0
     11654 MEMB     101      POPC     H10X     HAL2     0.900000E-01   1.00800           0
     11655 MEMB     101      POPC     H10Y     HAL2     0.900000E-01   1.00800           0
     11656 MEMB     101      POPC     C311     CTL2    -0.180000       12.0110           0
     11657 MEMB     101      POPC     H11X     HAL2     0.900000E-01   1.00800           0
     11658 MEMB     101      POPC     H11Y     HAL2     0.900000E-01   1.00800           0
     11659 MEMB     101      POPC     C312     CTL2    -0.180000       12.0110           0
     11660 MEMB     101      POPC     H12X     HAL2     0.900000E-01   1.00800           0
     11661 MEMB     101      POPC     H12Y     HAL2     0.900000E-01   1.00800           0
     11662 MEMB     101      POPC     C313     CTL2    -0.180000       12.0110           0
     11663 MEMB     101      POPC     H13X     HAL2     0.900000E-01   1.00800           0
     11664 MEMB     101      POPC     H13Y     HAL2     0.900000E-01   1.00800           0
     11665 MEMB     101      POPC     C314     CTL2    -0.180000       12.0110           0
     11666 MEMB     101      POPC     H14X     HAL2     0.900000E-01   1.00800           0
     11667 MEMB     101      POPC     H14Y     HAL2     0.900000E-01   1.00800           0
     11668 MEMB     101      POPC     C315     CTL2    -0.180000       12.0110           0
     11669 MEMB     101      POPC     H15X     HAL2     0.900000E-01   1.00800           0
     11670 MEMB     101      POPC     H15Y     HAL2     0.900000E-01   1.00800           0
     11671 MEMB     101      POPC     C316     CTL3    -0.270000       12.0110           0
     11672 MEMB     101      POPC     H16X     HAL3     0.900000E-01   1.00800           0
     11673 MEMB     101      POPC     H16Y     HAL3     0.900000E-01   1.00800           0
     11674 MEMB     101      POPC     H16Z     HAL3     0.900000E-01   1.00800           0
     11675 MEMB     102      POPC     N        NTL     -0.600000       14.0070           0
     11676 MEMB     102      POPC     C12      CTL2    -0.100000       12.0110           0
     11677 MEMB     102      POPC     H12A     HL       0.250000       1.00800           0
     11678 MEMB     102      POPC     H12B     HL       0.250000       1.00800           0
     11679 MEMB     102      POPC     C13      CTL5    -0.350000       12.0110           0
     11680 MEMB     102      POPC     H13A     HL       0.250000       1.00800           0
     11681 MEMB     102      POPC     H13B     HL       0.250000       1.00800           0
     11682 MEMB     102      POPC     H13C     HL       0.250000       1.00800           0
     11683 MEMB     102      POPC     C14      CTL5    -0.350000       12.0110           0
     11684 MEMB     102      POPC     H14A     HL       0.250000       1.00800           0
     11685 MEMB     102      POPC     H14B     HL       0.250000       1.00800           0
     11686 MEMB     102      POPC     H14C     HL       0.250000       1.00800           0
     11687 MEMB     102      POPC     C15      CTL5    -0.350000       12.0110           0
     11688 MEMB     102      POPC     H15A     HL       0.250000       1.00800           0
     11689 MEMB     102      POPC     H15B     HL       0.250000       1.00800           0
     11690 MEMB     102      POPC     H15C     HL       0.250000       1.00800           0
     11691 MEMB     102      POPC     C11      CTL2    -0.800000E-01   12.0110           0
     11692 MEMB     102      POPC     H11A     HAL2     0.900000E-01   1.00800           0
     11693 MEMB     102      POPC     H11B     HAL2     0.900000E-01   1.00800           0
     11694 MEMB     102      POPC     P        PL        1.50000       30.9740           0
     11695 MEMB     102      POPC     O13      O2L     -0.780000       15.9994           0
     11696 MEMB     102      POPC     O14      O2L     -0.780000       15.9994           0
     11697 MEMB     102      POPC     O12      OSLP    -0.570000       15.9994           0
     11698 MEMB     102      POPC     O11      OSLP    -0.570000       15.9994           0
     11699 MEMB     102      POPC     C1       CTL2    -0.800000E-01   12.0110           0
     11700 MEMB     102      POPC     HA       HAL2     0.900000E-01   1.00800           0
     11701 MEMB     102      POPC     HB       HAL2     0.900000E-01   1.00800           0
     11702 MEMB     102      POPC     C2       CTL1     0.170000       12.0110           0
     11703 MEMB     102      POPC     HS       HAL1     0.900000E-01   1.00800           0
     11704 MEMB     102      POPC     O21      OSL     -0.490000       15.9994           0
     11705 MEMB     102      POPC     C21      CL       0.900000       12.0110           0
     11706 MEMB     102      POPC     O22      OBL     -0.630000       15.9994           0
     11707 MEMB     102      POPC     C22      CTL2    -0.220000       12.0110           0
     11708 MEMB     102      POPC     H2R      HAL2     0.900000E-01   1.00800           0
     11709 MEMB     102      POPC     H2S      HAL2     0.900000E-01   1.00800           0
     11710 MEMB     102      POPC     C3       CTL2     0.800000E-01   12.0110           0
     11711 MEMB     102      POPC     HX       HAL2     0.900000E-01   1.00800           0
     11712 MEMB     102      POPC     HY       HAL2     0.900000E-01   1.00800           0
     11713 MEMB     102      POPC     O31      OSL     -0.490000       15.9994           0
     11714 MEMB     102      POPC     C31      CL       0.900000       12.0110           0
     11715 MEMB     102      POPC     O32      OBL     -0.630000       15.9994           0
     11716 MEMB     102      POPC     C32      CTL2    -0.220000       12.0110           0
     11717 MEMB     102      POPC     H2X      HAL2     0.900000E-01   1.00800           0
     11718 MEMB     102      POPC     H2Y      HAL2     0.900000E-01   1.00800           0
     11719 MEMB     102      POPC     C23      CTL2    -0.180000       12.0110           0
     11720 MEMB     102      POPC     H3R      HAL2     0.900000E-01   1.00800           0
     11721 MEMB     102      POPC     H3S      HAL2     0.900000E-01   1.00800           0
     11722 MEMB     102      POPC     C24      CTL2    -0.180000       12.0110           0
     11723 MEMB     102      POPC     H4R      HAL2     0.900000E-01   1.00800           0
     11724 MEMB     102      POPC     H4S      HAL2     0.900000E-01   1.00800           0
     11725 MEMB     102      POPC     C25      CTL2    -0.180000       12.0110           0
     11726 MEMB     102      POPC     H5R      HAL2     0.900000E-01   1.00800           0
     11727 MEMB     102      POPC     H5S      HAL2     0.900000E-01   1.00800           0
     11728 MEMB     102      POPC     C26      CTL2    -0.180000       12.0110           0
     11729 MEMB     102      POPC     H6R      HAL2     0.900000E-01   1.00800           0
     11730 MEMB     102      POPC     H6S      HAL2     0.900000E-01   1.00800           0
     11731 MEMB     102      POPC     C27      CTL2    -0.180000       12.0110           0
     11732 MEMB     102      POPC     H7R      HAL2     0.900000E-01   1.00800           0
     11733 MEMB     102      POPC     H7S      HAL2     0.900000E-01   1.00800           0
     11734 MEMB     102      POPC     C28      CTL2    -0.180000       12.0110           0
     11735 MEMB     102      POPC     H8R      HAL2     0.900000E-01   1.00800           0
     11736 MEMB     102      POPC     H8S      HAL2     0.900000E-01   1.00800           0
     11737 MEMB     102      POPC     C29      CEL1    -0.150000       12.0110           0
     11738 MEMB     102      POPC     H91      HEL1     0.150000       1.00800           0
     11739 MEMB     102      POPC     C210     CEL1    -0.150000       12.0110           0
     11740 MEMB     102      POPC     H101     HEL1     0.150000       1.00800           0
     11741 MEMB     102      POPC     C211     CTL2    -0.180000       12.0110           0
     11742 MEMB     102      POPC     H11R     HAL2     0.900000E-01   1.00800           0
     11743 MEMB     102      POPC     H11S     HAL2     0.900000E-01   1.00800           0
     11744 MEMB     102      POPC     C212     CTL2    -0.180000       12.0110           0
     11745 MEMB     102      POPC     H12R     HAL2     0.900000E-01   1.00800           0
     11746 MEMB     102      POPC     H12S     HAL2     0.900000E-01   1.00800           0
     11747 MEMB     102      POPC     C213     CTL2    -0.180000       12.0110           0
     11748 MEMB     102      POPC     H13R     HAL2     0.900000E-01   1.00800           0
     11749 MEMB     102      POPC     H13S     HAL2     0.900000E-01   1.00800           0
     11750 MEMB     102      POPC     C214     CTL2    -0.180000       12.0110           0
     11751 MEMB     102      POPC     H14R     HAL2     0.900000E-01   1.00800           0
     11752 MEMB     102      POPC     H14S     HAL2     0.900000E-01   1.00800           0
     11753 MEMB     102      POPC     C215     CTL2    -0.180000       12.0110           0
     11754 MEMB     102      POPC     H15R     HAL2     0.900000E-01   1.00800           0
     11755 MEMB     102      POPC     H15S     HAL2     0.900000E-01   1.00800           0
     11756 MEMB     102      POPC     C216     CTL2    -0.180000       12.0110           0
     11757 MEMB     102      POPC     H16R     HAL2     0.900000E-01   1.00800           0
     11758 MEMB     102      POPC     H16S     HAL2     0.900000E-01   1.00800           0
     11759 MEMB     102      POPC     C217     CTL2    -0.180000       12.0110           0
     11760 MEMB     102      POPC     H17R     HAL2     0.900000E-01   1.00800           0
     11761 MEMB     102      POPC     H17S     HAL2     0.900000E-01   1.00800           0
     11762 MEMB     102      POPC     C218     CTL3    -0.270000       12.0110           0
     11763 MEMB     102      POPC     H18R     HAL3     0.900000E-01   1.00800           0
     11764 MEMB     102      POPC     H18S     HAL3     0.900000E-01   1.00800           0
     11765 MEMB     102      POPC     H18T     HAL3     0.900000E-01   1.00800           0
     11766 MEMB     102      POPC     C33      CTL2    -0.180000       12.0110           0
     11767 MEMB     102      POPC     H3X      HAL2     0.900000E-01   1.00800           0
     11768 MEMB     102      POPC     H3Y      HAL2     0.900000E-01   1.00800           0
     11769 MEMB     102      POPC     C34      CTL2    -0.180000       12.0110           0
     11770 MEMB     102      POPC     H4X      HAL2     0.900000E-01   1.00800           0
     11771 MEMB     102      POPC     H4Y      HAL2     0.900000E-01   1.00800           0
     11772 MEMB     102      POPC     C35      CTL2    -0.180000       12.0110           0
     11773 MEMB     102      POPC     H5X      HAL2     0.900000E-01   1.00800           0
     11774 MEMB     102      POPC     H5Y      HAL2     0.900000E-01   1.00800           0
     11775 MEMB     102      POPC     C36      CTL2    -0.180000       12.0110           0
     11776 MEMB     102      POPC     H6X      HAL2     0.900000E-01   1.00800           0
     11777 MEMB     102      POPC     H6Y      HAL2     0.900000E-01   1.00800           0
     11778 MEMB     102      POPC     C37      CTL2    -0.180000       12.0110           0
     11779 MEMB     102      POPC     H7X      HAL2     0.900000E-01   1.00800           0
     11780 MEMB     102      POPC     H7Y      HAL2     0.900000E-01   1.00800           0
     11781 MEMB     102      POPC     C38      CTL2    -0.180000       12.0110           0
     11782 MEMB     102      POPC     H8X      HAL2     0.900000E-01   1.00800           0
     11783 MEMB     102      POPC     H8Y      HAL2     0.900000E-01   1.00800           0
     11784 MEMB     102      POPC     C39      CTL2    -0.180000       12.0110           0
     11785 MEMB     102      POPC     H9X      HAL2     0.900000E-01   1.00800           0
     11786 MEMB     102      POPC     H9Y      HAL2     0.900000E-01   1.00800           0
     11787 MEMB     102      POPC     C310     CTL2    -0.180000       12.0110           0
     11788 MEMB     102      POPC     H10X     HAL2     0.900000E-01   1.00800           0
     11789 MEMB     102      POPC     H10Y     HAL2     0.900000E-01   1.00800           0
     11790 MEMB     102      POPC     C311     CTL2    -0.180000       12.0110           0
     11791 MEMB     102      POPC     H11X     HAL2     0.900000E-01   1.00800           0
     11792 MEMB     102      POPC     H11Y     HAL2     0.900000E-01   1.00800           0
     11793 MEMB     102      POPC     C312     CTL2    -0.180000       12.0110           0
     11794 MEMB     102      POPC     H12X     HAL2     0.900000E-01   1.00800           0
     11795 MEMB     102      POPC     H12Y     HAL2     0.900000E-01   1.00800           0
     11796 MEMB     102      POPC     C313     CTL2    -0.180000       12.0110           0
     11797 MEMB     102      POPC     H13X     HAL2     0.900000E-01   1.00800           0
     11798 MEMB     102      POPC     H13Y     HAL2     0.900000E-01   1.00800           0
     11799 MEMB     102      POPC     C314     CTL2    -0.180000       12.0110           0
     11800 MEMB     102      POPC     H14X     HAL2     0.900000E-01   1.00800           0
     11801 MEMB     102      POPC     H14Y     HAL2     0.900000E-01   1.00800           0
     11802 MEMB     102      POPC     C315     CTL2    -0.180000       12.0110           0
     11803 MEMB     102      POPC     H15X     HAL2     0.900000E-01   1.00800           0
     11804 MEMB     102      POPC     H15Y     HAL2     0.900000E-01   1.00800           0
     11805 MEMB     102      POPC     C316     CTL3    -0.270000       12.0110           0
     11806 MEMB     102      POPC     H16X     HAL3     0.900000E-01   1.00800           0
     11807 MEMB     102      POPC     H16Y     HAL3     0.900000E-01   1.00800           0
     11808 MEMB     102      POPC     H16Z     HAL3     0.900000E-01   1.00800           0
     11809 MEMB     103      POPC     N        NTL     -0.600000       14.0070           0
     11810 MEMB     103      POPC     C12      CTL2    -0.100000       12.0110           0
     11811 MEMB     103      POPC     H12A     HL       0.250000       1.00800           0
     11812 MEMB     103      POPC     H12B     HL       0.250000       1.00800           0
     11813 MEMB     103      POPC     C13      CTL5    -0.350000       12.0110           0
     11814 MEMB     103      POPC     H13A     HL       0.250000       1.00800           0
     11815 MEMB     103      POPC     H13B     HL       0.250000       1.00800           0
     11816 MEMB     103      POPC     H13C     HL       0.250000       1.00800           0
     11817 MEMB     103      POPC     C14      CTL5    -0.350000       12.0110           0
     11818 MEMB     103      POPC     H14A     HL       0.250000       1.00800           0
     11819 MEMB     103      POPC     H14B     HL       0.250000       1.00800           0
     11820 MEMB     103      POPC     H14C     HL       0.250000       1.00800           0
     11821 MEMB     103      POPC     C15      CTL5    -0.350000       12.0110           0
     11822 MEMB     103      POPC     H15A     HL       0.250000       1.00800           0
     11823 MEMB     103      POPC     H15B     HL       0.250000       1.00800           0
     11824 MEMB     103      POPC     H15C     HL       0.250000       1.00800           0
     11825 MEMB     103      POPC     C11      CTL2    -0.800000E-01   12.0110           0
     11826 MEMB     103      POPC     H11A     HAL2     0.900000E-01   1.00800           0
     11827 MEMB     103      POPC     H11B     HAL2     0.900000E-01   1.00800           0
     11828 MEMB     103      POPC     P        PL        1.50000       30.9740           0
     11829 MEMB     103      POPC     O13      O2L     -0.780000       15.9994           0
     11830 MEMB     103      POPC     O14      O2L     -0.780000       15.9994           0
     11831 MEMB     103      POPC     O12      OSLP    -0.570000       15.9994           0
     11832 MEMB     103      POPC     O11      OSLP    -0.570000       15.9994           0
     11833 MEMB     103      POPC     C1       CTL2    -0.800000E-01   12.0110           0
     11834 MEMB     103      POPC     HA       HAL2     0.900000E-01   1.00800           0
     11835 MEMB     103      POPC     HB       HAL2     0.900000E-01   1.00800           0
     11836 MEMB     103      POPC     C2       CTL1     0.170000       12.0110           0
     11837 MEMB     103      POPC     HS       HAL1     0.900000E-01   1.00800           0
     11838 MEMB     103      POPC     O21      OSL     -0.490000       15.9994           0
     11839 MEMB     103      POPC     C21      CL       0.900000       12.0110           0
     11840 MEMB     103      POPC     O22      OBL     -0.630000       15.9994           0
     11841 MEMB     103      POPC     C22      CTL2    -0.220000       12.0110           0
     11842 MEMB     103      POPC     H2R      HAL2     0.900000E-01   1.00800           0
     11843 MEMB     103      POPC     H2S      HAL2     0.900000E-01   1.00800           0
     11844 MEMB     103      POPC     C3       CTL2     0.800000E-01   12.0110           0
     11845 MEMB     103      POPC     HX       HAL2     0.900000E-01   1.00800           0
     11846 MEMB     103      POPC     HY       HAL2     0.900000E-01   1.00800           0
     11847 MEMB     103      POPC     O31      OSL     -0.490000       15.9994           0
     11848 MEMB     103      POPC     C31      CL       0.900000       12.0110           0
     11849 MEMB     103      POPC     O32      OBL     -0.630000       15.9994           0
     11850 MEMB     103      POPC     C32      CTL2    -0.220000       12.0110           0
     11851 MEMB     103      POPC     H2X      HAL2     0.900000E-01   1.00800           0
     11852 MEMB     103      POPC     H2Y      HAL2     0.900000E-01   1.00800           0
     11853 MEMB     103      POPC     C23      CTL2    -0.180000       12.0110           0
     11854 MEMB     103      POPC     H3R      HAL2     0.900000E-01   1.00800           0
     11855 MEMB     103      POPC     H3S      HAL2     0.900000E-01   1.00800           0
     11856 MEMB     103      POPC     C24      CTL2    -0.180000       12.0110           0
     11857 MEMB     103      POPC     H4R      HAL2     0.900000E-01   1.00800           0
     11858 MEMB     103      POPC     H4S      HAL2     0.900000E-01   1.00800           0
     11859 MEMB     103      POPC     C25      CTL2    -0.180000       12.0110           0
     11860 MEMB     103      POPC     H5R      HAL2     0.900000E-01   1.00800           0
     11861 MEMB     103      POPC     H5S      HAL2     0.900000E-01   1.00800           0
     11862 MEMB     103      POPC     C26      CTL2    -0.180000       12.0110           0
     11863 MEMB     103      POPC     H6R      HAL2     0.900000E-01   1.00800           0
     11864 MEMB     103      POPC     H6S      HAL2     0.900000E-01   1.00800           0
     11865 MEMB     103      POPC     C27      CTL2    -0.180000       12.0110           0
     11866 MEMB     103      POPC     H7R      HAL2     0.900000E-01   1.00800           0
     11867 MEMB     103      POPC     H7S      HAL2     0.900000E-01   1.00800           0
     11868 MEMB     103      POPC     C28      CTL2    -0.180000       12.0110           0
     11869 MEMB     103      POPC     H8R      HAL2     0.900000E-01   1.00800           0
     11870 MEMB     103      POPC     H8S      HAL2     0.900000E-01   1.00800           0
     11871 MEMB     103      POPC     C29      CEL1    -0.150000       12.0110           0
     11872 MEMB     103      POPC     H91      HEL1     0.150000       1.00800           0
     11873 MEMB     103      POPC     C210     CEL1    -0.150000       12.0110           0
     11874 MEMB     103      POPC     H101     HEL1     0.150000       1.00800           0
     11875 MEMB     103      POPC     C211     CTL2    -0.180000       12.0110           0
     11876 MEMB     103      POPC     H11R     HAL2     0.900000E-01   1.00800           0
     11877 MEMB     103      POPC     H11S     HAL2     0.900000E-01   1.00800           0
     11878 MEMB     103      POPC     C212     CTL2    -0.180000       12.0110           0
     11879 MEMB     103      POPC     H12R     HAL2     0.900000E-01   1.00800           0
     11880 MEMB     103      POPC     H12S     HAL2     0.900000E-01   1.00800           0
     11881 MEMB     103      POPC     C213     CTL2    -0.180000       12.0110           0
     11882 MEMB     103      POPC     H13R     HAL2     0.900000E-01   1.00800           0
     11883 MEMB     103      POPC     H13S     HAL2     0.900000E-01   1.00800           0
     11884 MEMB     103      POPC     C214     CTL2    -0.180000       12.0110           0
     11885 MEMB     103      POPC     H14R     HAL2     0.900000E-01   1.00800           0
     11886 MEMB     103      POPC     H14S     HAL2     0.900000E-01   1.00800           0
     11887 MEMB     103      POPC     C215     CTL2    -0.180000       12.0110           0
     11888 MEMB     103      POPC     H15R     HAL2     0.900000E-01   1.00800           0
     11889 MEMB     103      POPC     H15S     HAL2     0.900000E-01   1.00800           0
     11890 MEMB     103      POPC     C216     CTL2    -0.180000       12.0110           0
     11891 MEMB     103      POPC     H16R     HAL2     0.900000E-01   1.00800           0
     11892 MEMB     103      POPC     H16S     HAL2     0.900000E-01   1.00800           0
     11893 MEMB     103      POPC     C217     CTL2    -0.180000       12.0110           0
     11894 MEMB     103      POPC     H17R     HAL2     0.900000E-01   1.00800           0
     11895 MEMB     103      POPC     H17S     HAL2     0.900000E-01   1.00800           0
     11896 MEMB     103      POPC     C218     CTL3    -0.270000       12.0110           0
     11897 MEMB     103      POPC     H18R     HAL3     0.900000E-01   1.00800           0
     11898 MEMB     103      POPC     H18S     HAL3     0.900000E-01   1.00800           0
     11899 MEMB     103      POPC     H18T     HAL3     0.900000E-01   1.00800           0
     11900 MEMB     103      POPC     C33      CTL2    -0.180000       12.0110           0
     11901 MEMB     103      POPC     H3X      HAL2     0.900000E-01   1.00800           0
     11902 MEMB     103      POPC     H3Y      HAL2     0.900000E-01   1.00800           0
     11903 MEMB     103      POPC     C34      CTL2    -0.180000       12.0110           0
     11904 MEMB     103      POPC     H4X      HAL2     0.900000E-01   1.00800           0
     11905 MEMB     103      POPC     H4Y      HAL2     0.900000E-01   1.00800           0
     11906 MEMB     103      POPC     C35      CTL2    -0.180000       12.0110           0
     11907 MEMB     103      POPC     H5X      HAL2     0.900000E-01   1.00800           0
     11908 MEMB     103      POPC     H5Y      HAL2     0.900000E-01   1.00800           0
     11909 MEMB     103      POPC     C36      CTL2    -0.180000       12.0110           0
     11910 MEMB     103      POPC     H6X      HAL2     0.900000E-01   1.00800           0
     11911 MEMB     103      POPC     H6Y      HAL2     0.900000E-01   1.00800           0
     11912 MEMB     103      POPC     C37      CTL2    -0.180000       12.0110           0
     11913 MEMB     103      POPC     H7X      HAL2     0.900000E-01   1.00800           0
     11914 MEMB     103      POPC     H7Y      HAL2     0.900000E-01   1.00800           0
     11915 MEMB     103      POPC     C38      CTL2    -0.180000       12.0110           0
     11916 MEMB     103      POPC     H8X      HAL2     0.900000E-01   1.00800           0
     11917 MEMB     103      POPC     H8Y      HAL2     0.900000E-01   1.00800           0
     11918 MEMB     103      POPC     C39      CTL2    -0.180000       12.0110           0
     11919 MEMB     103      POPC     H9X      HAL2     0.900000E-01   1.00800           0
     11920 MEMB     103      POPC     H9Y      HAL2     0.900000E-01   1.00800           0
     11921 MEMB     103      POPC     C310     CTL2    -0.180000       12.0110           0
     11922 MEMB     103      POPC     H10X     HAL2     0.900000E-01   1.00800           0
     11923 MEMB     103      POPC     H10Y     HAL2     0.900000E-01   1.00800           0
     11924 MEMB     103      POPC     C311     CTL2    -0.180000       12.0110           0
     11925 MEMB     103      POPC     H11X     HAL2     0.900000E-01   1.00800           0
     11926 MEMB     103      POPC     H11Y     HAL2     0.900000E-01   1.00800           0
     11927 MEMB     103      POPC     C312     CTL2    -0.180000       12.0110           0
     11928 MEMB     103      POPC     H12X     HAL2     0.900000E-01   1.00800           0
     11929 MEMB     103      POPC     H12Y     HAL2     0.900000E-01   1.00800           0
     11930 MEMB     103      POPC     C313     CTL2    -0.180000       12.0110           0
     11931 MEMB     103      POPC     H13X     HAL2     0.900000E-01   1.00800           0
     11932 MEMB     103      POPC     H13Y     HAL2     0.900000E-01   1.00800           0
     11933 MEMB     103      POPC     C314     CTL2    -0.180000       12.0110           0
     11934 MEMB     103      POPC     H14X     HAL2     0.900000E-01   1.00800           0
     11935 MEMB     103      POPC     H14Y     HAL2     0.900000E-01   1.00800           0
     11936 MEMB     103      POPC     C315     CTL2    -0.180000       12.0110           0
     11937 MEMB     103      POPC     H15X     HAL2     0.900000E-01   1.00800           0
     11938 MEMB     103      POPC     H15Y     HAL2     0.900000E-01   1.00800           0
     11939 MEMB     103      POPC     C316     CTL3    -0.270000       12.0110           0
     11940 MEMB     103      POPC     H16X     HAL3     0.900000E-01   1.00800           0
     11941 MEMB     103      POPC     H16Y     HAL3     0.900000E-01   1.00800           0
     11942 MEMB     103      POPC     H16Z     HAL3     0.900000E-01   1.00800           0
     11943 MEMB     104      POPC     N        NTL     -0.600000       14.0070           0
     11944 MEMB     104      POPC     C12      CTL2    -0.100000       12.0110           0
     11945 MEMB     104      POPC     H12A     HL       0.250000       1.00800           0
     11946 MEMB     104      POPC     H12B     HL       0.250000       1.00800           0
     11947 MEMB     104      POPC     C13      CTL5    -0.350000       12.0110           0
     11948 MEMB     104      POPC     H13A     HL       0.250000       1.00800           0
     11949 MEMB     104      POPC     H13B     HL       0.250000       1.00800           0
     11950 MEMB     104      POPC     H13C     HL       0.250000       1.00800           0
     11951 MEMB     104      POPC     C14      CTL5    -0.350000       12.0110           0
     11952 MEMB     104      POPC     H14A     HL       0.250000       1.00800           0
     11953 MEMB     104      POPC     H14B     HL       0.250000       1.00800           0
     11954 MEMB     104      POPC     H14C     HL       0.250000       1.00800           0
     11955 MEMB     104      POPC     C15      CTL5    -0.350000       12.0110           0
     11956 MEMB     104      POPC     H15A     HL       0.250000       1.00800           0
     11957 MEMB     104      POPC     H15B     HL       0.250000       1.00800           0
     11958 MEMB     104      POPC     H15C     HL       0.250000       1.00800           0
     11959 MEMB     104      POPC     C11      CTL2    -0.800000E-01   12.0110           0
     11960 MEMB     104      POPC     H11A     HAL2     0.900000E-01   1.00800           0
     11961 MEMB     104      POPC     H11B     HAL2     0.900000E-01   1.00800           0
     11962 MEMB     104      POPC     P        PL        1.50000       30.9740           0
     11963 MEMB     104      POPC     O13      O2L     -0.780000       15.9994           0
     11964 MEMB     104      POPC     O14      O2L     -0.780000       15.9994           0
     11965 MEMB     104      POPC     O12      OSLP    -0.570000       15.9994           0
     11966 MEMB     104      POPC     O11      OSLP    -0.570000       15.9994           0
     11967 MEMB     104      POPC     C1       CTL2    -0.800000E-01   12.0110           0
     11968 MEMB     104      POPC     HA       HAL2     0.900000E-01   1.00800           0
     11969 MEMB     104      POPC     HB       HAL2     0.900000E-01   1.00800           0
     11970 MEMB     104      POPC     C2       CTL1     0.170000       12.0110           0
     11971 MEMB     104      POPC     HS       HAL1     0.900000E-01   1.00800           0
     11972 MEMB     104      POPC     O21      OSL     -0.490000       15.9994           0
     11973 MEMB     104      POPC     C21      CL       0.900000       12.0110           0
     11974 MEMB     104      POPC     O22      OBL     -0.630000       15.9994           0
     11975 MEMB     104      POPC     C22      CTL2    -0.220000       12.0110           0
     11976 MEMB     104      POPC     H2R      HAL2     0.900000E-01   1.00800           0
     11977 MEMB     104      POPC     H2S      HAL2     0.900000E-01   1.00800           0
     11978 MEMB     104      POPC     C3       CTL2     0.800000E-01   12.0110           0
     11979 MEMB     104      POPC     HX       HAL2     0.900000E-01   1.00800           0
     11980 MEMB     104      POPC     HY       HAL2     0.900000E-01   1.00800           0
     11981 MEMB     104      POPC     O31      OSL     -0.490000       15.9994           0
     11982 MEMB     104      POPC     C31      CL       0.900000       12.0110           0
     11983 MEMB     104      POPC     O32      OBL     -0.630000       15.9994           0
     11984 MEMB     104      POPC     C32      CTL2    -0.220000       12.0110           0
     11985 MEMB     104      POPC     H2X      HAL2     0.900000E-01   1.00800           0
     11986 MEMB     104      POPC     H2Y      HAL2     0.900000E-01   1.00800           0
     11987 MEMB     104      POPC     C23      CTL2    -0.180000       12.0110           0
     11988 MEMB     104      POPC     H3R      HAL2     0.900000E-01   1.00800           0
     11989 MEMB     104      POPC     H3S      HAL2     0.900000E-01   1.00800           0
     11990 MEMB     104      POPC     C24      CTL2    -0.180000       12.0110           0
     11991 MEMB     104      POPC     H4R      HAL2     0.900000E-01   1.00800           0
     11992 MEMB     104      POPC     H4S      HAL2     0.900000E-01   1.00800           0
     11993 MEMB     104      POPC     C25      CTL2    -0.180000       12.0110           0
     11994 MEMB     104      POPC     H5R      HAL2     0.900000E-01   1.00800           0
     11995 MEMB     104      POPC     H5S      HAL2     0.900000E-01   1.00800           0
     11996 MEMB     104      POPC     C26      CTL2    -0.180000       12.0110           0
     11997 MEMB     104      POPC     H6R      HAL2     0.900000E-01   1.00800           0
     11998 MEMB     104      POPC     H6S      HAL2     0.900000E-01   1.00800           0
     11999 MEMB     104      POPC     C27      CTL2    -0.180000       12.0110           0
     12000 MEMB     104      POPC     H7R      HAL2     0.900000E-01   1.00800           0
     12001 MEMB     104      POPC     H7S      HAL2     0.900000E-01   1.00800           0
     12002 MEMB     104      POPC     C28      CTL2    -0.180000       12.0110           0
     12003 MEMB     104      POPC     H8R      HAL2     0.900000E-01   1.00800           0
     12004 MEMB     104      POPC     H8S      HAL2     0.900000E-01   1.00800           0
     12005 MEMB     104      POPC     C29      CEL1    -0.150000       12.0110           0
     12006 MEMB     104      POPC     H91      HEL1     0.150000       1.00800           0
     12007 MEMB     104      POPC     C210     CEL1    -0.150000       12.0110           0
     12008 MEMB     104      POPC     H101     HEL1     0.150000       1.00800           0
     12009 MEMB     104      POPC     C211     CTL2    -0.180000       12.0110           0
     12010 MEMB     104      POPC     H11R     HAL2     0.900000E-01   1.00800           0
     12011 MEMB     104      POPC     H11S     HAL2     0.900000E-01   1.00800           0
     12012 MEMB     104      POPC     C212     CTL2    -0.180000       12.0110           0
     12013 MEMB     104      POPC     H12R     HAL2     0.900000E-01   1.00800           0
     12014 MEMB     104      POPC     H12S     HAL2     0.900000E-01   1.00800           0
     12015 MEMB     104      POPC     C213     CTL2    -0.180000       12.0110           0
     12016 MEMB     104      POPC     H13R     HAL2     0.900000E-01   1.00800           0
     12017 MEMB     104      POPC     H13S     HAL2     0.900000E-01   1.00800           0
     12018 MEMB     104      POPC     C214     CTL2    -0.180000       12.0110           0
     12019 MEMB     104      POPC     H14R     HAL2     0.900000E-01   1.00800           0
     12020 MEMB     104      POPC     H14S     HAL2     0.900000E-01   1.00800           0
     12021 MEMB     104      POPC     C215     CTL2    -0.180000       12.0110           0
     12022 MEMB     104      POPC     H15R     HAL2     0.900000E-01   1.00800           0
     12023 MEMB     104      POPC     H15S     HAL2     0.900000E-01   1.00800           0
     12024 MEMB     104      POPC     C216     CTL2    -0.180000       12.0110           0
     12025 MEMB     104      POPC     H16R     HAL2     0.900000E-01   1.00800           0
     12026 MEMB     104      POPC     H16S     HAL2     0.900000E-01   1.00800           0
     12027 MEMB     104      POPC     C217     CTL2    -0.180000       12.0110           0
     12028 MEMB     104      POPC     H17R     HAL2     0.900000E-01   1.00800           0
     12029 MEMB     104      POPC     H17S     HAL2     0.900000E-01   1.00800           0
     12030 MEMB     104      POPC     C218     CTL3    -0.270000       12.0110           0
     12031 MEMB     104      POPC     H18R     HAL3     0.900000E-01   1.00800           0
     12032 MEMB     104      POPC     H18S     HAL3     0.900000E-01   1.00800           0
     12033 MEMB     104      POPC     H18T     HAL3     0.900000E-01   1.00800           0
     12034 MEMB     104      POPC     C33      CTL2    -0.180000       12.0110           0
     12035 MEMB     104      POPC     H3X      HAL2     0.900000E-01   1.00800           0
     12036 MEMB     104      POPC     H3Y      HAL2     0.900000E-01   1.00800           0
     12037 MEMB     104      POPC     C34      CTL2    -0.180000       12.0110           0
     12038 MEMB     104      POPC     H4X      HAL2     0.900000E-01   1.00800           0
     12039 MEMB     104      POPC     H4Y      HAL2     0.900000E-01   1.00800           0
     12040 MEMB     104      POPC     C35      CTL2    -0.180000       12.0110           0
     12041 MEMB     104      POPC     H5X      HAL2     0.900000E-01   1.00800           0
     12042 MEMB     104      POPC     H5Y      HAL2     0.900000E-01   1.00800           0
     12043 MEMB     104      POPC     C36      CTL2    -0.180000       12.0110           0
     12044 MEMB     104      POPC     H6X      HAL2     0.900000E-01   1.00800           0
     12045 MEMB     104      POPC     H6Y      HAL2     0.900000E-01   1.00800           0
     12046 MEMB     104      POPC     C37      CTL2    -0.180000       12.0110           0
     12047 MEMB     104      POPC     H7X      HAL2     0.900000E-01   1.00800           0
     12048 MEMB     104      POPC     H7Y      HAL2     0.900000E-01   1.00800           0
     12049 MEMB     104      POPC     C38      CTL2    -0.180000       12.0110           0
     12050 MEMB     104      POPC     H8X      HAL2     0.900000E-01   1.00800           0
     12051 MEMB     104      POPC     H8Y      HAL2     0.900000E-01   1.00800           0
     12052 MEMB     104      POPC     C39      CTL2    -0.180000       12.0110           0
     12053 MEMB     104      POPC     H9X      HAL2     0.900000E-01   1.00800           0
     12054 MEMB     104      POPC     H9Y      HAL2     0.900000E-01   1.00800           0
     12055 MEMB     104      POPC     C310     CTL2    -0.180000       12.0110           0
     12056 MEMB     104      POPC     H10X     HAL2     0.900000E-01   1.00800           0
     12057 MEMB     104      POPC     H10Y     HAL2     0.900000E-01   1.00800           0
     12058 MEMB     104      POPC     C311     CTL2    -0.180000       12.0110           0
     12059 MEMB     104      POPC     H11X     HAL2     0.900000E-01   1.00800           0
     12060 MEMB     104      POPC     H11Y     HAL2     0.900000E-01   1.00800           0
     12061 MEMB     104      POPC     C312     CTL2    -0.180000       12.0110           0
     12062 MEMB     104      POPC     H12X     HAL2     0.900000E-01   1.00800           0
     12063 MEMB     104      POPC     H12Y     HAL2     0.900000E-01   1.00800           0
     12064 MEMB     104      POPC     C313     CTL2    -0.180000       12.0110           0
     12065 MEMB     104      POPC     H13X     HAL2     0.900000E-01   1.00800           0
     12066 MEMB     104      POPC     H13Y     HAL2     0.900000E-01   1.00800           0
     12067 MEMB     104      POPC     C314     CTL2    -0.180000       12.0110           0
     12068 MEMB     104      POPC     H14X     HAL2     0.900000E-01   1.00800           0
     12069 MEMB     104      POPC     H14Y     HAL2     0.900000E-01   1.00800           0
     12070 MEMB     104      POPC     C315     CTL2    -0.180000       12.0110           0
     12071 MEMB     104      POPC     H15X     HAL2     0.900000E-01   1.00800           0
     12072 MEMB     104      POPC     H15Y     HAL2     0.900000E-01   1.00800           0
     12073 MEMB     104      POPC     C316     CTL3    -0.270000       12.0110           0
     12074 MEMB     104      POPC     H16X     HAL3     0.900000E-01   1.00800           0
     12075 MEMB     104      POPC     H16Y     HAL3     0.900000E-01   1.00800           0
     12076 MEMB     104      POPC     H16Z     HAL3     0.900000E-01   1.00800           0
     12077 MEMB     105      POPC     N        NTL     -0.600000       14.0070           0
     12078 MEMB     105      POPC     C12      CTL2    -0.100000       12.0110           0
     12079 MEMB     105      POPC     H12A     HL       0.250000       1.00800           0
     12080 MEMB     105      POPC     H12B     HL       0.250000       1.00800           0
     12081 MEMB     105      POPC     C13      CTL5    -0.350000       12.0110           0
     12082 MEMB     105      POPC     H13A     HL       0.250000       1.00800           0
     12083 MEMB     105      POPC     H13B     HL       0.250000       1.00800           0
     12084 MEMB     105      POPC     H13C     HL       0.250000       1.00800           0
     12085 MEMB     105      POPC     C14      CTL5    -0.350000       12.0110           0
     12086 MEMB     105      POPC     H14A     HL       0.250000       1.00800           0
     12087 MEMB     105      POPC     H14B     HL       0.250000       1.00800           0
     12088 MEMB     105      POPC     H14C     HL       0.250000       1.00800           0
     12089 MEMB     105      POPC     C15      CTL5    -0.350000       12.0110           0
     12090 MEMB     105      POPC     H15A     HL       0.250000       1.00800           0
     12091 MEMB     105      POPC     H15B     HL       0.250000       1.00800           0
     12092 MEMB     105      POPC     H15C     HL       0.250000       1.00800           0
     12093 MEMB     105      POPC     C11      CTL2    -0.800000E-01   12.0110           0
     12094 MEMB     105      POPC     H11A     HAL2     0.900000E-01   1.00800           0
     12095 MEMB     105      POPC     H11B     HAL2     0.900000E-01   1.00800           0
     12096 MEMB     105      POPC     P        PL        1.50000       30.9740           0
     12097 MEMB     105      POPC     O13      O2L     -0.780000       15.9994           0
     12098 MEMB     105      POPC     O14      O2L     -0.780000       15.9994           0
     12099 MEMB     105      POPC     O12      OSLP    -0.570000       15.9994           0
     12100 MEMB     105      POPC     O11      OSLP    -0.570000       15.9994           0
     12101 MEMB     105      POPC     C1       CTL2    -0.800000E-01   12.0110           0
     12102 MEMB     105      POPC     HA       HAL2     0.900000E-01   1.00800           0
     12103 MEMB     105      POPC     HB       HAL2     0.900000E-01   1.00800           0
     12104 MEMB     105      POPC     C2       CTL1     0.170000       12.0110           0
     12105 MEMB     105      POPC     HS       HAL1     0.900000E-01   1.00800           0
     12106 MEMB     105      POPC     O21      OSL     -0.490000       15.9994           0
     12107 MEMB     105      POPC     C21      CL       0.900000       12.0110           0
     12108 MEMB     105      POPC     O22      OBL     -0.630000       15.9994           0
     12109 MEMB     105      POPC     C22      CTL2    -0.220000       12.0110           0
     12110 MEMB     105      POPC     H2R      HAL2     0.900000E-01   1.00800           0
     12111 MEMB     105      POPC     H2S      HAL2     0.900000E-01   1.00800           0
     12112 MEMB     105      POPC     C3       CTL2     0.800000E-01   12.0110           0
     12113 MEMB     105      POPC     HX       HAL2     0.900000E-01   1.00800           0
     12114 MEMB     105      POPC     HY       HAL2     0.900000E-01   1.00800           0
     12115 MEMB     105      POPC     O31      OSL     -0.490000       15.9994           0
     12116 MEMB     105      POPC     C31      CL       0.900000       12.0110           0
     12117 MEMB     105      POPC     O32      OBL     -0.630000       15.9994           0
     12118 MEMB     105      POPC     C32      CTL2    -0.220000       12.0110           0
     12119 MEMB     105      POPC     H2X      HAL2     0.900000E-01   1.00800           0
     12120 MEMB     105      POPC     H2Y      HAL2     0.900000E-01   1.00800           0
     12121 MEMB     105      POPC     C23      CTL2    -0.180000       12.0110           0
     12122 MEMB     105      POPC     H3R      HAL2     0.900000E-01   1.00800           0
     12123 MEMB     105      POPC     H3S      HAL2     0.900000E-01   1.00800           0
     12124 MEMB     105      POPC     C24      CTL2    -0.180000       12.0110           0
     12125 MEMB     105      POPC     H4R      HAL2     0.900000E-01   1.00800           0
     12126 MEMB     105      POPC     H4S      HAL2     0.900000E-01   1.00800           0
     12127 MEMB     105      POPC     C25      CTL2    -0.180000       12.0110           0
     12128 MEMB     105      POPC     H5R      HAL2     0.900000E-01   1.00800           0
     12129 MEMB     105      POPC     H5S      HAL2     0.900000E-01   1.00800           0
     12130 MEMB     105      POPC     C26      CTL2    -0.180000       12.0110           0
     12131 MEMB     105      POPC     H6R      HAL2     0.900000E-01   1.00800           0
     12132 MEMB     105      POPC     H6S      HAL2     0.900000E-01   1.00800           0
     12133 MEMB     105      POPC     C27      CTL2    -0.180000       12.0110           0
     12134 MEMB     105      POPC     H7R      HAL2     0.900000E-01   1.00800           0
     12135 MEMB     105      POPC     H7S      HAL2     0.900000E-01   1.00800           0
     12136 MEMB     105      POPC     C28      CTL2    -0.180000       12.0110           0
     12137 MEMB     105      POPC     H8R      HAL2     0.900000E-01   1.00800           0
     12138 MEMB     105      POPC     H8S      HAL2     0.900000E-01   1.00800           0
     12139 MEMB     105      POPC     C29      CEL1    -0.150000       12.0110           0
     12140 MEMB     105      POPC     H91      HEL1     0.150000       1.00800           0
     12141 MEMB     105      POPC     C210     CEL1    -0.150000       12.0110           0
     12142 MEMB     105      POPC     H101     HEL1     0.150000       1.00800           0
     12143 MEMB     105      POPC     C211     CTL2    -0.180000       12.0110           0
     12144 MEMB     105      POPC     H11R     HAL2     0.900000E-01   1.00800           0
     12145 MEMB     105      POPC     H11S     HAL2     0.900000E-01   1.00800           0
     12146 MEMB     105      POPC     C212     CTL2    -0.180000       12.0110           0
     12147 MEMB     105      POPC     H12R     HAL2     0.900000E-01   1.00800           0
     12148 MEMB     105      POPC     H12S     HAL2     0.900000E-01   1.00800           0
     12149 MEMB     105      POPC     C213     CTL2    -0.180000       12.0110           0
     12150 MEMB     105      POPC     H13R     HAL2     0.900000E-01   1.00800           0
     12151 MEMB     105      POPC     H13S     HAL2     0.900000E-01   1.00800           0
     12152 MEMB     105      POPC     C214     CTL2    -0.180000       12.0110           0
     12153 MEMB     105      POPC     H14R     HAL2     0.900000E-01   1.00800           0
     12154 MEMB     105      POPC     H14S     HAL2     0.900000E-01   1.00800           0
     12155 MEMB     105      POPC     C215     CTL2    -0.180000       12.0110           0
     12156 MEMB     105      POPC     H15R     HAL2     0.900000E-01   1.00800           0
     12157 MEMB     105      POPC     H15S     HAL2     0.900000E-01   1.00800           0
     12158 MEMB     105      POPC     C216     CTL2    -0.180000       12.0110           0
     12159 MEMB     105      POPC     H16R     HAL2     0.900000E-01   1.00800           0
     12160 MEMB     105      POPC     H16S     HAL2     0.900000E-01   1.00800           0
     12161 MEMB     105      POPC     C217     CTL2    -0.180000       12.0110           0
     12162 MEMB     105      POPC     H17R     HAL2     0.900000E-01   1.00800           0
     12163 MEMB     105      POPC     H17S     HAL2     0.900000E-01   1.00800           0
     12164 MEMB     105      POPC     C218     CTL3    -0.270000       12.0110           0
     12165 MEMB     105      POPC     H18R     HAL3     0.900000E-01   1.00800           0
     12166 MEMB     105      POPC     H18S     HAL3     0.900000E-01   1.00800           0
     12167 MEMB     105      POPC     H18T     HAL3     0.900000E-01   1.00800           0
     12168 MEMB     105      POPC     C33      CTL2    -0.180000       12.0110           0
     12169 MEMB     105      POPC     H3X      HAL2     0.900000E-01   1.00800           0
     12170 MEMB     105      POPC     H3Y      HAL2     0.900000E-01   1.00800           0
     12171 MEMB     105      POPC     C34      CTL2    -0.180000       12.0110           0
     12172 MEMB     105      POPC     H4X      HAL2     0.900000E-01   1.00800           0
     12173 MEMB     105      POPC     H4Y      HAL2     0.900000E-01   1.00800           0
     12174 MEMB     105      POPC     C35      CTL2    -0.180000       12.0110           0
     12175 MEMB     105      POPC     H5X      HAL2     0.900000E-01   1.00800           0
     12176 MEMB     105      POPC     H5Y      HAL2     0.900000E-01   1.00800           0
     12177 MEMB     105      POPC     C36      CTL2    -0.180000       12.0110           0
     12178 MEMB     105      POPC     H6X      HAL2     0.900000E-01   1.00800           0
     12179 MEMB     105      POPC     H6Y      HAL2     0.900000E-01   1.00800           0
     12180 MEMB     105      POPC     C37      CTL2    -0.180000       12.0110           0
     12181 MEMB     105      POPC     H7X      HAL2     0.900000E-01   1.00800           0
     12182 MEMB     105      POPC     H7Y      HAL2     0.900000E-01   1.00800           0
     12183 MEMB     105      POPC     C38      CTL2    -0.180000       12.0110           0
     12184 MEMB     105      POPC     H8X      HAL2     0.900000E-01   1.00800           0
     12185 MEMB     105      POPC     H8Y      HAL2     0.900000E-01   1.00800           0
     12186 MEMB     105      POPC     C39      CTL2    -0.180000       12.0110           0
     12187 MEMB     105      POPC     H9X      HAL2     0.900000E-01   1.00800           0
     12188 MEMB     105      POPC     H9Y      HAL2     0.900000E-01   1.00800           0
     12189 MEMB     105      POPC     C310     CTL2    -0.180000       12.0110           0
     12190 MEMB     105      POPC     H10X     HAL2     0.900000E-01   1.00800           0
     12191 MEMB     105      POPC     H10Y     HAL2     0.900000E-01   1.00800           0
     12192 MEMB     105      POPC     C311     CTL2    -0.180000       12.0110           0
     12193 MEMB     105      POPC     H11X     HAL2     0.900000E-01   1.00800           0
     12194 MEMB     105      POPC     H11Y     HAL2     0.900000E-01   1.00800           0
     12195 MEMB     105      POPC     C312     CTL2    -0.180000       12.0110           0
     12196 MEMB     105      POPC     H12X     HAL2     0.900000E-01   1.00800           0
     12197 MEMB     105      POPC     H12Y     HAL2     0.900000E-01   1.00800           0
     12198 MEMB     105      POPC     C313     CTL2    -0.180000       12.0110           0
     12199 MEMB     105      POPC     H13X     HAL2     0.900000E-01   1.00800           0
     12200 MEMB     105      POPC     H13Y     HAL2     0.900000E-01   1.00800           0
     12201 MEMB     105      POPC     C314     CTL2    -0.180000       12.0110           0
     12202 MEMB     105      POPC     H14X     HAL2     0.900000E-01   1.00800           0
     12203 MEMB     105      POPC     H14Y     HAL2     0.900000E-01   1.00800           0
     12204 MEMB     105      POPC     C315     CTL2    -0.180000       12.0110           0
     12205 MEMB     105      POPC     H15X     HAL2     0.900000E-01   1.00800           0
     12206 MEMB     105      POPC     H15Y     HAL2     0.900000E-01   1.00800           0
     12207 MEMB     105      POPC     C316     CTL3    -0.270000       12.0110           0
     12208 MEMB     105      POPC     H16X     HAL3     0.900000E-01   1.00800           0
     12209 MEMB     105      POPC     H16Y     HAL3     0.900000E-01   1.00800           0
     12210 MEMB     105      POPC     H16Z     HAL3     0.900000E-01   1.00800           0
     12211 MEMB     106      POPC     N        NTL     -0.600000       14.0070           0
     12212 MEMB     106      POPC     C12      CTL2    -0.100000       12.0110           0
     12213 MEMB     106      POPC     H12A     HL       0.250000       1.00800           0
     12214 MEMB     106      POPC     H12B     HL       0.250000       1.00800           0
     12215 MEMB     106      POPC     C13      CTL5    -0.350000       12.0110           0
     12216 MEMB     106      POPC     H13A     HL       0.250000       1.00800           0
     12217 MEMB     106      POPC     H13B     HL       0.250000       1.00800           0
     12218 MEMB     106      POPC     H13C     HL       0.250000       1.00800           0
     12219 MEMB     106      POPC     C14      CTL5    -0.350000       12.0110           0
     12220 MEMB     106      POPC     H14A     HL       0.250000       1.00800           0
     12221 MEMB     106      POPC     H14B     HL       0.250000       1.00800           0
     12222 MEMB     106      POPC     H14C     HL       0.250000       1.00800           0
     12223 MEMB     106      POPC     C15      CTL5    -0.350000       12.0110           0
     12224 MEMB     106      POPC     H15A     HL       0.250000       1.00800           0
     12225 MEMB     106      POPC     H15B     HL       0.250000       1.00800           0
     12226 MEMB     106      POPC     H15C     HL       0.250000       1.00800           0
     12227 MEMB     106      POPC     C11      CTL2    -0.800000E-01   12.0110           0
     12228 MEMB     106      POPC     H11A     HAL2     0.900000E-01   1.00800           0
     12229 MEMB     106      POPC     H11B     HAL2     0.900000E-01   1.00800           0
     12230 MEMB     106      POPC     P        PL        1.50000       30.9740           0
     12231 MEMB     106      POPC     O13      O2L     -0.780000       15.9994           0
     12232 MEMB     106      POPC     O14      O2L     -0.780000       15.9994           0
     12233 MEMB     106      POPC     O12      OSLP    -0.570000       15.9994           0
     12234 MEMB     106      POPC     O11      OSLP    -0.570000       15.9994           0
     12235 MEMB     106      POPC     C1       CTL2    -0.800000E-01   12.0110           0
     12236 MEMB     106      POPC     HA       HAL2     0.900000E-01   1.00800           0
     12237 MEMB     106      POPC     HB       HAL2     0.900000E-01   1.00800           0
     12238 MEMB     106      POPC     C2       CTL1     0.170000       12.0110           0
     12239 MEMB     106      POPC     HS       HAL1     0.900000E-01   1.00800           0
     12240 MEMB     106      POPC     O21      OSL     -0.490000       15.9994           0
     12241 MEMB     106      POPC     C21      CL       0.900000       12.0110           0
     12242 MEMB     106      POPC     O22      OBL     -0.630000       15.9994           0
     12243 MEMB     106      POPC     C22      CTL2    -0.220000       12.0110           0
     12244 MEMB     106      POPC     H2R      HAL2     0.900000E-01   1.00800           0
     12245 MEMB     106      POPC     H2S      HAL2     0.900000E-01   1.00800           0
     12246 MEMB     106      POPC     C3       CTL2     0.800000E-01   12.0110           0
     12247 MEMB     106      POPC     HX       HAL2     0.900000E-01   1.00800           0
     12248 MEMB     106      POPC     HY       HAL2     0.900000E-01   1.00800           0
     12249 MEMB     106      POPC     O31      OSL     -0.490000       15.9994           0
     12250 MEMB     106      POPC     C31      CL       0.900000       12.0110           0
     12251 MEMB     106      POPC     O32      OBL     -0.630000       15.9994           0
     12252 MEMB     106      POPC     C32      CTL2    -0.220000       12.0110           0
     12253 MEMB     106      POPC     H2X      HAL2     0.900000E-01   1.00800           0
     12254 MEMB     106      POPC     H2Y      HAL2     0.900000E-01   1.00800           0
     12255 MEMB     106      POPC     C23      CTL2    -0.180000       12.0110           0
     12256 MEMB     106      POPC     H3R      HAL2     0.900000E-01   1.00800           0
     12257 MEMB     106      POPC     H3S      HAL2     0.900000E-01   1.00800           0
     12258 MEMB     106      POPC     C24      CTL2    -0.180000       12.0110           0
     12259 MEMB     106      POPC     H4R      HAL2     0.900000E-01   1.00800           0
     12260 MEMB     106      POPC     H4S      HAL2     0.900000E-01   1.00800           0
     12261 MEMB     106      POPC     C25      CTL2    -0.180000       12.0110           0
     12262 MEMB     106      POPC     H5R      HAL2     0.900000E-01   1.00800           0
     12263 MEMB     106      POPC     H5S      HAL2     0.900000E-01   1.00800           0
     12264 MEMB     106      POPC     C26      CTL2    -0.180000       12.0110           0
     12265 MEMB     106      POPC     H6R      HAL2     0.900000E-01   1.00800           0
     12266 MEMB     106      POPC     H6S      HAL2     0.900000E-01   1.00800           0
     12267 MEMB     106      POPC     C27      CTL2    -0.180000       12.0110           0
     12268 MEMB     106      POPC     H7R      HAL2     0.900000E-01   1.00800           0
     12269 MEMB     106      POPC     H7S      HAL2     0.900000E-01   1.00800           0
     12270 MEMB     106      POPC     C28      CTL2    -0.180000       12.0110           0
     12271 MEMB     106      POPC     H8R      HAL2     0.900000E-01   1.00800           0
     12272 MEMB     106      POPC     H8S      HAL2     0.900000E-01   1.00800           0
     12273 MEMB     106      POPC     C29      CEL1    -0.150000       12.0110           0
     12274 MEMB     106      POPC     H91      HEL1     0.150000       1.00800           0
     12275 MEMB     106      POPC     C210     CEL1    -0.150000       12.0110           0
     12276 MEMB     106      POPC     H101     HEL1     0.150000       1.00800           0
     12277 MEMB     106      POPC     C211     CTL2    -0.180000       12.0110           0
     12278 MEMB     106      POPC     H11R     HAL2     0.900000E-01   1.00800           0
     12279 MEMB     106      POPC     H11S     HAL2     0.900000E-01   1.00800           0
     12280 MEMB     106      POPC     C212     CTL2    -0.180000       12.0110           0
     12281 MEMB     106      POPC     H12R     HAL2     0.900000E-01   1.00800           0
     12282 MEMB     106      POPC     H12S     HAL2     0.900000E-01   1.00800           0
     12283 MEMB     106      POPC     C213     CTL2    -0.180000       12.0110           0
     12284 MEMB     106      POPC     H13R     HAL2     0.900000E-01   1.00800           0
     12285 MEMB     106      POPC     H13S     HAL2     0.900000E-01   1.00800           0
     12286 MEMB     106      POPC     C214     CTL2    -0.180000       12.0110           0
     12287 MEMB     106      POPC     H14R     HAL2     0.900000E-01   1.00800           0
     12288 MEMB     106      POPC     H14S     HAL2     0.900000E-01   1.00800           0
     12289 MEMB     106      POPC     C215     CTL2    -0.180000       12.0110           0
     12290 MEMB     106      POPC     H15R     HAL2     0.900000E-01   1.00800           0
     12291 MEMB     106      POPC     H15S     HAL2     0.900000E-01   1.00800           0
     12292 MEMB     106      POPC     C216     CTL2    -0.180000       12.0110           0
     12293 MEMB     106      POPC     H16R     HAL2     0.900000E-01   1.00800           0
     12294 MEMB     106      POPC     H16S     HAL2     0.900000E-01   1.00800           0
     12295 MEMB     106      POPC     C217     CTL2    -0.180000       12.0110           0
     12296 MEMB     106      POPC     H17R     HAL2     0.900000E-01   1.00800           0
     12297 MEMB     106      POPC     H17S     HAL2     0.900000E-01   1.00800           0
     12298 MEMB     106      POPC     C218     CTL3    -0.270000       12.0110           0
     12299 MEMB     106      POPC     H18R     HAL3     0.900000E-01   1.00800           0
     12300 MEMB     106      POPC     H18S     HAL3     0.900000E-01   1.00800           0
     12301 MEMB     106      POPC     H18T     HAL3     0.900000E-01   1.00800           0
     12302 MEMB     106      POPC     C33      CTL2    -0.180000       12.0110           0
     12303 MEMB     106      POPC     H3X      HAL2     0.900000E-01   1.00800           0
     12304 MEMB     106      POPC     H3Y      HAL2     0.900000E-01   1.00800           0
     12305 MEMB     106      POPC     C34      CTL2    -0.180000       12.0110           0
     12306 MEMB     106      POPC     H4X      HAL2     0.900000E-01   1.00800           0
     12307 MEMB     106      POPC     H4Y      HAL2     0.900000E-01   1.00800           0
     12308 MEMB     106      POPC     C35      CTL2    -0.180000       12.0110           0
     12309 MEMB     106      POPC     H5X      HAL2     0.900000E-01   1.00800           0
     12310 MEMB     106      POPC     H5Y      HAL2     0.900000E-01   1.00800           0
     12311 MEMB     106      POPC     C36      CTL2    -0.180000       12.0110           0
     12312 MEMB     106      POPC     H6X      HAL2     0.900000E-01   1.00800           0
     12313 MEMB     106      POPC     H6Y      HAL2     0.900000E-01   1.00800           0
     12314 MEMB     106      POPC     C37      CTL2    -0.180000       12.0110           0
     12315 MEMB     106      POPC     H7X      HAL2     0.900000E-01   1.00800           0
     12316 MEMB     106      POPC     H7Y      HAL2     0.900000E-01   1.00800           0
     12317 MEMB     106      POPC     C38      CTL2    -0.180000       12.0110           0
     12318 MEMB     106      POPC     H8X      HAL2     0.900000E-01   1.00800           0
     12319 MEMB     106      POPC     H8Y      HAL2     0.900000E-01   1.00800           0
     12320 MEMB     106      POPC     C39      CTL2    -0.180000       12.0110           0
     12321 MEMB     106      POPC     H9X      HAL2     0.900000E-01   1.00800           0
     12322 MEMB     106      POPC     H9Y      HAL2     0.900000E-01   1.00800           0
     12323 MEMB     106      POPC     C310     CTL2    -0.180000       12.0110           0
     12324 MEMB     106      POPC     H10X     HAL2     0.900000E-01   1.00800           0
     12325 MEMB     106      POPC     H10Y     HAL2     0.900000E-01   1.00800           0
     12326 MEMB     106      POPC     C311     CTL2    -0.180000       12.0110           0
     12327 MEMB     106      POPC     H11X     HAL2     0.900000E-01   1.00800           0
     12328 MEMB     106      POPC     H11Y     HAL2     0.900000E-01   1.00800           0
     12329 MEMB     106      POPC     C312     CTL2    -0.180000       12.0110           0
     12330 MEMB     106      POPC     H12X     HAL2     0.900000E-01   1.00800           0
     12331 MEMB     106      POPC     H12Y     HAL2     0.900000E-01   1.00800           0
     12332 MEMB     106      POPC     C313     CTL2    -0.180000       12.0110           0
     12333 MEMB     106      POPC     H13X     HAL2     0.900000E-01   1.00800           0
     12334 MEMB     106      POPC     H13Y     HAL2     0.900000E-01   1.00800           0
     12335 MEMB     106      POPC     C314     CTL2    -0.180000       12.0110           0
     12336 MEMB     106      POPC     H14X     HAL2     0.900000E-01   1.00800           0
     12337 MEMB     106      POPC     H14Y     HAL2     0.900000E-01   1.00800           0
     12338 MEMB     106      POPC     C315     CTL2    -0.180000       12.0110           0
     12339 MEMB     106      POPC     H15X     HAL2     0.900000E-01   1.00800           0
     12340 MEMB     106      POPC     H15Y     HAL2     0.900000E-01   1.00800           0
     12341 MEMB     106      POPC     C316     CTL3    -0.270000       12.0110           0
     12342 MEMB     106      POPC     H16X     HAL3     0.900000E-01   1.00800           0
     12343 MEMB     106      POPC     H16Y     HAL3     0.900000E-01   1.00800           0
     12344 MEMB     106      POPC     H16Z     HAL3     0.900000E-01   1.00800           0
     12345 MEMB     107      POPC     N        NTL     -0.600000       14.0070           0
     12346 MEMB     107      POPC     C12      CTL2    -0.100000       12.0110           0
     12347 MEMB     107      POPC     H12A     HL       0.250000       1.00800           0
     12348 MEMB     107      POPC     H12B     HL       0.250000       1.00800           0
     12349 MEMB     107      POPC     C13      CTL5    -0.350000       12.0110           0
     12350 MEMB     107      POPC     H13A     HL       0.250000       1.00800           0
     12351 MEMB     107      POPC     H13B     HL       0.250000       1.00800           0
     12352 MEMB     107      POPC     H13C     HL       0.250000       1.00800           0
     12353 MEMB     107      POPC     C14      CTL5    -0.350000       12.0110           0
     12354 MEMB     107      POPC     H14A     HL       0.250000       1.00800           0
     12355 MEMB     107      POPC     H14B     HL       0.250000       1.00800           0
     12356 MEMB     107      POPC     H14C     HL       0.250000       1.00800           0
     12357 MEMB     107      POPC     C15      CTL5    -0.350000       12.0110           0
     12358 MEMB     107      POPC     H15A     HL       0.250000       1.00800           0
     12359 MEMB     107      POPC     H15B     HL       0.250000       1.00800           0
     12360 MEMB     107      POPC     H15C     HL       0.250000       1.00800           0
     12361 MEMB     107      POPC     C11      CTL2    -0.800000E-01   12.0110           0
     12362 MEMB     107      POPC     H11A     HAL2     0.900000E-01   1.00800           0
     12363 MEMB     107      POPC     H11B     HAL2     0.900000E-01   1.00800           0
     12364 MEMB     107      POPC     P        PL        1.50000       30.9740           0
     12365 MEMB     107      POPC     O13      O2L     -0.780000       15.9994           0
     12366 MEMB     107      POPC     O14      O2L     -0.780000       15.9994           0
     12367 MEMB     107      POPC     O12      OSLP    -0.570000       15.9994           0
     12368 MEMB     107      POPC     O11      OSLP    -0.570000       15.9994           0
     12369 MEMB     107      POPC     C1       CTL2    -0.800000E-01   12.0110           0
     12370 MEMB     107      POPC     HA       HAL2     0.900000E-01   1.00800           0
     12371 MEMB     107      POPC     HB       HAL2     0.900000E-01   1.00800           0
     12372 MEMB     107      POPC     C2       CTL1     0.170000       12.0110           0
     12373 MEMB     107      POPC     HS       HAL1     0.900000E-01   1.00800           0
     12374 MEMB     107      POPC     O21      OSL     -0.490000       15.9994           0
     12375 MEMB     107      POPC     C21      CL       0.900000       12.0110           0
     12376 MEMB     107      POPC     O22      OBL     -0.630000       15.9994           0
     12377 MEMB     107      POPC     C22      CTL2    -0.220000       12.0110           0
     12378 MEMB     107      POPC     H2R      HAL2     0.900000E-01   1.00800           0
     12379 MEMB     107      POPC     H2S      HAL2     0.900000E-01   1.00800           0
     12380 MEMB     107      POPC     C3       CTL2     0.800000E-01   12.0110           0
     12381 MEMB     107      POPC     HX       HAL2     0.900000E-01   1.00800           0
     12382 MEMB     107      POPC     HY       HAL2     0.900000E-01   1.00800           0
     12383 MEMB     107      POPC     O31      OSL     -0.490000       15.9994           0
     12384 MEMB     107      POPC     C31      CL       0.900000       12.0110           0
     12385 MEMB     107      POPC     O32      OBL     -0.630000       15.9994           0
     12386 MEMB     107      POPC     C32      CTL2    -0.220000       12.0110           0
     12387 MEMB     107      POPC     H2X      HAL2     0.900000E-01   1.00800           0
     12388 MEMB     107      POPC     H2Y      HAL2     0.900000E-01   1.00800           0
     12389 MEMB     107      POPC     C23      CTL2    -0.180000       12.0110           0
     12390 MEMB     107      POPC     H3R      HAL2     0.900000E-01   1.00800           0
     12391 MEMB     107      POPC     H3S      HAL2     0.900000E-01   1.00800           0
     12392 MEMB     107      POPC     C24      CTL2    -0.180000       12.0110           0
     12393 MEMB     107      POPC     H4R      HAL2     0.900000E-01   1.00800           0
     12394 MEMB     107      POPC     H4S      HAL2     0.900000E-01   1.00800           0
     12395 MEMB     107      POPC     C25      CTL2    -0.180000       12.0110           0
     12396 MEMB     107      POPC     H5R      HAL2     0.900000E-01   1.00800           0
     12397 MEMB     107      POPC     H5S      HAL2     0.900000E-01   1.00800           0
     12398 MEMB     107      POPC     C26      CTL2    -0.180000       12.0110           0
     12399 MEMB     107      POPC     H6R      HAL2     0.900000E-01   1.00800           0
     12400 MEMB     107      POPC     H6S      HAL2     0.900000E-01   1.00800           0
     12401 MEMB     107      POPC     C27      CTL2    -0.180000       12.0110           0
     12402 MEMB     107      POPC     H7R      HAL2     0.900000E-01   1.00800           0
     12403 MEMB     107      POPC     H7S      HAL2     0.900000E-01   1.00800           0
     12404 MEMB     107      POPC     C28      CTL2    -0.180000       12.0110           0
     12405 MEMB     107      POPC     H8R      HAL2     0.900000E-01   1.00800           0
     12406 MEMB     107      POPC     H8S      HAL2     0.900000E-01   1.00800           0
     12407 MEMB     107      POPC     C29      CEL1    -0.150000       12.0110           0
     12408 MEMB     107      POPC     H91      HEL1     0.150000       1.00800           0
     12409 MEMB     107      POPC     C210     CEL1    -0.150000       12.0110           0
     12410 MEMB     107      POPC     H101     HEL1     0.150000       1.00800           0
     12411 MEMB     107      POPC     C211     CTL2    -0.180000       12.0110           0
     12412 MEMB     107      POPC     H11R     HAL2     0.900000E-01   1.00800           0
     12413 MEMB     107      POPC     H11S     HAL2     0.900000E-01   1.00800           0
     12414 MEMB     107      POPC     C212     CTL2    -0.180000       12.0110           0
     12415 MEMB     107      POPC     H12R     HAL2     0.900000E-01   1.00800           0
     12416 MEMB     107      POPC     H12S     HAL2     0.900000E-01   1.00800           0
     12417 MEMB     107      POPC     C213     CTL2    -0.180000       12.0110           0
     12418 MEMB     107      POPC     H13R     HAL2     0.900000E-01   1.00800           0
     12419 MEMB     107      POPC     H13S     HAL2     0.900000E-01   1.00800           0
     12420 MEMB     107      POPC     C214     CTL2    -0.180000       12.0110           0
     12421 MEMB     107      POPC     H14R     HAL2     0.900000E-01   1.00800           0
     12422 MEMB     107      POPC     H14S     HAL2     0.900000E-01   1.00800           0
     12423 MEMB     107      POPC     C215     CTL2    -0.180000       12.0110           0
     12424 MEMB     107      POPC     H15R     HAL2     0.900000E-01   1.00800           0
     12425 MEMB     107      POPC     H15S     HAL2     0.900000E-01   1.00800           0
     12426 MEMB     107      POPC     C216     CTL2    -0.180000       12.0110           0
     12427 MEMB     107      POPC     H16R     HAL2     0.900000E-01   1.00800           0
     12428 MEMB     107      POPC     H16S     HAL2     0.900000E-01   1.00800           0
     12429 MEMB     107      POPC     C217     CTL2    -0.180000       12.0110           0
     12430 MEMB     107      POPC     H17R     HAL2     0.900000E-01   1.00800           0
     12431 MEMB     107      POPC     H17S     HAL2     0.900000E-01   1.00800           0
     12432 MEMB     107      POPC     C218     CTL3    -0.270000       12.0110           0
     12433 MEMB     107      POPC     H18R     HAL3     0.900000E-01   1.00800           0
     12434 MEMB     107      POPC     H18S     HAL3     0.900000E-01   1.00800           0
     12435 MEMB     107      POPC     H18T     HAL3     0.900000E-01   1.00800           0
     12436 MEMB     107      POPC     C33      CTL2    -0.180000       12.0110           0
     12437 MEMB     107      POPC     H3X      HAL2     0.900000E-01   1.00800           0
     12438 MEMB     107      POPC     H3Y      HAL2     0.900000E-01   1.00800           0
     12439 MEMB     107      POPC     C34      CTL2    -0.180000       12.0110           0
     12440 MEMB     107      POPC     H4X      HAL2     0.900000E-01   1.00800           0
     12441 MEMB     107      POPC     H4Y      HAL2     0.900000E-01   1.00800           0
     12442 MEMB     107      POPC     C35      CTL2    -0.180000       12.0110           0
     12443 MEMB     107      POPC     H5X      HAL2     0.900000E-01   1.00800           0
     12444 MEMB     107      POPC     H5Y      HAL2     0.900000E-01   1.00800           0
     12445 MEMB     107      POPC     C36      CTL2    -0.180000       12.0110           0
     12446 MEMB     107      POPC     H6X      HAL2     0.900000E-01   1.00800           0
     12447 MEMB     107      POPC     H6Y      HAL2     0.900000E-01   1.00800           0
     12448 MEMB     107      POPC     C37      CTL2    -0.180000       12.0110           0
     12449 MEMB     107      POPC     H7X      HAL2     0.900000E-01   1.00800           0
     12450 MEMB     107      POPC     H7Y      HAL2     0.900000E-01   1.00800           0
     12451 MEMB     107      POPC     C38      CTL2    -0.180000       12.0110           0
     12452 MEMB     107      POPC     H8X      HAL2     0.900000E-01   1.00800           0
     12453 MEMB     107      POPC     H8Y      HAL2     0.900000E-01   1.00800           0
     12454 MEMB     107      POPC     C39      CTL2    -0.180000       12.0110           0
     12455 MEMB     107      POPC     H9X      HAL2     0.900000E-01   1.00800           0
     12456 MEMB     107      POPC     H9Y      HAL2     0.900000E-01   1.00800           0
     12457 MEMB     107      POPC     C310     CTL2    -0.180000       12.0110           0
     12458 MEMB     107      POPC     H10X     HAL2     0.900000E-01   1.00800           0
     12459 MEMB     107      POPC     H10Y     HAL2     0.900000E-01   1.00800           0
     12460 MEMB     107      POPC     C311     CTL2    -0.180000       12.0110           0
     12461 MEMB     107      POPC     H11X     HAL2     0.900000E-01   1.00800           0
     12462 MEMB     107      POPC     H11Y     HAL2     0.900000E-01   1.00800           0
     12463 MEMB     107      POPC     C312     CTL2    -0.180000       12.0110           0
     12464 MEMB     107      POPC     H12X     HAL2     0.900000E-01   1.00800           0
     12465 MEMB     107      POPC     H12Y     HAL2     0.900000E-01   1.00800           0
     12466 MEMB     107      POPC     C313     CTL2    -0.180000       12.0110           0
     12467 MEMB     107      POPC     H13X     HAL2     0.900000E-01   1.00800           0
     12468 MEMB     107      POPC     H13Y     HAL2     0.900000E-01   1.00800           0
     12469 MEMB     107      POPC     C314     CTL2    -0.180000       12.0110           0
     12470 MEMB     107      POPC     H14X     HAL2     0.900000E-01   1.00800           0
     12471 MEMB     107      POPC     H14Y     HAL2     0.900000E-01   1.00800           0
     12472 MEMB     107      POPC     C315     CTL2    -0.180000       12.0110           0
     12473 MEMB     107      POPC     H15X     HAL2     0.900000E-01   1.00800           0
     12474 MEMB     107      POPC     H15Y     HAL2     0.900000E-01   1.00800           0
     12475 MEMB     107      POPC     C316     CTL3    -0.270000       12.0110           0
     12476 MEMB     107      POPC     H16X     HAL3     0.900000E-01   1.00800           0
     12477 MEMB     107      POPC     H16Y     HAL3     0.900000E-01   1.00800           0
     12478 MEMB     107      POPC     H16Z     HAL3     0.900000E-01   1.00800           0
     12479 MEMB     108      POPC     N        NTL     -0.600000       14.0070           0
     12480 MEMB     108      POPC     C12      CTL2    -0.100000       12.0110           0
     12481 MEMB     108      POPC     H12A     HL       0.250000       1.00800           0
     12482 MEMB     108      POPC     H12B     HL       0.250000       1.00800           0
     12483 MEMB     108      POPC     C13      CTL5    -0.350000       12.0110           0
     12484 MEMB     108      POPC     H13A     HL       0.250000       1.00800           0
     12485 MEMB     108      POPC     H13B     HL       0.250000       1.00800           0
     12486 MEMB     108      POPC     H13C     HL       0.250000       1.00800           0
     12487 MEMB     108      POPC     C14      CTL5    -0.350000       12.0110           0
     12488 MEMB     108      POPC     H14A     HL       0.250000       1.00800           0
     12489 MEMB     108      POPC     H14B     HL       0.250000       1.00800           0
     12490 MEMB     108      POPC     H14C     HL       0.250000       1.00800           0
     12491 MEMB     108      POPC     C15      CTL5    -0.350000       12.0110           0
     12492 MEMB     108      POPC     H15A     HL       0.250000       1.00800           0
     12493 MEMB     108      POPC     H15B     HL       0.250000       1.00800           0
     12494 MEMB     108      POPC     H15C     HL       0.250000       1.00800           0
     12495 MEMB     108      POPC     C11      CTL2    -0.800000E-01   12.0110           0
     12496 MEMB     108      POPC     H11A     HAL2     0.900000E-01   1.00800           0
     12497 MEMB     108      POPC     H11B     HAL2     0.900000E-01   1.00800           0
     12498 MEMB     108      POPC     P        PL        1.50000       30.9740           0
     12499 MEMB     108      POPC     O13      O2L     -0.780000       15.9994           0
     12500 MEMB     108      POPC     O14      O2L     -0.780000       15.9994           0
     12501 MEMB     108      POPC     O12      OSLP    -0.570000       15.9994           0
     12502 MEMB     108      POPC     O11      OSLP    -0.570000       15.9994           0
     12503 MEMB     108      POPC     C1       CTL2    -0.800000E-01   12.0110           0
     12504 MEMB     108      POPC     HA       HAL2     0.900000E-01   1.00800           0
     12505 MEMB     108      POPC     HB       HAL2     0.900000E-01   1.00800           0
     12506 MEMB     108      POPC     C2       CTL1     0.170000       12.0110           0
     12507 MEMB     108      POPC     HS       HAL1     0.900000E-01   1.00800           0
     12508 MEMB     108      POPC     O21      OSL     -0.490000       15.9994           0
     12509 MEMB     108      POPC     C21      CL       0.900000       12.0110           0
     12510 MEMB     108      POPC     O22      OBL     -0.630000       15.9994           0
     12511 MEMB     108      POPC     C22      CTL2    -0.220000       12.0110           0
     12512 MEMB     108      POPC     H2R      HAL2     0.900000E-01   1.00800           0
     12513 MEMB     108      POPC     H2S      HAL2     0.900000E-01   1.00800           0
     12514 MEMB     108      POPC     C3       CTL2     0.800000E-01   12.0110           0
     12515 MEMB     108      POPC     HX       HAL2     0.900000E-01   1.00800           0
     12516 MEMB     108      POPC     HY       HAL2     0.900000E-01   1.00800           0
     12517 MEMB     108      POPC     O31      OSL     -0.490000       15.9994           0
     12518 MEMB     108      POPC     C31      CL       0.900000       12.0110           0
     12519 MEMB     108      POPC     O32      OBL     -0.630000       15.9994           0
     12520 MEMB     108      POPC     C32      CTL2    -0.220000       12.0110           0
     12521 MEMB     108      POPC     H2X      HAL2     0.900000E-01   1.00800           0
     12522 MEMB     108      POPC     H2Y      HAL2     0.900000E-01   1.00800           0
     12523 MEMB     108      POPC     C23      CTL2    -0.180000       12.0110           0
     12524 MEMB     108      POPC     H3R      HAL2     0.900000E-01   1.00800           0
     12525 MEMB     108      POPC     H3S      HAL2     0.900000E-01   1.00800           0
     12526 MEMB     108      POPC     C24      CTL2    -0.180000       12.0110           0
     12527 MEMB     108      POPC     H4R      HAL2     0.900000E-01   1.00800           0
     12528 MEMB     108      POPC     H4S      HAL2     0.900000E-01   1.00800           0
     12529 MEMB     108      POPC     C25      CTL2    -0.180000       12.0110           0
     12530 MEMB     108      POPC     H5R      HAL2     0.900000E-01   1.00800           0
     12531 MEMB     108      POPC     H5S      HAL2     0.900000E-01   1.00800           0
     12532 MEMB     108      POPC     C26      CTL2    -0.180000       12.0110           0
     12533 MEMB     108      POPC     H6R      HAL2     0.900000E-01   1.00800           0
     12534 MEMB     108      POPC     H6S      HAL2     0.900000E-01   1.00800           0
     12535 MEMB     108      POPC     C27      CTL2    -0.180000       12.0110           0
     12536 MEMB     108      POPC     H7R      HAL2     0.900000E-01   1.00800           0
     12537 MEMB     108      POPC     H7S      HAL2     0.900000E-01   1.00800           0
     12538 MEMB     108      POPC     C28      CTL2    -0.180000       12.0110           0
     12539 MEMB     108      POPC     H8R      HAL2     0.900000E-01   1.00800           0
     12540 MEMB     108      POPC     H8S      HAL2     0.900000E-01   1.00800           0
     12541 MEMB     108      POPC     C29      CEL1    -0.150000       12.0110           0
     12542 MEMB     108      POPC     H91      HEL1     0.150000       1.00800           0
     12543 MEMB     108      POPC     C210     CEL1    -0.150000       12.0110           0
     12544 MEMB     108      POPC     H101     HEL1     0.150000       1.00800           0
     12545 MEMB     108      POPC     C211     CTL2    -0.180000       12.0110           0
     12546 MEMB     108      POPC     H11R     HAL2     0.900000E-01   1.00800           0
     12547 MEMB     108      POPC     H11S     HAL2     0.900000E-01   1.00800           0
     12548 MEMB     108      POPC     C212     CTL2    -0.180000       12.0110           0
     12549 MEMB     108      POPC     H12R     HAL2     0.900000E-01   1.00800           0
     12550 MEMB     108      POPC     H12S     HAL2     0.900000E-01   1.00800           0
     12551 MEMB     108      POPC     C213     CTL2    -0.180000       12.0110           0
     12552 MEMB     108      POPC     H13R     HAL2     0.900000E-01   1.00800           0
     12553 MEMB     108      POPC     H13S     HAL2     0.900000E-01   1.00800           0
     12554 MEMB     108      POPC     C214     CTL2    -0.180000       12.0110           0
     12555 MEMB     108      POPC     H14R     HAL2     0.900000E-01   1.00800           0
     12556 MEMB     108      POPC     H14S     HAL2     0.900000E-01   1.00800           0
     12557 MEMB     108      POPC     C215     CTL2    -0.180000       12.0110           0
     12558 MEMB     108      POPC     H15R     HAL2     0.900000E-01   1.00800           0
     12559 MEMB     108      POPC     H15S     HAL2     0.900000E-01   1.00800           0
     12560 MEMB     108      POPC     C216     CTL2    -0.180000       12.0110           0
     12561 MEMB     108      POPC     H16R     HAL2     0.900000E-01   1.00800           0
     12562 MEMB     108      POPC     H16S     HAL2     0.900000E-01   1.00800           0
     12563 MEMB     108      POPC     C217     CTL2    -0.180000       12.0110           0
     12564 MEMB     108      POPC     H17R     HAL2     0.900000E-01   1.00800           0
     12565 MEMB     108      POPC     H17S     HAL2     0.900000E-01   1.00800           0
     12566 MEMB     108      POPC     C218     CTL3    -0.270000       12.0110           0
     12567 MEMB     108      POPC     H18R     HAL3     0.900000E-01   1.00800           0
     12568 MEMB     108      POPC     H18S     HAL3     0.900000E-01   1.00800           0
     12569 MEMB     108      POPC     H18T     HAL3     0.900000E-01   1.00800           0
     12570 MEMB     108      POPC     C33      CTL2    -0.180000       12.0110           0
     12571 MEMB     108      POPC     H3X      HAL2     0.900000E-01   1.00800           0
     12572 MEMB     108      POPC     H3Y      HAL2     0.900000E-01   1.00800           0
     12573 MEMB     108      POPC     C34      CTL2    -0.180000       12.0110           0
     12574 MEMB     108      POPC     H4X      HAL2     0.900000E-01   1.00800           0
     12575 MEMB     108      POPC     H4Y      HAL2     0.900000E-01   1.00800           0
     12576 MEMB     108      POPC     C35      CTL2    -0.180000       12.0110           0
     12577 MEMB     108      POPC     H5X      HAL2     0.900000E-01   1.00800           0
     12578 MEMB     108      POPC     H5Y      HAL2     0.900000E-01   1.00800           0
     12579 MEMB     108      POPC     C36      CTL2    -0.180000       12.0110           0
     12580 MEMB     108      POPC     H6X      HAL2     0.900000E-01   1.00800           0
     12581 MEMB     108      POPC     H6Y      HAL2     0.900000E-01   1.00800           0
     12582 MEMB     108      POPC     C37      CTL2    -0.180000       12.0110           0
     12583 MEMB     108      POPC     H7X      HAL2     0.900000E-01   1.00800           0
     12584 MEMB     108      POPC     H7Y      HAL2     0.900000E-01   1.00800           0
     12585 MEMB     108      POPC     C38      CTL2    -0.180000       12.0110           0
     12586 MEMB     108      POPC     H8X      HAL2     0.900000E-01   1.00800           0
     12587 MEMB     108      POPC     H8Y      HAL2     0.900000E-01   1.00800           0
     12588 MEMB     108      POPC     C39      CTL2    -0.180000       12.0110           0
     12589 MEMB     108      POPC     H9X      HAL2     0.900000E-01   1.00800           0
     12590 MEMB     108      POPC     H9Y      HAL2     0.900000E-01   1.00800           0
     12591 MEMB     108      POPC     C310     CTL2    -0.180000       12.0110           0
     12592 MEMB     108      POPC     H10X     HAL2     0.900000E-01   1.00800           0
     12593 MEMB     108      POPC     H10Y     HAL2     0.900000E-01   1.00800           0
     12594 MEMB     108      POPC     C311     CTL2    -0.180000       12.0110           0
     12595 MEMB     108      POPC     H11X     HAL2     0.900000E-01   1.00800           0
     12596 MEMB     108      POPC     H11Y     HAL2     0.900000E-01   1.00800           0
     12597 MEMB     108      POPC     C312     CTL2    -0.180000       12.0110           0
     12598 MEMB     108      POPC     H12X     HAL2     0.900000E-01   1.00800           0
     12599 MEMB     108      POPC     H12Y     HAL2     0.900000E-01   1.00800           0
     12600 MEMB     108      POPC     C313     CTL2    -0.180000       12.0110           0
     12601 MEMB     108      POPC     H13X     HAL2     0.900000E-01   1.00800           0
     12602 MEMB     108      POPC     H13Y     HAL2     0.900000E-01   1.00800           0
     12603 MEMB     108      POPC     C314     CTL2    -0.180000       12.0110           0
     12604 MEMB     108      POPC     H14X     HAL2     0.900000E-01   1.00800           0
     12605 MEMB     108      POPC     H14Y     HAL2     0.900000E-01   1.00800           0
     12606 MEMB     108      POPC     C315     CTL2    -0.180000       12.0110           0
     12607 MEMB     108      POPC     H15X     HAL2     0.900000E-01   1.00800           0
     12608 MEMB     108      POPC     H15Y     HAL2     0.900000E-01   1.00800           0
     12609 MEMB     108      POPC     C316     CTL3    -0.270000       12.0110           0
     12610 MEMB     108      POPC     H16X     HAL3     0.900000E-01   1.00800           0
     12611 MEMB     108      POPC     H16Y     HAL3     0.900000E-01   1.00800           0
     12612 MEMB     108      POPC     H16Z     HAL3     0.900000E-01   1.00800           0
     12613 MEMB     109      POPC     N        NTL     -0.600000       14.0070           0
     12614 MEMB     109      POPC     C12      CTL2    -0.100000       12.0110           0
     12615 MEMB     109      POPC     H12A     HL       0.250000       1.00800           0
     12616 MEMB     109      POPC     H12B     HL       0.250000       1.00800           0
     12617 MEMB     109      POPC     C13      CTL5    -0.350000       12.0110           0
     12618 MEMB     109      POPC     H13A     HL       0.250000       1.00800           0
     12619 MEMB     109      POPC     H13B     HL       0.250000       1.00800           0
     12620 MEMB     109      POPC     H13C     HL       0.250000       1.00800           0
     12621 MEMB     109      POPC     C14      CTL5    -0.350000       12.0110           0
     12622 MEMB     109      POPC     H14A     HL       0.250000       1.00800           0
     12623 MEMB     109      POPC     H14B     HL       0.250000       1.00800           0
     12624 MEMB     109      POPC     H14C     HL       0.250000       1.00800           0
     12625 MEMB     109      POPC     C15      CTL5    -0.350000       12.0110           0
     12626 MEMB     109      POPC     H15A     HL       0.250000       1.00800           0
     12627 MEMB     109      POPC     H15B     HL       0.250000       1.00800           0
     12628 MEMB     109      POPC     H15C     HL       0.250000       1.00800           0
     12629 MEMB     109      POPC     C11      CTL2    -0.800000E-01   12.0110           0
     12630 MEMB     109      POPC     H11A     HAL2     0.900000E-01   1.00800           0
     12631 MEMB     109      POPC     H11B     HAL2     0.900000E-01   1.00800           0
     12632 MEMB     109      POPC     P        PL        1.50000       30.9740           0
     12633 MEMB     109      POPC     O13      O2L     -0.780000       15.9994           0
     12634 MEMB     109      POPC     O14      O2L     -0.780000       15.9994           0
     12635 MEMB     109      POPC     O12      OSLP    -0.570000       15.9994           0
     12636 MEMB     109      POPC     O11      OSLP    -0.570000       15.9994           0
     12637 MEMB     109      POPC     C1       CTL2    -0.800000E-01   12.0110           0
     12638 MEMB     109      POPC     HA       HAL2     0.900000E-01   1.00800           0
     12639 MEMB     109      POPC     HB       HAL2     0.900000E-01   1.00800           0
     12640 MEMB     109      POPC     C2       CTL1     0.170000       12.0110           0
     12641 MEMB     109      POPC     HS       HAL1     0.900000E-01   1.00800           0
     12642 MEMB     109      POPC     O21      OSL     -0.490000       15.9994           0
     12643 MEMB     109      POPC     C21      CL       0.900000       12.0110           0
     12644 MEMB     109      POPC     O22      OBL     -0.630000       15.9994           0
     12645 MEMB     109      POPC     C22      CTL2    -0.220000       12.0110           0
     12646 MEMB     109      POPC     H2R      HAL2     0.900000E-01   1.00800           0
     12647 MEMB     109      POPC     H2S      HAL2     0.900000E-01   1.00800           0
     12648 MEMB     109      POPC     C3       CTL2     0.800000E-01   12.0110           0
     12649 MEMB     109      POPC     HX       HAL2     0.900000E-01   1.00800           0
     12650 MEMB     109      POPC     HY       HAL2     0.900000E-01   1.00800           0
     12651 MEMB     109      POPC     O31      OSL     -0.490000       15.9994           0
     12652 MEMB     109      POPC     C31      CL       0.900000       12.0110           0
     12653 MEMB     109      POPC     O32      OBL     -0.630000       15.9994           0
     12654 MEMB     109      POPC     C32      CTL2    -0.220000       12.0110           0
     12655 MEMB     109      POPC     H2X      HAL2     0.900000E-01   1.00800           0
     12656 MEMB     109      POPC     H2Y      HAL2     0.900000E-01   1.00800           0
     12657 MEMB     109      POPC     C23      CTL2    -0.180000       12.0110           0
     12658 MEMB     109      POPC     H3R      HAL2     0.900000E-01   1.00800           0
     12659 MEMB     109      POPC     H3S      HAL2     0.900000E-01   1.00800           0
     12660 MEMB     109      POPC     C24      CTL2    -0.180000       12.0110           0
     12661 MEMB     109      POPC     H4R      HAL2     0.900000E-01   1.00800           0
     12662 MEMB     109      POPC     H4S      HAL2     0.900000E-01   1.00800           0
     12663 MEMB     109      POPC     C25      CTL2    -0.180000       12.0110           0
     12664 MEMB     109      POPC     H5R      HAL2     0.900000E-01   1.00800           0
     12665 MEMB     109      POPC     H5S      HAL2     0.900000E-01   1.00800           0
     12666 MEMB     109      POPC     C26      CTL2    -0.180000       12.0110           0
     12667 MEMB     109      POPC     H6R      HAL2     0.900000E-01   1.00800           0
     12668 MEMB     109      POPC     H6S      HAL2     0.900000E-01   1.00800           0
     12669 MEMB     109      POPC     C27      CTL2    -0.180000       12.0110           0
     12670 MEMB     109      POPC     H7R      HAL2     0.900000E-01   1.00800           0
     12671 MEMB     109      POPC     H7S      HAL2     0.900000E-01   1.00800           0
     12672 MEMB     109      POPC     C28      CTL2    -0.180000       12.0110           0
     12673 MEMB     109      POPC     H8R      HAL2     0.900000E-01   1.00800           0
     12674 MEMB     109      POPC     H8S      HAL2     0.900000E-01   1.00800           0
     12675 MEMB     109      POPC     C29      CEL1    -0.150000       12.0110           0
     12676 MEMB     109      POPC     H91      HEL1     0.150000       1.00800           0
     12677 MEMB     109      POPC     C210     CEL1    -0.150000       12.0110           0
     12678 MEMB     109      POPC     H101     HEL1     0.150000       1.00800           0
     12679 MEMB     109      POPC     C211     CTL2    -0.180000       12.0110           0
     12680 MEMB     109      POPC     H11R     HAL2     0.900000E-01   1.00800           0
     12681 MEMB     109      POPC     H11S     HAL2     0.900000E-01   1.00800           0
     12682 MEMB     109      POPC     C212     CTL2    -0.180000       12.0110           0
     12683 MEMB     109      POPC     H12R     HAL2     0.900000E-01   1.00800           0
     12684 MEMB     109      POPC     H12S     HAL2     0.900000E-01   1.00800           0
     12685 MEMB     109      POPC     C213     CTL2    -0.180000       12.0110           0
     12686 MEMB     109      POPC     H13R     HAL2     0.900000E-01   1.00800           0
     12687 MEMB     109      POPC     H13S     HAL2     0.900000E-01   1.00800           0
     12688 MEMB     109      POPC     C214     CTL2    -0.180000       12.0110           0
     12689 MEMB     109      POPC     H14R     HAL2     0.900000E-01   1.00800           0
     12690 MEMB     109      POPC     H14S     HAL2     0.900000E-01   1.00800           0
     12691 MEMB     109      POPC     C215     CTL2    -0.180000       12.0110           0
     12692 MEMB     109      POPC     H15R     HAL2     0.900000E-01   1.00800           0
     12693 MEMB     109      POPC     H15S     HAL2     0.900000E-01   1.00800           0
     12694 MEMB     109      POPC     C216     CTL2    -0.180000       12.0110           0
     12695 MEMB     109      POPC     H16R     HAL2     0.900000E-01   1.00800           0
     12696 MEMB     109      POPC     H16S     HAL2     0.900000E-01   1.00800           0
     12697 MEMB     109      POPC     C217     CTL2    -0.180000       12.0110           0
     12698 MEMB     109      POPC     H17R     HAL2     0.900000E-01   1.00800           0
     12699 MEMB     109      POPC     H17S     HAL2     0.900000E-01   1.00800           0
     12700 MEMB     109      POPC     C218     CTL3    -0.270000       12.0110           0
     12701 MEMB     109      POPC     H18R     HAL3     0.900000E-01   1.00800           0
     12702 MEMB     109      POPC     H18S     HAL3     0.900000E-01   1.00800           0
     12703 MEMB     109      POPC     H18T     HAL3     0.900000E-01   1.00800           0
     12704 MEMB     109      POPC     C33      CTL2    -0.180000       12.0110           0
     12705 MEMB     109      POPC     H3X      HAL2     0.900000E-01   1.00800           0
     12706 MEMB     109      POPC     H3Y      HAL2     0.900000E-01   1.00800           0
     12707 MEMB     109      POPC     C34      CTL2    -0.180000       12.0110           0
     12708 MEMB     109      POPC     H4X      HAL2     0.900000E-01   1.00800           0
     12709 MEMB     109      POPC     H4Y      HAL2     0.900000E-01   1.00800           0
     12710 MEMB     109      POPC     C35      CTL2    -0.180000       12.0110           0
     12711 MEMB     109      POPC     H5X      HAL2     0.900000E-01   1.00800           0
     12712 MEMB     109      POPC     H5Y      HAL2     0.900000E-01   1.00800           0
     12713 MEMB     109      POPC     C36      CTL2    -0.180000       12.0110           0
     12714 MEMB     109      POPC     H6X      HAL2     0.900000E-01   1.00800           0
     12715 MEMB     109      POPC     H6Y      HAL2     0.900000E-01   1.00800           0
     12716 MEMB     109      POPC     C37      CTL2    -0.180000       12.0110           0
     12717 MEMB     109      POPC     H7X      HAL2     0.900000E-01   1.00800           0
     12718 MEMB     109      POPC     H7Y      HAL2     0.900000E-01   1.00800           0
     12719 MEMB     109      POPC     C38      CTL2    -0.180000       12.0110           0
     12720 MEMB     109      POPC     H8X      HAL2     0.900000E-01   1.00800           0
     12721 MEMB     109      POPC     H8Y      HAL2     0.900000E-01   1.00800           0
     12722 MEMB     109      POPC     C39      CTL2    -0.180000       12.0110           0
     12723 MEMB     109      POPC     H9X      HAL2     0.900000E-01   1.00800           0
     12724 MEMB     109      POPC     H9Y      HAL2     0.900000E-01   1.00800           0
     12725 MEMB     109      POPC     C310     CTL2    -0.180000       12.0110           0
     12726 MEMB     109      POPC     H10X     HAL2     0.900000E-01   1.00800           0
     12727 MEMB     109      POPC     H10Y     HAL2     0.900000E-01   1.00800           0
     12728 MEMB     109      POPC     C311     CTL2    -0.180000       12.0110           0
     12729 MEMB     109      POPC     H11X     HAL2     0.900000E-01   1.00800           0
     12730 MEMB     109      POPC     H11Y     HAL2     0.900000E-01   1.00800           0
     12731 MEMB     109      POPC     C312     CTL2    -0.180000       12.0110           0
     12732 MEMB     109      POPC     H12X     HAL2     0.900000E-01   1.00800           0
     12733 MEMB     109      POPC     H12Y     HAL2     0.900000E-01   1.00800           0
     12734 MEMB     109      POPC     C313     CTL2    -0.180000       12.0110           0
     12735 MEMB     109      POPC     H13X     HAL2     0.900000E-01   1.00800           0
     12736 MEMB     109      POPC     H13Y     HAL2     0.900000E-01   1.00800           0
     12737 MEMB     109      POPC     C314     CTL2    -0.180000       12.0110           0
     12738 MEMB     109      POPC     H14X     HAL2     0.900000E-01   1.00800           0
     12739 MEMB     109      POPC     H14Y     HAL2     0.900000E-01   1.00800           0
     12740 MEMB     109      POPC     C315     CTL2    -0.180000       12.0110           0
     12741 MEMB     109      POPC     H15X     HAL2     0.900000E-01   1.00800           0
     12742 MEMB     109      POPC     H15Y     HAL2     0.900000E-01   1.00800           0
     12743 MEMB     109      POPC     C316     CTL3    -0.270000       12.0110           0
     12744 MEMB     109      POPC     H16X     HAL3     0.900000E-01   1.00800           0
     12745 MEMB     109      POPC     H16Y     HAL3     0.900000E-01   1.00800           0
     12746 MEMB     109      POPC     H16Z     HAL3     0.900000E-01   1.00800           0
     12747 MEMB     110      POPC     N        NTL     -0.600000       14.0070           0
     12748 MEMB     110      POPC     C12      CTL2    -0.100000       12.0110           0
     12749 MEMB     110      POPC     H12A     HL       0.250000       1.00800           0
     12750 MEMB     110      POPC     H12B     HL       0.250000       1.00800           0
     12751 MEMB     110      POPC     C13      CTL5    -0.350000       12.0110           0
     12752 MEMB     110      POPC     H13A     HL       0.250000       1.00800           0
     12753 MEMB     110      POPC     H13B     HL       0.250000       1.00800           0
     12754 MEMB     110      POPC     H13C     HL       0.250000       1.00800           0
     12755 MEMB     110      POPC     C14      CTL5    -0.350000       12.0110           0
     12756 MEMB     110      POPC     H14A     HL       0.250000       1.00800           0
     12757 MEMB     110      POPC     H14B     HL       0.250000       1.00800           0
     12758 MEMB     110      POPC     H14C     HL       0.250000       1.00800           0
     12759 MEMB     110      POPC     C15      CTL5    -0.350000       12.0110           0
     12760 MEMB     110      POPC     H15A     HL       0.250000       1.00800           0
     12761 MEMB     110      POPC     H15B     HL       0.250000       1.00800           0
     12762 MEMB     110      POPC     H15C     HL       0.250000       1.00800           0
     12763 MEMB     110      POPC     C11      CTL2    -0.800000E-01   12.0110           0
     12764 MEMB     110      POPC     H11A     HAL2     0.900000E-01   1.00800           0
     12765 MEMB     110      POPC     H11B     HAL2     0.900000E-01   1.00800           0
     12766 MEMB     110      POPC     P        PL        1.50000       30.9740           0
     12767 MEMB     110      POPC     O13      O2L     -0.780000       15.9994           0
     12768 MEMB     110      POPC     O14      O2L     -0.780000       15.9994           0
     12769 MEMB     110      POPC     O12      OSLP    -0.570000       15.9994           0
     12770 MEMB     110      POPC     O11      OSLP    -0.570000       15.9994           0
     12771 MEMB     110      POPC     C1       CTL2    -0.800000E-01   12.0110           0
     12772 MEMB     110      POPC     HA       HAL2     0.900000E-01   1.00800           0
     12773 MEMB     110      POPC     HB       HAL2     0.900000E-01   1.00800           0
     12774 MEMB     110      POPC     C2       CTL1     0.170000       12.0110           0
     12775 MEMB     110      POPC     HS       HAL1     0.900000E-01   1.00800           0
     12776 MEMB     110      POPC     O21      OSL     -0.490000       15.9994           0
     12777 MEMB     110      POPC     C21      CL       0.900000       12.0110           0
     12778 MEMB     110      POPC     O22      OBL     -0.630000       15.9994           0
     12779 MEMB     110      POPC     C22      CTL2    -0.220000       12.0110           0
     12780 MEMB     110      POPC     H2R      HAL2     0.900000E-01   1.00800           0
     12781 MEMB     110      POPC     H2S      HAL2     0.900000E-01   1.00800           0
     12782 MEMB     110      POPC     C3       CTL2     0.800000E-01   12.0110           0
     12783 MEMB     110      POPC     HX       HAL2     0.900000E-01   1.00800           0
     12784 MEMB     110      POPC     HY       HAL2     0.900000E-01   1.00800           0
     12785 MEMB     110      POPC     O31      OSL     -0.490000       15.9994           0
     12786 MEMB     110      POPC     C31      CL       0.900000       12.0110           0
     12787 MEMB     110      POPC     O32      OBL     -0.630000       15.9994           0
     12788 MEMB     110      POPC     C32      CTL2    -0.220000       12.0110           0
     12789 MEMB     110      POPC     H2X      HAL2     0.900000E-01   1.00800           0
     12790 MEMB     110      POPC     H2Y      HAL2     0.900000E-01   1.00800           0
     12791 MEMB     110      POPC     C23      CTL2    -0.180000       12.0110           0
     12792 MEMB     110      POPC     H3R      HAL2     0.900000E-01   1.00800           0
     12793 MEMB     110      POPC     H3S      HAL2     0.900000E-01   1.00800           0
     12794 MEMB     110      POPC     C24      CTL2    -0.180000       12.0110           0
     12795 MEMB     110      POPC     H4R      HAL2     0.900000E-01   1.00800           0
     12796 MEMB     110      POPC     H4S      HAL2     0.900000E-01   1.00800           0
     12797 MEMB     110      POPC     C25      CTL2    -0.180000       12.0110           0
     12798 MEMB     110      POPC     H5R      HAL2     0.900000E-01   1.00800           0
     12799 MEMB     110      POPC     H5S      HAL2     0.900000E-01   1.00800           0
     12800 MEMB     110      POPC     C26      CTL2    -0.180000       12.0110           0
     12801 MEMB     110      POPC     H6R      HAL2     0.900000E-01   1.00800           0
     12802 MEMB     110      POPC     H6S      HAL2     0.900000E-01   1.00800           0
     12803 MEMB     110      POPC     C27      CTL2    -0.180000       12.0110           0
     12804 MEMB     110      POPC     H7R      HAL2     0.900000E-01   1.00800           0
     12805 MEMB     110      POPC     H7S      HAL2     0.900000E-01   1.00800           0
     12806 MEMB     110      POPC     C28      CTL2    -0.180000       12.0110           0
     12807 MEMB     110      POPC     H8R      HAL2     0.900000E-01   1.00800           0
     12808 MEMB     110      POPC     H8S      HAL2     0.900000E-01   1.00800           0
     12809 MEMB     110      POPC     C29      CEL1    -0.150000       12.0110           0
     12810 MEMB     110      POPC     H91      HEL1     0.150000       1.00800           0
     12811 MEMB     110      POPC     C210     CEL1    -0.150000       12.0110           0
     12812 MEMB     110      POPC     H101     HEL1     0.150000       1.00800           0
     12813 MEMB     110      POPC     C211     CTL2    -0.180000       12.0110           0
     12814 MEMB     110      POPC     H11R     HAL2     0.900000E-01   1.00800           0
     12815 MEMB     110      POPC     H11S     HAL2     0.900000E-01   1.00800           0
     12816 MEMB     110      POPC     C212     CTL2    -0.180000       12.0110           0
     12817 MEMB     110      POPC     H12R     HAL2     0.900000E-01   1.00800           0
     12818 MEMB     110      POPC     H12S     HAL2     0.900000E-01   1.00800           0
     12819 MEMB     110      POPC     C213     CTL2    -0.180000       12.0110           0
     12820 MEMB     110      POPC     H13R     HAL2     0.900000E-01   1.00800           0
     12821 MEMB     110      POPC     H13S     HAL2     0.900000E-01   1.00800           0
     12822 MEMB     110      POPC     C214     CTL2    -0.180000       12.0110           0
     12823 MEMB     110      POPC     H14R     HAL2     0.900000E-01   1.00800           0
     12824 MEMB     110      POPC     H14S     HAL2     0.900000E-01   1.00800           0
     12825 MEMB     110      POPC     C215     CTL2    -0.180000       12.0110           0
     12826 MEMB     110      POPC     H15R     HAL2     0.900000E-01   1.00800           0
     12827 MEMB     110      POPC     H15S     HAL2     0.900000E-01   1.00800           0
     12828 MEMB     110      POPC     C216     CTL2    -0.180000       12.0110           0
     12829 MEMB     110      POPC     H16R     HAL2     0.900000E-01   1.00800           0
     12830 MEMB     110      POPC     H16S     HAL2     0.900000E-01   1.00800           0
     12831 MEMB     110      POPC     C217     CTL2    -0.180000       12.0110           0
     12832 MEMB     110      POPC     H17R     HAL2     0.900000E-01   1.00800           0
     12833 MEMB     110      POPC     H17S     HAL2     0.900000E-01   1.00800           0
     12834 MEMB     110      POPC     C218     CTL3    -0.270000       12.0110           0
     12835 MEMB     110      POPC     H18R     HAL3     0.900000E-01   1.00800           0
     12836 MEMB     110      POPC     H18S     HAL3     0.900000E-01   1.00800           0
     12837 MEMB     110      POPC     H18T     HAL3     0.900000E-01   1.00800           0
     12838 MEMB     110      POPC     C33      CTL2    -0.180000       12.0110           0
     12839 MEMB     110      POPC     H3X      HAL2     0.900000E-01   1.00800           0
     12840 MEMB     110      POPC     H3Y      HAL2     0.900000E-01   1.00800           0
     12841 MEMB     110      POPC     C34      CTL2    -0.180000       12.0110           0
     12842 MEMB     110      POPC     H4X      HAL2     0.900000E-01   1.00800           0
     12843 MEMB     110      POPC     H4Y      HAL2     0.900000E-01   1.00800           0
     12844 MEMB     110      POPC     C35      CTL2    -0.180000       12.0110           0
     12845 MEMB     110      POPC     H5X      HAL2     0.900000E-01   1.00800           0
     12846 MEMB     110      POPC     H5Y      HAL2     0.900000E-01   1.00800           0
     12847 MEMB     110      POPC     C36      CTL2    -0.180000       12.0110           0
     12848 MEMB     110      POPC     H6X      HAL2     0.900000E-01   1.00800           0
     12849 MEMB     110      POPC     H6Y      HAL2     0.900000E-01   1.00800           0
     12850 MEMB     110      POPC     C37      CTL2    -0.180000       12.0110           0
     12851 MEMB     110      POPC     H7X      HAL2     0.900000E-01   1.00800           0
     12852 MEMB     110      POPC     H7Y      HAL2     0.900000E-01   1.00800           0
     12853 MEMB     110      POPC     C38      CTL2    -0.180000       12.0110           0
     12854 MEMB     110      POPC     H8X      HAL2     0.900000E-01   1.00800           0
     12855 MEMB     110      POPC     H8Y      HAL2     0.900000E-01   1.00800           0
     12856 MEMB     110      POPC     C39      CTL2    -0.180000       12.0110           0
     12857 MEMB     110      POPC     H9X      HAL2     0.900000E-01   1.00800           0
     12858 MEMB     110      POPC     H9Y      HAL2     0.900000E-01   1.00800           0
     12859 MEMB     110      POPC     C310     CTL2    -0.180000       12.0110           0
     12860 MEMB     110      POPC     H10X     HAL2     0.900000E-01   1.00800           0
     12861 MEMB     110      POPC     H10Y     HAL2     0.900000E-01   1.00800           0
     12862 MEMB     110      POPC     C311     CTL2    -0.180000       12.0110           0
     12863 MEMB     110      POPC     H11X     HAL2     0.900000E-01   1.00800           0
     12864 MEMB     110      POPC     H11Y     HAL2     0.900000E-01   1.00800           0
     12865 MEMB     110      POPC     C312     CTL2    -0.180000       12.0110           0
     12866 MEMB     110      POPC     H12X     HAL2     0.900000E-01   1.00800           0
     12867 MEMB     110      POPC     H12Y     HAL2     0.900000E-01   1.00800           0
     12868 MEMB     110      POPC     C313     CTL2    -0.180000       12.0110           0
     12869 MEMB     110      POPC     H13X     HAL2     0.900000E-01   1.00800           0
     12870 MEMB     110      POPC     H13Y     HAL2     0.900000E-01   1.00800           0
     12871 MEMB     110      POPC     C314     CTL2    -0.180000       12.0110           0
     12872 MEMB     110      POPC     H14X     HAL2     0.900000E-01   1.00800           0
     12873 MEMB     110      POPC     H14Y     HAL2     0.900000E-01   1.00800           0
     12874 MEMB     110      POPC     C315     CTL2    -0.180000       12.0110           0
     12875 MEMB     110      POPC     H15X     HAL2     0.900000E-01   1.00800           0
     12876 MEMB     110      POPC     H15Y     HAL2     0.900000E-01   1.00800           0
     12877 MEMB     110      POPC     C316     CTL3    -0.270000       12.0110           0
     12878 MEMB     110      POPC     H16X     HAL3     0.900000E-01   1.00800           0
     12879 MEMB     110      POPC     H16Y     HAL3     0.900000E-01   1.00800           0
     12880 MEMB     110      POPC     H16Z     HAL3     0.900000E-01   1.00800           0
     12881 MEMB     111      POPC     N        NTL     -0.600000       14.0070           0
     12882 MEMB     111      POPC     C12      CTL2    -0.100000       12.0110           0
     12883 MEMB     111      POPC     H12A     HL       0.250000       1.00800           0
     12884 MEMB     111      POPC     H12B     HL       0.250000       1.00800           0
     12885 MEMB     111      POPC     C13      CTL5    -0.350000       12.0110           0
     12886 MEMB     111      POPC     H13A     HL       0.250000       1.00800           0
     12887 MEMB     111      POPC     H13B     HL       0.250000       1.00800           0
     12888 MEMB     111      POPC     H13C     HL       0.250000       1.00800           0
     12889 MEMB     111      POPC     C14      CTL5    -0.350000       12.0110           0
     12890 MEMB     111      POPC     H14A     HL       0.250000       1.00800           0
     12891 MEMB     111      POPC     H14B     HL       0.250000       1.00800           0
     12892 MEMB     111      POPC     H14C     HL       0.250000       1.00800           0
     12893 MEMB     111      POPC     C15      CTL5    -0.350000       12.0110           0
     12894 MEMB     111      POPC     H15A     HL       0.250000       1.00800           0
     12895 MEMB     111      POPC     H15B     HL       0.250000       1.00800           0
     12896 MEMB     111      POPC     H15C     HL       0.250000       1.00800           0
     12897 MEMB     111      POPC     C11      CTL2    -0.800000E-01   12.0110           0
     12898 MEMB     111      POPC     H11A     HAL2     0.900000E-01   1.00800           0
     12899 MEMB     111      POPC     H11B     HAL2     0.900000E-01   1.00800           0
     12900 MEMB     111      POPC     P        PL        1.50000       30.9740           0
     12901 MEMB     111      POPC     O13      O2L     -0.780000       15.9994           0
     12902 MEMB     111      POPC     O14      O2L     -0.780000       15.9994           0
     12903 MEMB     111      POPC     O12      OSLP    -0.570000       15.9994           0
     12904 MEMB     111      POPC     O11      OSLP    -0.570000       15.9994           0
     12905 MEMB     111      POPC     C1       CTL2    -0.800000E-01   12.0110           0
     12906 MEMB     111      POPC     HA       HAL2     0.900000E-01   1.00800           0
     12907 MEMB     111      POPC     HB       HAL2     0.900000E-01   1.00800           0
     12908 MEMB     111      POPC     C2       CTL1     0.170000       12.0110           0
     12909 MEMB     111      POPC     HS       HAL1     0.900000E-01   1.00800           0
     12910 MEMB     111      POPC     O21      OSL     -0.490000       15.9994           0
     12911 MEMB     111      POPC     C21      CL       0.900000       12.0110           0
     12912 MEMB     111      POPC     O22      OBL     -0.630000       15.9994           0
     12913 MEMB     111      POPC     C22      CTL2    -0.220000       12.0110           0
     12914 MEMB     111      POPC     H2R      HAL2     0.900000E-01   1.00800           0
     12915 MEMB     111      POPC     H2S      HAL2     0.900000E-01   1.00800           0
     12916 MEMB     111      POPC     C3       CTL2     0.800000E-01   12.0110           0
     12917 MEMB     111      POPC     HX       HAL2     0.900000E-01   1.00800           0
     12918 MEMB     111      POPC     HY       HAL2     0.900000E-01   1.00800           0
     12919 MEMB     111      POPC     O31      OSL     -0.490000       15.9994           0
     12920 MEMB     111      POPC     C31      CL       0.900000       12.0110           0
     12921 MEMB     111      POPC     O32      OBL     -0.630000       15.9994           0
     12922 MEMB     111      POPC     C32      CTL2    -0.220000       12.0110           0
     12923 MEMB     111      POPC     H2X      HAL2     0.900000E-01   1.00800           0
     12924 MEMB     111      POPC     H2Y      HAL2     0.900000E-01   1.00800           0
     12925 MEMB     111      POPC     C23      CTL2    -0.180000       12.0110           0
     12926 MEMB     111      POPC     H3R      HAL2     0.900000E-01   1.00800           0
     12927 MEMB     111      POPC     H3S      HAL2     0.900000E-01   1.00800           0
     12928 MEMB     111      POPC     C24      CTL2    -0.180000       12.0110           0
     12929 MEMB     111      POPC     H4R      HAL2     0.900000E-01   1.00800           0
     12930 MEMB     111      POPC     H4S      HAL2     0.900000E-01   1.00800           0
     12931 MEMB     111      POPC     C25      CTL2    -0.180000       12.0110           0
     12932 MEMB     111      POPC     H5R      HAL2     0.900000E-01   1.00800           0
     12933 MEMB     111      POPC     H5S      HAL2     0.900000E-01   1.00800           0
     12934 MEMB     111      POPC     C26      CTL2    -0.180000       12.0110           0
     12935 MEMB     111      POPC     H6R      HAL2     0.900000E-01   1.00800           0
     12936 MEMB     111      POPC     H6S      HAL2     0.900000E-01   1.00800           0
     12937 MEMB     111      POPC     C27      CTL2    -0.180000       12.0110           0
     12938 MEMB     111      POPC     H7R      HAL2     0.900000E-01   1.00800           0
     12939 MEMB     111      POPC     H7S      HAL2     0.900000E-01   1.00800           0
     12940 MEMB     111      POPC     C28      CTL2    -0.180000       12.0110           0
     12941 MEMB     111      POPC     H8R      HAL2     0.900000E-01   1.00800           0
     12942 MEMB     111      POPC     H8S      HAL2     0.900000E-01   1.00800           0
     12943 MEMB     111      POPC     C29      CEL1    -0.150000       12.0110           0
     12944 MEMB     111      POPC     H91      HEL1     0.150000       1.00800           0
     12945 MEMB     111      POPC     C210     CEL1    -0.150000       12.0110           0
     12946 MEMB     111      POPC     H101     HEL1     0.150000       1.00800           0
     12947 MEMB     111      POPC     C211     CTL2    -0.180000       12.0110           0
     12948 MEMB     111      POPC     H11R     HAL2     0.900000E-01   1.00800           0
     12949 MEMB     111      POPC     H11S     HAL2     0.900000E-01   1.00800           0
     12950 MEMB     111      POPC     C212     CTL2    -0.180000       12.0110           0
     12951 MEMB     111      POPC     H12R     HAL2     0.900000E-01   1.00800           0
     12952 MEMB     111      POPC     H12S     HAL2     0.900000E-01   1.00800           0
     12953 MEMB     111      POPC     C213     CTL2    -0.180000       12.0110           0
     12954 MEMB     111      POPC     H13R     HAL2     0.900000E-01   1.00800           0
     12955 MEMB     111      POPC     H13S     HAL2     0.900000E-01   1.00800           0
     12956 MEMB     111      POPC     C214     CTL2    -0.180000       12.0110           0
     12957 MEMB     111      POPC     H14R     HAL2     0.900000E-01   1.00800           0
     12958 MEMB     111      POPC     H14S     HAL2     0.900000E-01   1.00800           0
     12959 MEMB     111      POPC     C215     CTL2    -0.180000       12.0110           0
     12960 MEMB     111      POPC     H15R     HAL2     0.900000E-01   1.00800           0
     12961 MEMB     111      POPC     H15S     HAL2     0.900000E-01   1.00800           0
     12962 MEMB     111      POPC     C216     CTL2    -0.180000       12.0110           0
     12963 MEMB     111      POPC     H16R     HAL2     0.900000E-01   1.00800           0
     12964 MEMB     111      POPC     H16S     HAL2     0.900000E-01   1.00800           0
     12965 MEMB     111      POPC     C217     CTL2    -0.180000       12.0110           0
     12966 MEMB     111      POPC     H17R     HAL2     0.900000E-01   1.00800           0
     12967 MEMB     111      POPC     H17S     HAL2     0.900000E-01   1.00800           0
     12968 MEMB     111      POPC     C218     CTL3    -0.270000       12.0110           0
     12969 MEMB     111      POPC     H18R     HAL3     0.900000E-01   1.00800           0
     12970 MEMB     111      POPC     H18S     HAL3     0.900000E-01   1.00800           0
     12971 MEMB     111      POPC     H18T     HAL3     0.900000E-01   1.00800           0
     12972 MEMB     111      POPC     C33      CTL2    -0.180000       12.0110           0
     12973 MEMB     111      POPC     H3X      HAL2     0.900000E-01   1.00800           0
     12974 MEMB     111      POPC     H3Y      HAL2     0.900000E-01   1.00800           0
     12975 MEMB     111      POPC     C34      CTL2    -0.180000       12.0110           0
     12976 MEMB     111      POPC     H4X      HAL2     0.900000E-01   1.00800           0
     12977 MEMB     111      POPC     H4Y      HAL2     0.900000E-01   1.00800           0
     12978 MEMB     111      POPC     C35      CTL2    -0.180000       12.0110           0
     12979 MEMB     111      POPC     H5X      HAL2     0.900000E-01   1.00800           0
     12980 MEMB     111      POPC     H5Y      HAL2     0.900000E-01   1.00800           0
     12981 MEMB     111      POPC     C36      CTL2    -0.180000       12.0110           0
     12982 MEMB     111      POPC     H6X      HAL2     0.900000E-01   1.00800           0
     12983 MEMB     111      POPC     H6Y      HAL2     0.900000E-01   1.00800           0
     12984 MEMB     111      POPC     C37      CTL2    -0.180000       12.0110           0
     12985 MEMB     111      POPC     H7X      HAL2     0.900000E-01   1.00800           0
     12986 MEMB     111      POPC     H7Y      HAL2     0.900000E-01   1.00800           0
     12987 MEMB     111      POPC     C38      CTL2    -0.180000       12.0110           0
     12988 MEMB     111      POPC     H8X      HAL2     0.900000E-01   1.00800           0
     12989 MEMB     111      POPC     H8Y      HAL2     0.900000E-01   1.00800           0
     12990 MEMB     111      POPC     C39      CTL2    -0.180000       12.0110           0
     12991 MEMB     111      POPC     H9X      HAL2     0.900000E-01   1.00800           0
     12992 MEMB     111      POPC     H9Y      HAL2     0.900000E-01   1.00800           0
     12993 MEMB     111      POPC     C310     CTL2    -0.180000       12.0110           0
     12994 MEMB     111      POPC     H10X     HAL2     0.900000E-01   1.00800           0
     12995 MEMB     111      POPC     H10Y     HAL2     0.900000E-01   1.00800           0
     12996 MEMB     111      POPC     C311     CTL2    -0.180000       12.0110           0
     12997 MEMB     111      POPC     H11X     HAL2     0.900000E-01   1.00800           0
     12998 MEMB     111      POPC     H11Y     HAL2     0.900000E-01   1.00800           0
     12999 MEMB     111      POPC     C312     CTL2    -0.180000       12.0110           0
     13000 MEMB     111      POPC     H12X     HAL2     0.900000E-01   1.00800           0
     13001 MEMB     111      POPC     H12Y     HAL2     0.900000E-01   1.00800           0
     13002 MEMB     111      POPC     C313     CTL2    -0.180000       12.0110           0
     13003 MEMB     111      POPC     H13X     HAL2     0.900000E-01   1.00800           0
     13004 MEMB     111      POPC     H13Y     HAL2     0.900000E-01   1.00800           0
     13005 MEMB     111      POPC     C314     CTL2    -0.180000       12.0110           0
     13006 MEMB     111      POPC     H14X     HAL2     0.900000E-01   1.00800           0
     13007 MEMB     111      POPC     H14Y     HAL2     0.900000E-01   1.00800           0
     13008 MEMB     111      POPC     C315     CTL2    -0.180000       12.0110           0
     13009 MEMB     111      POPC     H15X     HAL2     0.900000E-01   1.00800           0
     13010 MEMB     111      POPC     H15Y     HAL2     0.900000E-01   1.00800           0
     13011 MEMB     111      POPC     C316     CTL3    -0.270000       12.0110           0
     13012 MEMB     111      POPC     H16X     HAL3     0.900000E-01   1.00800           0
     13013 MEMB     111      POPC     H16Y     HAL3     0.900000E-01   1.00800           0
     13014 MEMB     111      POPC     H16Z     HAL3     0.900000E-01   1.00800           0
     13015 MEMB     112      POPC     N        NTL     -0.600000       14.0070           0
     13016 MEMB     112      POPC     C12      CTL2    -0.100000       12.0110           0
     13017 MEMB     112      POPC     H12A     HL       0.250000       1.00800           0
     13018 MEMB     112      POPC     H12B     HL       0.250000       1.00800           0
     13019 MEMB     112      POPC     C13      CTL5    -0.350000       12.0110           0
     13020 MEMB     112      POPC     H13A     HL       0.250000       1.00800           0
     13021 MEMB     112      POPC     H13B     HL       0.250000       1.00800           0
     13022 MEMB     112      POPC     H13C     HL       0.250000       1.00800           0
     13023 MEMB     112      POPC     C14      CTL5    -0.350000       12.0110           0
     13024 MEMB     112      POPC     H14A     HL       0.250000       1.00800           0
     13025 MEMB     112      POPC     H14B     HL       0.250000       1.00800           0
     13026 MEMB     112      POPC     H14C     HL       0.250000       1.00800           0
     13027 MEMB     112      POPC     C15      CTL5    -0.350000       12.0110           0
     13028 MEMB     112      POPC     H15A     HL       0.250000       1.00800           0
     13029 MEMB     112      POPC     H15B     HL       0.250000       1.00800           0
     13030 MEMB     112      POPC     H15C     HL       0.250000       1.00800           0
     13031 MEMB     112      POPC     C11      CTL2    -0.800000E-01   12.0110           0
     13032 MEMB     112      POPC     H11A     HAL2     0.900000E-01   1.00800           0
     13033 MEMB     112      POPC     H11B     HAL2     0.900000E-01   1.00800           0
     13034 MEMB     112      POPC     P        PL        1.50000       30.9740           0
     13035 MEMB     112      POPC     O13      O2L     -0.780000       15.9994           0
     13036 MEMB     112      POPC     O14      O2L     -0.780000       15.9994           0
     13037 MEMB     112      POPC     O12      OSLP    -0.570000       15.9994           0
     13038 MEMB     112      POPC     O11      OSLP    -0.570000       15.9994           0
     13039 MEMB     112      POPC     C1       CTL2    -0.800000E-01   12.0110           0
     13040 MEMB     112      POPC     HA       HAL2     0.900000E-01   1.00800           0
     13041 MEMB     112      POPC     HB       HAL2     0.900000E-01   1.00800           0
     13042 MEMB     112      POPC     C2       CTL1     0.170000       12.0110           0
     13043 MEMB     112      POPC     HS       HAL1     0.900000E-01   1.00800           0
     13044 MEMB     112      POPC     O21      OSL     -0.490000       15.9994           0
     13045 MEMB     112      POPC     C21      CL       0.900000       12.0110           0
     13046 MEMB     112      POPC     O22      OBL     -0.630000       15.9994           0
     13047 MEMB     112      POPC     C22      CTL2    -0.220000       12.0110           0
     13048 MEMB     112      POPC     H2R      HAL2     0.900000E-01   1.00800           0
     13049 MEMB     112      POPC     H2S      HAL2     0.900000E-01   1.00800           0
     13050 MEMB     112      POPC     C3       CTL2     0.800000E-01   12.0110           0
     13051 MEMB     112      POPC     HX       HAL2     0.900000E-01   1.00800           0
     13052 MEMB     112      POPC     HY       HAL2     0.900000E-01   1.00800           0
     13053 MEMB     112      POPC     O31      OSL     -0.490000       15.9994           0
     13054 MEMB     112      POPC     C31      CL       0.900000       12.0110           0
     13055 MEMB     112      POPC     O32      OBL     -0.630000       15.9994           0
     13056 MEMB     112      POPC     C32      CTL2    -0.220000       12.0110           0
     13057 MEMB     112      POPC     H2X      HAL2     0.900000E-01   1.00800           0
     13058 MEMB     112      POPC     H2Y      HAL2     0.900000E-01   1.00800           0
     13059 MEMB     112      POPC     C23      CTL2    -0.180000       12.0110           0
     13060 MEMB     112      POPC     H3R      HAL2     0.900000E-01   1.00800           0
     13061 MEMB     112      POPC     H3S      HAL2     0.900000E-01   1.00800           0
     13062 MEMB     112      POPC     C24      CTL2    -0.180000       12.0110           0
     13063 MEMB     112      POPC     H4R      HAL2     0.900000E-01   1.00800           0
     13064 MEMB     112      POPC     H4S      HAL2     0.900000E-01   1.00800           0
     13065 MEMB     112      POPC     C25      CTL2    -0.180000       12.0110           0
     13066 MEMB     112      POPC     H5R      HAL2     0.900000E-01   1.00800           0
     13067 MEMB     112      POPC     H5S      HAL2     0.900000E-01   1.00800           0
     13068 MEMB     112      POPC     C26      CTL2    -0.180000       12.0110           0
     13069 MEMB     112      POPC     H6R      HAL2     0.900000E-01   1.00800           0
     13070 MEMB     112      POPC     H6S      HAL2     0.900000E-01   1.00800           0
     13071 MEMB     112      POPC     C27      CTL2    -0.180000       12.0110           0
     13072 MEMB     112      POPC     H7R      HAL2     0.900000E-01   1.00800           0
     13073 MEMB     112      POPC     H7S      HAL2     0.900000E-01   1.00800           0
     13074 MEMB     112      POPC     C28      CTL2    -0.180000       12.0110           0
     13075 MEMB     112      POPC     H8R      HAL2     0.900000E-01   1.00800           0
     13076 MEMB     112      POPC     H8S      HAL2     0.900000E-01   1.00800           0
     13077 MEMB     112      POPC     C29      CEL1    -0.150000       12.0110           0
     13078 MEMB     112      POPC     H91      HEL1     0.150000       1.00800           0
     13079 MEMB     112      POPC     C210     CEL1    -0.150000       12.0110           0
     13080 MEMB     112      POPC     H101     HEL1     0.150000       1.00800           0
     13081 MEMB     112      POPC     C211     CTL2    -0.180000       12.0110           0
     13082 MEMB     112      POPC     H11R     HAL2     0.900000E-01   1.00800           0
     13083 MEMB     112      POPC     H11S     HAL2     0.900000E-01   1.00800           0
     13084 MEMB     112      POPC     C212     CTL2    -0.180000       12.0110           0
     13085 MEMB     112      POPC     H12R     HAL2     0.900000E-01   1.00800           0
     13086 MEMB     112      POPC     H12S     HAL2     0.900000E-01   1.00800           0
     13087 MEMB     112      POPC     C213     CTL2    -0.180000       12.0110           0
     13088 MEMB     112      POPC     H13R     HAL2     0.900000E-01   1.00800           0
     13089 MEMB     112      POPC     H13S     HAL2     0.900000E-01   1.00800           0
     13090 MEMB     112      POPC     C214     CTL2    -0.180000       12.0110           0
     13091 MEMB     112      POPC     H14R     HAL2     0.900000E-01   1.00800           0
     13092 MEMB     112      POPC     H14S     HAL2     0.900000E-01   1.00800           0
     13093 MEMB     112      POPC     C215     CTL2    -0.180000       12.0110           0
     13094 MEMB     112      POPC     H15R     HAL2     0.900000E-01   1.00800           0
     13095 MEMB     112      POPC     H15S     HAL2     0.900000E-01   1.00800           0
     13096 MEMB     112      POPC     C216     CTL2    -0.180000       12.0110           0
     13097 MEMB     112      POPC     H16R     HAL2     0.900000E-01   1.00800           0
     13098 MEMB     112      POPC     H16S     HAL2     0.900000E-01   1.00800           0
     13099 MEMB     112      POPC     C217     CTL2    -0.180000       12.0110           0
     13100 MEMB     112      POPC     H17R     HAL2     0.900000E-01   1.00800           0
     13101 MEMB     112      POPC     H17S     HAL2     0.900000E-01   1.00800           0
     13102 MEMB     112      POPC     C218     CTL3    -0.270000       12.0110           0
     13103 MEMB     112      POPC     H18R     HAL3     0.900000E-01   1.00800           0
     13104 MEMB     112      POPC     H18S     HAL3     0.900000E-01   1.00800           0
     13105 MEMB     112      POPC     H18T     HAL3     0.900000E-01   1.00800           0
     13106 MEMB     112      POPC     C33      CTL2    -0.180000       12.0110           0
     13107 MEMB     112      POPC     H3X      HAL2     0.900000E-01   1.00800           0
     13108 MEMB     112      POPC     H3Y      HAL2     0.900000E-01   1.00800           0
     13109 MEMB     112      POPC     C34      CTL2    -0.180000       12.0110           0
     13110 MEMB     112      POPC     H4X      HAL2     0.900000E-01   1.00800           0
     13111 MEMB     112      POPC     H4Y      HAL2     0.900000E-01   1.00800           0
     13112 MEMB     112      POPC     C35      CTL2    -0.180000       12.0110           0
     13113 MEMB     112      POPC     H5X      HAL2     0.900000E-01   1.00800           0
     13114 MEMB     112      POPC     H5Y      HAL2     0.900000E-01   1.00800           0
     13115 MEMB     112      POPC     C36      CTL2    -0.180000       12.0110           0
     13116 MEMB     112      POPC     H6X      HAL2     0.900000E-01   1.00800           0
     13117 MEMB     112      POPC     H6Y      HAL2     0.900000E-01   1.00800           0
     13118 MEMB     112      POPC     C37      CTL2    -0.180000       12.0110           0
     13119 MEMB     112      POPC     H7X      HAL2     0.900000E-01   1.00800           0
     13120 MEMB     112      POPC     H7Y      HAL2     0.900000E-01   1.00800           0
     13121 MEMB     112      POPC     C38      CTL2    -0.180000       12.0110           0
     13122 MEMB     112      POPC     H8X      HAL2     0.900000E-01   1.00800           0
     13123 MEMB     112      POPC     H8Y      HAL2     0.900000E-01   1.00800           0
     13124 MEMB     112      POPC     C39      CTL2    -0.180000       12.0110           0
     13125 MEMB     112      POPC     H9X      HAL2     0.900000E-01   1.00800           0
     13126 MEMB     112      POPC     H9Y      HAL2     0.900000E-01   1.00800           0
     13127 MEMB     112      POPC     C310     CTL2    -0.180000       12.0110           0
     13128 MEMB     112      POPC     H10X     HAL2     0.900000E-01   1.00800           0
     13129 MEMB     112      POPC     H10Y     HAL2     0.900000E-01   1.00800           0
     13130 MEMB     112      POPC     C311     CTL2    -0.180000       12.0110           0
     13131 MEMB     112      POPC     H11X     HAL2     0.900000E-01   1.00800           0
     13132 MEMB     112      POPC     H11Y     HAL2     0.900000E-01   1.00800           0
     13133 MEMB     112      POPC     C312     CTL2    -0.180000       12.0110           0
     13134 MEMB     112      POPC     H12X     HAL2     0.900000E-01   1.00800           0
     13135 MEMB     112      POPC     H12Y     HAL2     0.900000E-01   1.00800           0
     13136 MEMB     112      POPC     C313     CTL2    -0.180000       12.0110           0
     13137 MEMB     112      POPC     H13X     HAL2     0.900000E-01   1.00800           0
     13138 MEMB     112      POPC     H13Y     HAL2     0.900000E-01   1.00800           0
     13139 MEMB     112      POPC     C314     CTL2    -0.180000       12.0110           0
     13140 MEMB     112      POPC     H14X     HAL2     0.900000E-01   1.00800           0
     13141 MEMB     112      POPC     H14Y     HAL2     0.900000E-01   1.00800           0
     13142 MEMB     112      POPC     C315     CTL2    -0.180000       12.0110           0
     13143 MEMB     112      POPC     H15X     HAL2     0.900000E-01   1.00800           0
     13144 MEMB     112      POPC     H15Y     HAL2     0.900000E-01   1.00800           0
     13145 MEMB     112      POPC     C316     CTL3    -0.270000       12.0110           0
     13146 MEMB     112      POPC     H16X     HAL3     0.900000E-01   1.00800           0
     13147 MEMB     112      POPC     H16Y     HAL3     0.900000E-01   1.00800           0
     13148 MEMB     112      POPC     H16Z     HAL3     0.900000E-01   1.00800           0
     13149 MEMB     113      POPC     N        NTL     -0.600000       14.0070           0
     13150 MEMB     113      POPC     C12      CTL2    -0.100000       12.0110           0
     13151 MEMB     113      POPC     H12A     HL       0.250000       1.00800           0
     13152 MEMB     113      POPC     H12B     HL       0.250000       1.00800           0
     13153 MEMB     113      POPC     C13      CTL5    -0.350000       12.0110           0
     13154 MEMB     113      POPC     H13A     HL       0.250000       1.00800           0
     13155 MEMB     113      POPC     H13B     HL       0.250000       1.00800           0
     13156 MEMB     113      POPC     H13C     HL       0.250000       1.00800           0
     13157 MEMB     113      POPC     C14      CTL5    -0.350000       12.0110           0
     13158 MEMB     113      POPC     H14A     HL       0.250000       1.00800           0
     13159 MEMB     113      POPC     H14B     HL       0.250000       1.00800           0
     13160 MEMB     113      POPC     H14C     HL       0.250000       1.00800           0
     13161 MEMB     113      POPC     C15      CTL5    -0.350000       12.0110           0
     13162 MEMB     113      POPC     H15A     HL       0.250000       1.00800           0
     13163 MEMB     113      POPC     H15B     HL       0.250000       1.00800           0
     13164 MEMB     113      POPC     H15C     HL       0.250000       1.00800           0
     13165 MEMB     113      POPC     C11      CTL2    -0.800000E-01   12.0110           0
     13166 MEMB     113      POPC     H11A     HAL2     0.900000E-01   1.00800           0
     13167 MEMB     113      POPC     H11B     HAL2     0.900000E-01   1.00800           0
     13168 MEMB     113      POPC     P        PL        1.50000       30.9740           0
     13169 MEMB     113      POPC     O13      O2L     -0.780000       15.9994           0
     13170 MEMB     113      POPC     O14      O2L     -0.780000       15.9994           0
     13171 MEMB     113      POPC     O12      OSLP    -0.570000       15.9994           0
     13172 MEMB     113      POPC     O11      OSLP    -0.570000       15.9994           0
     13173 MEMB     113      POPC     C1       CTL2    -0.800000E-01   12.0110           0
     13174 MEMB     113      POPC     HA       HAL2     0.900000E-01   1.00800           0
     13175 MEMB     113      POPC     HB       HAL2     0.900000E-01   1.00800           0
     13176 MEMB     113      POPC     C2       CTL1     0.170000       12.0110           0
     13177 MEMB     113      POPC     HS       HAL1     0.900000E-01   1.00800           0
     13178 MEMB     113      POPC     O21      OSL     -0.490000       15.9994           0
     13179 MEMB     113      POPC     C21      CL       0.900000       12.0110           0
     13180 MEMB     113      POPC     O22      OBL     -0.630000       15.9994           0
     13181 MEMB     113      POPC     C22      CTL2    -0.220000       12.0110           0
     13182 MEMB     113      POPC     H2R      HAL2     0.900000E-01   1.00800           0
     13183 MEMB     113      POPC     H2S      HAL2     0.900000E-01   1.00800           0
     13184 MEMB     113      POPC     C3       CTL2     0.800000E-01   12.0110           0
     13185 MEMB     113      POPC     HX       HAL2     0.900000E-01   1.00800           0
     13186 MEMB     113      POPC     HY       HAL2     0.900000E-01   1.00800           0
     13187 MEMB     113      POPC     O31      OSL     -0.490000       15.9994           0
     13188 MEMB     113      POPC     C31      CL       0.900000       12.0110           0
     13189 MEMB     113      POPC     O32      OBL     -0.630000       15.9994           0
     13190 MEMB     113      POPC     C32      CTL2    -0.220000       12.0110           0
     13191 MEMB     113      POPC     H2X      HAL2     0.900000E-01   1.00800           0
     13192 MEMB     113      POPC     H2Y      HAL2     0.900000E-01   1.00800           0
     13193 MEMB     113      POPC     C23      CTL2    -0.180000       12.0110           0
     13194 MEMB     113      POPC     H3R      HAL2     0.900000E-01   1.00800           0
     13195 MEMB     113      POPC     H3S      HAL2     0.900000E-01   1.00800           0
     13196 MEMB     113      POPC     C24      CTL2    -0.180000       12.0110           0
     13197 MEMB     113      POPC     H4R      HAL2     0.900000E-01   1.00800           0
     13198 MEMB     113      POPC     H4S      HAL2     0.900000E-01   1.00800           0
     13199 MEMB     113      POPC     C25      CTL2    -0.180000       12.0110           0
     13200 MEMB     113      POPC     H5R      HAL2     0.900000E-01   1.00800           0
     13201 MEMB     113      POPC     H5S      HAL2     0.900000E-01   1.00800           0
     13202 MEMB     113      POPC     C26      CTL2    -0.180000       12.0110           0
     13203 MEMB     113      POPC     H6R      HAL2     0.900000E-01   1.00800           0
     13204 MEMB     113      POPC     H6S      HAL2     0.900000E-01   1.00800           0
     13205 MEMB     113      POPC     C27      CTL2    -0.180000       12.0110           0
     13206 MEMB     113      POPC     H7R      HAL2     0.900000E-01   1.00800           0
     13207 MEMB     113      POPC     H7S      HAL2     0.900000E-01   1.00800           0
     13208 MEMB     113      POPC     C28      CTL2    -0.180000       12.0110           0
     13209 MEMB     113      POPC     H8R      HAL2     0.900000E-01   1.00800           0
     13210 MEMB     113      POPC     H8S      HAL2     0.900000E-01   1.00800           0
     13211 MEMB     113      POPC     C29      CEL1    -0.150000       12.0110           0
     13212 MEMB     113      POPC     H91      HEL1     0.150000       1.00800           0
     13213 MEMB     113      POPC     C210     CEL1    -0.150000       12.0110           0
     13214 MEMB     113      POPC     H101     HEL1     0.150000       1.00800           0
     13215 MEMB     113      POPC     C211     CTL2    -0.180000       12.0110           0
     13216 MEMB     113      POPC     H11R     HAL2     0.900000E-01   1.00800           0
     13217 MEMB     113      POPC     H11S     HAL2     0.900000E-01   1.00800           0
     13218 MEMB     113      POPC     C212     CTL2    -0.180000       12.0110           0
     13219 MEMB     113      POPC     H12R     HAL2     0.900000E-01   1.00800           0
     13220 MEMB     113      POPC     H12S     HAL2     0.900000E-01   1.00800           0
     13221 MEMB     113      POPC     C213     CTL2    -0.180000       12.0110           0
     13222 MEMB     113      POPC     H13R     HAL2     0.900000E-01   1.00800           0
     13223 MEMB     113      POPC     H13S     HAL2     0.900000E-01   1.00800           0
     13224 MEMB     113      POPC     C214     CTL2    -0.180000       12.0110           0
     13225 MEMB     113      POPC     H14R     HAL2     0.900000E-01   1.00800           0
     13226 MEMB     113      POPC     H14S     HAL2     0.900000E-01   1.00800           0
     13227 MEMB     113      POPC     C215     CTL2    -0.180000       12.0110           0
     13228 MEMB     113      POPC     H15R     HAL2     0.900000E-01   1.00800           0
     13229 MEMB     113      POPC     H15S     HAL2     0.900000E-01   1.00800           0
     13230 MEMB     113      POPC     C216     CTL2    -0.180000       12.0110           0
     13231 MEMB     113      POPC     H16R     HAL2     0.900000E-01   1.00800           0
     13232 MEMB     113      POPC     H16S     HAL2     0.900000E-01   1.00800           0
     13233 MEMB     113      POPC     C217     CTL2    -0.180000       12.0110           0
     13234 MEMB     113      POPC     H17R     HAL2     0.900000E-01   1.00800           0
     13235 MEMB     113      POPC     H17S     HAL2     0.900000E-01   1.00800           0
     13236 MEMB     113      POPC     C218     CTL3    -0.270000       12.0110           0
     13237 MEMB     113      POPC     H18R     HAL3     0.900000E-01   1.00800           0
     13238 MEMB     113      POPC     H18S     HAL3     0.900000E-01   1.00800           0
     13239 MEMB     113      POPC     H18T     HAL3     0.900000E-01   1.00800           0
     13240 MEMB     113      POPC     C33      CTL2    -0.180000       12.0110           0
     13241 MEMB     113      POPC     H3X      HAL2     0.900000E-01   1.00800           0
     13242 MEMB     113      POPC     H3Y      HAL2     0.900000E-01   1.00800           0
     13243 MEMB     113      POPC     C34      CTL2    -0.180000       12.0110           0
     13244 MEMB     113      POPC     H4X      HAL2     0.900000E-01   1.00800           0
     13245 MEMB     113      POPC     H4Y      HAL2     0.900000E-01   1.00800           0
     13246 MEMB     113      POPC     C35      CTL2    -0.180000       12.0110           0
     13247 MEMB     113      POPC     H5X      HAL2     0.900000E-01   1.00800           0
     13248 MEMB     113      POPC     H5Y      HAL2     0.900000E-01   1.00800           0
     13249 MEMB     113      POPC     C36      CTL2    -0.180000       12.0110           0
     13250 MEMB     113      POPC     H6X      HAL2     0.900000E-01   1.00800           0
     13251 MEMB     113      POPC     H6Y      HAL2     0.900000E-01   1.00800           0
     13252 MEMB     113      POPC     C37      CTL2    -0.180000       12.0110           0
     13253 MEMB     113      POPC     H7X      HAL2     0.900000E-01   1.00800           0
     13254 MEMB     113      POPC     H7Y      HAL2     0.900000E-01   1.00800           0
     13255 MEMB     113      POPC     C38      CTL2    -0.180000       12.0110           0
     13256 MEMB     113      POPC     H8X      HAL2     0.900000E-01   1.00800           0
     13257 MEMB     113      POPC     H8Y      HAL2     0.900000E-01   1.00800           0
     13258 MEMB     113      POPC     C39      CTL2    -0.180000       12.0110           0
     13259 MEMB     113      POPC     H9X      HAL2     0.900000E-01   1.00800           0
     13260 MEMB     113      POPC     H9Y      HAL2     0.900000E-01   1.00800           0
     13261 MEMB     113      POPC     C310     CTL2    -0.180000       12.0110           0
     13262 MEMB     113      POPC     H10X     HAL2     0.900000E-01   1.00800           0
     13263 MEMB     113      POPC     H10Y     HAL2     0.900000E-01   1.00800           0
     13264 MEMB     113      POPC     C311     CTL2    -0.180000       12.0110           0
     13265 MEMB     113      POPC     H11X     HAL2     0.900000E-01   1.00800           0
     13266 MEMB     113      POPC     H11Y     HAL2     0.900000E-01   1.00800           0
     13267 MEMB     113      POPC     C312     CTL2    -0.180000       12.0110           0
     13268 MEMB     113      POPC     H12X     HAL2     0.900000E-01   1.00800           0
     13269 MEMB     113      POPC     H12Y     HAL2     0.900000E-01   1.00800           0
     13270 MEMB     113      POPC     C313     CTL2    -0.180000       12.0110           0
     13271 MEMB     113      POPC     H13X     HAL2     0.900000E-01   1.00800           0
     13272 MEMB     113      POPC     H13Y     HAL2     0.900000E-01   1.00800           0
     13273 MEMB     113      POPC     C314     CTL2    -0.180000       12.0110           0
     13274 MEMB     113      POPC     H14X     HAL2     0.900000E-01   1.00800           0
     13275 MEMB     113      POPC     H14Y     HAL2     0.900000E-01   1.00800           0
     13276 MEMB     113      POPC     C315     CTL2    -0.180000       12.0110           0
     13277 MEMB     113      POPC     H15X     HAL2     0.900000E-01   1.00800           0
     13278 MEMB     113      POPC     H15Y     HAL2     0.900000E-01   1.00800           0
     13279 MEMB     113      POPC     C316     CTL3    -0.270000       12.0110           0
     13280 MEMB     113      POPC     H16X     HAL3     0.900000E-01   1.00800           0
     13281 MEMB     113      POPC     H16Y     HAL3     0.900000E-01   1.00800           0
     13282 MEMB     113      POPC     H16Z     HAL3     0.900000E-01   1.00800           0
     13283 MEMB     114      POPC     N        NTL     -0.600000       14.0070           0
     13284 MEMB     114      POPC     C12      CTL2    -0.100000       12.0110           0
     13285 MEMB     114      POPC     H12A     HL       0.250000       1.00800           0
     13286 MEMB     114      POPC     H12B     HL       0.250000       1.00800           0
     13287 MEMB     114      POPC     C13      CTL5    -0.350000       12.0110           0
     13288 MEMB     114      POPC     H13A     HL       0.250000       1.00800           0
     13289 MEMB     114      POPC     H13B     HL       0.250000       1.00800           0
     13290 MEMB     114      POPC     H13C     HL       0.250000       1.00800           0
     13291 MEMB     114      POPC     C14      CTL5    -0.350000       12.0110           0
     13292 MEMB     114      POPC     H14A     HL       0.250000       1.00800           0
     13293 MEMB     114      POPC     H14B     HL       0.250000       1.00800           0
     13294 MEMB     114      POPC     H14C     HL       0.250000       1.00800           0
     13295 MEMB     114      POPC     C15      CTL5    -0.350000       12.0110           0
     13296 MEMB     114      POPC     H15A     HL       0.250000       1.00800           0
     13297 MEMB     114      POPC     H15B     HL       0.250000       1.00800           0
     13298 MEMB     114      POPC     H15C     HL       0.250000       1.00800           0
     13299 MEMB     114      POPC     C11      CTL2    -0.800000E-01   12.0110           0
     13300 MEMB     114      POPC     H11A     HAL2     0.900000E-01   1.00800           0
     13301 MEMB     114      POPC     H11B     HAL2     0.900000E-01   1.00800           0
     13302 MEMB     114      POPC     P        PL        1.50000       30.9740           0
     13303 MEMB     114      POPC     O13      O2L     -0.780000       15.9994           0
     13304 MEMB     114      POPC     O14      O2L     -0.780000       15.9994           0
     13305 MEMB     114      POPC     O12      OSLP    -0.570000       15.9994           0
     13306 MEMB     114      POPC     O11      OSLP    -0.570000       15.9994           0
     13307 MEMB     114      POPC     C1       CTL2    -0.800000E-01   12.0110           0
     13308 MEMB     114      POPC     HA       HAL2     0.900000E-01   1.00800           0
     13309 MEMB     114      POPC     HB       HAL2     0.900000E-01   1.00800           0
     13310 MEMB     114      POPC     C2       CTL1     0.170000       12.0110           0
     13311 MEMB     114      POPC     HS       HAL1     0.900000E-01   1.00800           0
     13312 MEMB     114      POPC     O21      OSL     -0.490000       15.9994           0
     13313 MEMB     114      POPC     C21      CL       0.900000       12.0110           0
     13314 MEMB     114      POPC     O22      OBL     -0.630000       15.9994           0
     13315 MEMB     114      POPC     C22      CTL2    -0.220000       12.0110           0
     13316 MEMB     114      POPC     H2R      HAL2     0.900000E-01   1.00800           0
     13317 MEMB     114      POPC     H2S      HAL2     0.900000E-01   1.00800           0
     13318 MEMB     114      POPC     C3       CTL2     0.800000E-01   12.0110           0
     13319 MEMB     114      POPC     HX       HAL2     0.900000E-01   1.00800           0
     13320 MEMB     114      POPC     HY       HAL2     0.900000E-01   1.00800           0
     13321 MEMB     114      POPC     O31      OSL     -0.490000       15.9994           0
     13322 MEMB     114      POPC     C31      CL       0.900000       12.0110           0
     13323 MEMB     114      POPC     O32      OBL     -0.630000       15.9994           0
     13324 MEMB     114      POPC     C32      CTL2    -0.220000       12.0110           0
     13325 MEMB     114      POPC     H2X      HAL2     0.900000E-01   1.00800           0
     13326 MEMB     114      POPC     H2Y      HAL2     0.900000E-01   1.00800           0
     13327 MEMB     114      POPC     C23      CTL2    -0.180000       12.0110           0
     13328 MEMB     114      POPC     H3R      HAL2     0.900000E-01   1.00800           0
     13329 MEMB     114      POPC     H3S      HAL2     0.900000E-01   1.00800           0
     13330 MEMB     114      POPC     C24      CTL2    -0.180000       12.0110           0
     13331 MEMB     114      POPC     H4R      HAL2     0.900000E-01   1.00800           0
     13332 MEMB     114      POPC     H4S      HAL2     0.900000E-01   1.00800           0
     13333 MEMB     114      POPC     C25      CTL2    -0.180000       12.0110           0
     13334 MEMB     114      POPC     H5R      HAL2     0.900000E-01   1.00800           0
     13335 MEMB     114      POPC     H5S      HAL2     0.900000E-01   1.00800           0
     13336 MEMB     114      POPC     C26      CTL2    -0.180000       12.0110           0
     13337 MEMB     114      POPC     H6R      HAL2     0.900000E-01   1.00800           0
     13338 MEMB     114      POPC     H6S      HAL2     0.900000E-01   1.00800           0
     13339 MEMB     114      POPC     C27      CTL2    -0.180000       12.0110           0
     13340 MEMB     114      POPC     H7R      HAL2     0.900000E-01   1.00800           0
     13341 MEMB     114      POPC     H7S      HAL2     0.900000E-01   1.00800           0
     13342 MEMB     114      POPC     C28      CTL2    -0.180000       12.0110           0
     13343 MEMB     114      POPC     H8R      HAL2     0.900000E-01   1.00800           0
     13344 MEMB     114      POPC     H8S      HAL2     0.900000E-01   1.00800           0
     13345 MEMB     114      POPC     C29      CEL1    -0.150000       12.0110           0
     13346 MEMB     114      POPC     H91      HEL1     0.150000       1.00800           0
     13347 MEMB     114      POPC     C210     CEL1    -0.150000       12.0110           0
     13348 MEMB     114      POPC     H101     HEL1     0.150000       1.00800           0
     13349 MEMB     114      POPC     C211     CTL2    -0.180000       12.0110           0
     13350 MEMB     114      POPC     H11R     HAL2     0.900000E-01   1.00800           0
     13351 MEMB     114      POPC     H11S     HAL2     0.900000E-01   1.00800           0
     13352 MEMB     114      POPC     C212     CTL2    -0.180000       12.0110           0
     13353 MEMB     114      POPC     H12R     HAL2     0.900000E-01   1.00800           0
     13354 MEMB     114      POPC     H12S     HAL2     0.900000E-01   1.00800           0
     13355 MEMB     114      POPC     C213     CTL2    -0.180000       12.0110           0
     13356 MEMB     114      POPC     H13R     HAL2     0.900000E-01   1.00800           0
     13357 MEMB     114      POPC     H13S     HAL2     0.900000E-01   1.00800           0
     13358 MEMB     114      POPC     C214     CTL2    -0.180000       12.0110           0
     13359 MEMB     114      POPC     H14R     HAL2     0.900000E-01   1.00800           0
     13360 MEMB     114      POPC     H14S     HAL2     0.900000E-01   1.00800           0
     13361 MEMB     114      POPC     C215     CTL2    -0.180000       12.0110           0
     13362 MEMB     114      POPC     H15R     HAL2     0.900000E-01   1.00800           0
     13363 MEMB     114      POPC     H15S     HAL2     0.900000E-01   1.00800           0
     13364 MEMB     114      POPC     C216     CTL2    -0.180000       12.0110           0
     13365 MEMB     114      POPC     H16R     HAL2     0.900000E-01   1.00800           0
     13366 MEMB     114      POPC     H16S     HAL2     0.900000E-01   1.00800           0
     13367 MEMB     114      POPC     C217     CTL2    -0.180000       12.0110           0
     13368 MEMB     114      POPC     H17R     HAL2     0.900000E-01   1.00800           0
     13369 MEMB     114      POPC     H17S     HAL2     0.900000E-01   1.00800           0
     13370 MEMB     114      POPC     C218     CTL3    -0.270000       12.0110           0
     13371 MEMB     114      POPC     H18R     HAL3     0.900000E-01   1.00800           0
     13372 MEMB     114      POPC     H18S     HAL3     0.900000E-01   1.00800           0
     13373 MEMB     114      POPC     H18T     HAL3     0.900000E-01   1.00800           0
     13374 MEMB     114      POPC     C33      CTL2    -0.180000       12.0110           0
     13375 MEMB     114      POPC     H3X      HAL2     0.900000E-01   1.00800           0
     13376 MEMB     114      POPC     H3Y      HAL2     0.900000E-01   1.00800           0
     13377 MEMB     114      POPC     C34      CTL2    -0.180000       12.0110           0
     13378 MEMB     114      POPC     H4X      HAL2     0.900000E-01   1.00800           0
     13379 MEMB     114      POPC     H4Y      HAL2     0.900000E-01   1.00800           0
     13380 MEMB     114      POPC     C35      CTL2    -0.180000       12.0110           0
     13381 MEMB     114      POPC     H5X      HAL2     0.900000E-01   1.00800           0
     13382 MEMB     114      POPC     H5Y      HAL2     0.900000E-01   1.00800           0
     13383 MEMB     114      POPC     C36      CTL2    -0.180000       12.0110           0
     13384 MEMB     114      POPC     H6X      HAL2     0.900000E-01   1.00800           0
     13385 MEMB     114      POPC     H6Y      HAL2     0.900000E-01   1.00800           0
     13386 MEMB     114      POPC     C37      CTL2    -0.180000       12.0110           0
     13387 MEMB     114      POPC     H7X      HAL2     0.900000E-01   1.00800           0
     13388 MEMB     114      POPC     H7Y      HAL2     0.900000E-01   1.00800           0
     13389 MEMB     114      POPC     C38      CTL2    -0.180000       12.0110           0
     13390 MEMB     114      POPC     H8X      HAL2     0.900000E-01   1.00800           0
     13391 MEMB     114      POPC     H8Y      HAL2     0.900000E-01   1.00800           0
     13392 MEMB     114      POPC     C39      CTL2    -0.180000       12.0110           0
     13393 MEMB     114      POPC     H9X      HAL2     0.900000E-01   1.00800           0
     13394 MEMB     114      POPC     H9Y      HAL2     0.900000E-01   1.00800           0
     13395 MEMB     114      POPC     C310     CTL2    -0.180000       12.0110           0
     13396 MEMB     114      POPC     H10X     HAL2     0.900000E-01   1.00800           0
     13397 MEMB     114      POPC     H10Y     HAL2     0.900000E-01   1.00800           0
     13398 MEMB     114      POPC     C311     CTL2    -0.180000       12.0110           0
     13399 MEMB     114      POPC     H11X     HAL2     0.900000E-01   1.00800           0
     13400 MEMB     114      POPC     H11Y     HAL2     0.900000E-01   1.00800           0
     13401 MEMB     114      POPC     C312     CTL2    -0.180000       12.0110           0
     13402 MEMB     114      POPC     H12X     HAL2     0.900000E-01   1.00800           0
     13403 MEMB     114      POPC     H12Y     HAL2     0.900000E-01   1.00800           0
     13404 MEMB     114      POPC     C313     CTL2    -0.180000       12.0110           0
     13405 MEMB     114      POPC     H13X     HAL2     0.900000E-01   1.00800           0
     13406 MEMB     114      POPC     H13Y     HAL2     0.900000E-01   1.00800           0
     13407 MEMB     114      POPC     C314     CTL2    -0.180000       12.0110           0
     13408 MEMB     114      POPC     H14X     HAL2     0.900000E-01   1.00800           0
     13409 MEMB     114      POPC     H14Y     HAL2     0.900000E-01   1.00800           0
     13410 MEMB     114      POPC     C315     CTL2    -0.180000       12.0110           0
     13411 MEMB     114      POPC     H15X     HAL2     0.900000E-01   1.00800           0
     13412 MEMB     114      POPC     H15Y     HAL2     0.900000E-01   1.00800           0
     13413 MEMB     114      POPC     C316     CTL3    -0.270000       12.0110           0
     13414 MEMB     114      POPC     H16X     HAL3     0.900000E-01   1.00800           0
     13415 MEMB     114      POPC     H16Y     HAL3     0.900000E-01   1.00800           0
     13416 MEMB     114      POPC     H16Z     HAL3     0.900000E-01   1.00800           0
     13417 MEMB     115      POPC     N        NTL     -0.600000       14.0070           0
     13418 MEMB     115      POPC     C12      CTL2    -0.100000       12.0110           0
     13419 MEMB     115      POPC     H12A     HL       0.250000       1.00800           0
     13420 MEMB     115      POPC     H12B     HL       0.250000       1.00800           0
     13421 MEMB     115      POPC     C13      CTL5    -0.350000       12.0110           0
     13422 MEMB     115      POPC     H13A     HL       0.250000       1.00800           0
     13423 MEMB     115      POPC     H13B     HL       0.250000       1.00800           0
     13424 MEMB     115      POPC     H13C     HL       0.250000       1.00800           0
     13425 MEMB     115      POPC     C14      CTL5    -0.350000       12.0110           0
     13426 MEMB     115      POPC     H14A     HL       0.250000       1.00800           0
     13427 MEMB     115      POPC     H14B     HL       0.250000       1.00800           0
     13428 MEMB     115      POPC     H14C     HL       0.250000       1.00800           0
     13429 MEMB     115      POPC     C15      CTL5    -0.350000       12.0110           0
     13430 MEMB     115      POPC     H15A     HL       0.250000       1.00800           0
     13431 MEMB     115      POPC     H15B     HL       0.250000       1.00800           0
     13432 MEMB     115      POPC     H15C     HL       0.250000       1.00800           0
     13433 MEMB     115      POPC     C11      CTL2    -0.800000E-01   12.0110           0
     13434 MEMB     115      POPC     H11A     HAL2     0.900000E-01   1.00800           0
     13435 MEMB     115      POPC     H11B     HAL2     0.900000E-01   1.00800           0
     13436 MEMB     115      POPC     P        PL        1.50000       30.9740           0
     13437 MEMB     115      POPC     O13      O2L     -0.780000       15.9994           0
     13438 MEMB     115      POPC     O14      O2L     -0.780000       15.9994           0
     13439 MEMB     115      POPC     O12      OSLP    -0.570000       15.9994           0
     13440 MEMB     115      POPC     O11      OSLP    -0.570000       15.9994           0
     13441 MEMB     115      POPC     C1       CTL2    -0.800000E-01   12.0110           0
     13442 MEMB     115      POPC     HA       HAL2     0.900000E-01   1.00800           0
     13443 MEMB     115      POPC     HB       HAL2     0.900000E-01   1.00800           0
     13444 MEMB     115      POPC     C2       CTL1     0.170000       12.0110           0
     13445 MEMB     115      POPC     HS       HAL1     0.900000E-01   1.00800           0
     13446 MEMB     115      POPC     O21      OSL     -0.490000       15.9994           0
     13447 MEMB     115      POPC     C21      CL       0.900000       12.0110           0
     13448 MEMB     115      POPC     O22      OBL     -0.630000       15.9994           0
     13449 MEMB     115      POPC     C22      CTL2    -0.220000       12.0110           0
     13450 MEMB     115      POPC     H2R      HAL2     0.900000E-01   1.00800           0
     13451 MEMB     115      POPC     H2S      HAL2     0.900000E-01   1.00800           0
     13452 MEMB     115      POPC     C3       CTL2     0.800000E-01   12.0110           0
     13453 MEMB     115      POPC     HX       HAL2     0.900000E-01   1.00800           0
     13454 MEMB     115      POPC     HY       HAL2     0.900000E-01   1.00800           0
     13455 MEMB     115      POPC     O31      OSL     -0.490000       15.9994           0
     13456 MEMB     115      POPC     C31      CL       0.900000       12.0110           0
     13457 MEMB     115      POPC     O32      OBL     -0.630000       15.9994           0
     13458 MEMB     115      POPC     C32      CTL2    -0.220000       12.0110           0
     13459 MEMB     115      POPC     H2X      HAL2     0.900000E-01   1.00800           0
     13460 MEMB     115      POPC     H2Y      HAL2     0.900000E-01   1.00800           0
     13461 MEMB     115      POPC     C23      CTL2    -0.180000       12.0110           0
     13462 MEMB     115      POPC     H3R      HAL2     0.900000E-01   1.00800           0
     13463 MEMB     115      POPC     H3S      HAL2     0.900000E-01   1.00800           0
     13464 MEMB     115      POPC     C24      CTL2    -0.180000       12.0110           0
     13465 MEMB     115      POPC     H4R      HAL2     0.900000E-01   1.00800           0
     13466 MEMB     115      POPC     H4S      HAL2     0.900000E-01   1.00800           0
     13467 MEMB     115      POPC     C25      CTL2    -0.180000       12.0110           0
     13468 MEMB     115      POPC     H5R      HAL2     0.900000E-01   1.00800           0
     13469 MEMB     115      POPC     H5S      HAL2     0.900000E-01   1.00800           0
     13470 MEMB     115      POPC     C26      CTL2    -0.180000       12.0110           0
     13471 MEMB     115      POPC     H6R      HAL2     0.900000E-01   1.00800           0
     13472 MEMB     115      POPC     H6S      HAL2     0.900000E-01   1.00800           0
     13473 MEMB     115      POPC     C27      CTL2    -0.180000       12.0110           0
     13474 MEMB     115      POPC     H7R      HAL2     0.900000E-01   1.00800           0
     13475 MEMB     115      POPC     H7S      HAL2     0.900000E-01   1.00800           0
     13476 MEMB     115      POPC     C28      CTL2    -0.180000       12.0110           0
     13477 MEMB     115      POPC     H8R      HAL2     0.900000E-01   1.00800           0
     13478 MEMB     115      POPC     H8S      HAL2     0.900000E-01   1.00800           0
     13479 MEMB     115      POPC     C29      CEL1    -0.150000       12.0110           0
     13480 MEMB     115      POPC     H91      HEL1     0.150000       1.00800           0
     13481 MEMB     115      POPC     C210     CEL1    -0.150000       12.0110           0
     13482 MEMB     115      POPC     H101     HEL1     0.150000       1.00800           0
     13483 MEMB     115      POPC     C211     CTL2    -0.180000       12.0110           0
     13484 MEMB     115      POPC     H11R     HAL2     0.900000E-01   1.00800           0
     13485 MEMB     115      POPC     H11S     HAL2     0.900000E-01   1.00800           0
     13486 MEMB     115      POPC     C212     CTL2    -0.180000       12.0110           0
     13487 MEMB     115      POPC     H12R     HAL2     0.900000E-01   1.00800           0
     13488 MEMB     115      POPC     H12S     HAL2     0.900000E-01   1.00800           0
     13489 MEMB     115      POPC     C213     CTL2    -0.180000       12.0110           0
     13490 MEMB     115      POPC     H13R     HAL2     0.900000E-01   1.00800           0
     13491 MEMB     115      POPC     H13S     HAL2     0.900000E-01   1.00800           0
     13492 MEMB     115      POPC     C214     CTL2    -0.180000       12.0110           0
     13493 MEMB     115      POPC     H14R     HAL2     0.900000E-01   1.00800           0
     13494 MEMB     115      POPC     H14S     HAL2     0.900000E-01   1.00800           0
     13495 MEMB     115      POPC     C215     CTL2    -0.180000       12.0110           0
     13496 MEMB     115      POPC     H15R     HAL2     0.900000E-01   1.00800           0
     13497 MEMB     115      POPC     H15S     HAL2     0.900000E-01   1.00800           0
     13498 MEMB     115      POPC     C216     CTL2    -0.180000       12.0110           0
     13499 MEMB     115      POPC     H16R     HAL2     0.900000E-01   1.00800           0
     13500 MEMB     115      POPC     H16S     HAL2     0.900000E-01   1.00800           0
     13501 MEMB     115      POPC     C217     CTL2    -0.180000       12.0110           0
     13502 MEMB     115      POPC     H17R     HAL2     0.900000E-01   1.00800           0
     13503 MEMB     115      POPC     H17S     HAL2     0.900000E-01   1.00800           0
     13504 MEMB     115      POPC     C218     CTL3    -0.270000       12.0110           0
     13505 MEMB     115      POPC     H18R     HAL3     0.900000E-01   1.00800           0
     13506 MEMB     115      POPC     H18S     HAL3     0.900000E-01   1.00800           0
     13507 MEMB     115      POPC     H18T     HAL3     0.900000E-01   1.00800           0
     13508 MEMB     115      POPC     C33      CTL2    -0.180000       12.0110           0
     13509 MEMB     115      POPC     H3X      HAL2     0.900000E-01   1.00800           0
     13510 MEMB     115      POPC     H3Y      HAL2     0.900000E-01   1.00800           0
     13511 MEMB     115      POPC     C34      CTL2    -0.180000       12.0110           0
     13512 MEMB     115      POPC     H4X      HAL2     0.900000E-01   1.00800           0
     13513 MEMB     115      POPC     H4Y      HAL2     0.900000E-01   1.00800           0
     13514 MEMB     115      POPC     C35      CTL2    -0.180000       12.0110           0
     13515 MEMB     115      POPC     H5X      HAL2     0.900000E-01   1.00800           0
     13516 MEMB     115      POPC     H5Y      HAL2     0.900000E-01   1.00800           0
     13517 MEMB     115      POPC     C36      CTL2    -0.180000       12.0110           0
     13518 MEMB     115      POPC     H6X      HAL2     0.900000E-01   1.00800           0
     13519 MEMB     115      POPC     H6Y      HAL2     0.900000E-01   1.00800           0
     13520 MEMB     115      POPC     C37      CTL2    -0.180000       12.0110           0
     13521 MEMB     115      POPC     H7X      HAL2     0.900000E-01   1.00800           0
     13522 MEMB     115      POPC     H7Y      HAL2     0.900000E-01   1.00800           0
     13523 MEMB     115      POPC     C38      CTL2    -0.180000       12.0110           0
     13524 MEMB     115      POPC     H8X      HAL2     0.900000E-01   1.00800           0
     13525 MEMB     115      POPC     H8Y      HAL2     0.900000E-01   1.00800           0
     13526 MEMB     115      POPC     C39      CTL2    -0.180000       12.0110           0
     13527 MEMB     115      POPC     H9X      HAL2     0.900000E-01   1.00800           0
     13528 MEMB     115      POPC     H9Y      HAL2     0.900000E-01   1.00800           0
     13529 MEMB     115      POPC     C310     CTL2    -0.180000       12.0110           0
     13530 MEMB     115      POPC     H10X     HAL2     0.900000E-01   1.00800           0
     13531 MEMB     115      POPC     H10Y     HAL2     0.900000E-01   1.00800           0
     13532 MEMB     115      POPC     C311     CTL2    -0.180000       12.0110           0
     13533 MEMB     115      POPC     H11X     HAL2     0.900000E-01   1.00800           0
     13534 MEMB     115      POPC     H11Y     HAL2     0.900000E-01   1.00800           0
     13535 MEMB     115      POPC     C312     CTL2    -0.180000       12.0110           0
     13536 MEMB     115      POPC     H12X     HAL2     0.900000E-01   1.00800           0
     13537 MEMB     115      POPC     H12Y     HAL2     0.900000E-01   1.00800           0
     13538 MEMB     115      POPC     C313     CTL2    -0.180000       12.0110           0
     13539 MEMB     115      POPC     H13X     HAL2     0.900000E-01   1.00800           0
     13540 MEMB     115      POPC     H13Y     HAL2     0.900000E-01   1.00800           0
     13541 MEMB     115      POPC     C314     CTL2    -0.180000       12.0110           0
     13542 MEMB     115      POPC     H14X     HAL2     0.900000E-01   1.00800           0
     13543 MEMB     115      POPC     H14Y     HAL2     0.900000E-01   1.00800           0
     13544 MEMB     115      POPC     C315     CTL2    -0.180000       12.0110           0
     13545 MEMB     115      POPC     H15X     HAL2     0.900000E-01   1.00800           0
     13546 MEMB     115      POPC     H15Y     HAL2     0.900000E-01   1.00800           0
     13547 MEMB     115      POPC     C316     CTL3    -0.270000       12.0110           0
     13548 MEMB     115      POPC     H16X     HAL3     0.900000E-01   1.00800           0
     13549 MEMB     115      POPC     H16Y     HAL3     0.900000E-01   1.00800           0
     13550 MEMB     115      POPC     H16Z     HAL3     0.900000E-01   1.00800           0
     13551 MEMB     116      POPC     N        NTL     -0.600000       14.0070           0
     13552 MEMB     116      POPC     C12      CTL2    -0.100000       12.0110           0
     13553 MEMB     116      POPC     H12A     HL       0.250000       1.00800           0
     13554 MEMB     116      POPC     H12B     HL       0.250000       1.00800           0
     13555 MEMB     116      POPC     C13      CTL5    -0.350000       12.0110           0
     13556 MEMB     116      POPC     H13A     HL       0.250000       1.00800           0
     13557 MEMB     116      POPC     H13B     HL       0.250000       1.00800           0
     13558 MEMB     116      POPC     H13C     HL       0.250000       1.00800           0
     13559 MEMB     116      POPC     C14      CTL5    -0.350000       12.0110           0
     13560 MEMB     116      POPC     H14A     HL       0.250000       1.00800           0
     13561 MEMB     116      POPC     H14B     HL       0.250000       1.00800           0
     13562 MEMB     116      POPC     H14C     HL       0.250000       1.00800           0
     13563 MEMB     116      POPC     C15      CTL5    -0.350000       12.0110           0
     13564 MEMB     116      POPC     H15A     HL       0.250000       1.00800           0
     13565 MEMB     116      POPC     H15B     HL       0.250000       1.00800           0
     13566 MEMB     116      POPC     H15C     HL       0.250000       1.00800           0
     13567 MEMB     116      POPC     C11      CTL2    -0.800000E-01   12.0110           0
     13568 MEMB     116      POPC     H11A     HAL2     0.900000E-01   1.00800           0
     13569 MEMB     116      POPC     H11B     HAL2     0.900000E-01   1.00800           0
     13570 MEMB     116      POPC     P        PL        1.50000       30.9740           0
     13571 MEMB     116      POPC     O13      O2L     -0.780000       15.9994           0
     13572 MEMB     116      POPC     O14      O2L     -0.780000       15.9994           0
     13573 MEMB     116      POPC     O12      OSLP    -0.570000       15.9994           0
     13574 MEMB     116      POPC     O11      OSLP    -0.570000       15.9994           0
     13575 MEMB     116      POPC     C1       CTL2    -0.800000E-01   12.0110           0
     13576 MEMB     116      POPC     HA       HAL2     0.900000E-01   1.00800           0
     13577 MEMB     116      POPC     HB       HAL2     0.900000E-01   1.00800           0
     13578 MEMB     116      POPC     C2       CTL1     0.170000       12.0110           0
     13579 MEMB     116      POPC     HS       HAL1     0.900000E-01   1.00800           0
     13580 MEMB     116      POPC     O21      OSL     -0.490000       15.9994           0
     13581 MEMB     116      POPC     C21      CL       0.900000       12.0110           0
     13582 MEMB     116      POPC     O22      OBL     -0.630000       15.9994           0
     13583 MEMB     116      POPC     C22      CTL2    -0.220000       12.0110           0
     13584 MEMB     116      POPC     H2R      HAL2     0.900000E-01   1.00800           0
     13585 MEMB     116      POPC     H2S      HAL2     0.900000E-01   1.00800           0
     13586 MEMB     116      POPC     C3       CTL2     0.800000E-01   12.0110           0
     13587 MEMB     116      POPC     HX       HAL2     0.900000E-01   1.00800           0
     13588 MEMB     116      POPC     HY       HAL2     0.900000E-01   1.00800           0
     13589 MEMB     116      POPC     O31      OSL     -0.490000       15.9994           0
     13590 MEMB     116      POPC     C31      CL       0.900000       12.0110           0
     13591 MEMB     116      POPC     O32      OBL     -0.630000       15.9994           0
     13592 MEMB     116      POPC     C32      CTL2    -0.220000       12.0110           0
     13593 MEMB     116      POPC     H2X      HAL2     0.900000E-01   1.00800           0
     13594 MEMB     116      POPC     H2Y      HAL2     0.900000E-01   1.00800           0
     13595 MEMB     116      POPC     C23      CTL2    -0.180000       12.0110           0
     13596 MEMB     116      POPC     H3R      HAL2     0.900000E-01   1.00800           0
     13597 MEMB     116      POPC     H3S      HAL2     0.900000E-01   1.00800           0
     13598 MEMB     116      POPC     C24      CTL2    -0.180000       12.0110           0
     13599 MEMB     116      POPC     H4R      HAL2     0.900000E-01   1.00800           0
     13600 MEMB     116      POPC     H4S      HAL2     0.900000E-01   1.00800           0
     13601 MEMB     116      POPC     C25      CTL2    -0.180000       12.0110           0
     13602 MEMB     116      POPC     H5R      HAL2     0.900000E-01   1.00800           0
     13603 MEMB     116      POPC     H5S      HAL2     0.900000E-01   1.00800           0
     13604 MEMB     116      POPC     C26      CTL2    -0.180000       12.0110           0
     13605 MEMB     116      POPC     H6R      HAL2     0.900000E-01   1.00800           0
     13606 MEMB     116      POPC     H6S      HAL2     0.900000E-01   1.00800           0
     13607 MEMB     116      POPC     C27      CTL2    -0.180000       12.0110           0
     13608 MEMB     116      POPC     H7R      HAL2     0.900000E-01   1.00800           0
     13609 MEMB     116      POPC     H7S      HAL2     0.900000E-01   1.00800           0
     13610 MEMB     116      POPC     C28      CTL2    -0.180000       12.0110           0
     13611 MEMB     116      POPC     H8R      HAL2     0.900000E-01   1.00800           0
     13612 MEMB     116      POPC     H8S      HAL2     0.900000E-01   1.00800           0
     13613 MEMB     116      POPC     C29      CEL1    -0.150000       12.0110           0
     13614 MEMB     116      POPC     H91      HEL1     0.150000       1.00800           0
     13615 MEMB     116      POPC     C210     CEL1    -0.150000       12.0110           0
     13616 MEMB     116      POPC     H101     HEL1     0.150000       1.00800           0
     13617 MEMB     116      POPC     C211     CTL2    -0.180000       12.0110           0
     13618 MEMB     116      POPC     H11R     HAL2     0.900000E-01   1.00800           0
     13619 MEMB     116      POPC     H11S     HAL2     0.900000E-01   1.00800           0
     13620 MEMB     116      POPC     C212     CTL2    -0.180000       12.0110           0
     13621 MEMB     116      POPC     H12R     HAL2     0.900000E-01   1.00800           0
     13622 MEMB     116      POPC     H12S     HAL2     0.900000E-01   1.00800           0
     13623 MEMB     116      POPC     C213     CTL2    -0.180000       12.0110           0
     13624 MEMB     116      POPC     H13R     HAL2     0.900000E-01   1.00800           0
     13625 MEMB     116      POPC     H13S     HAL2     0.900000E-01   1.00800           0
     13626 MEMB     116      POPC     C214     CTL2    -0.180000       12.0110           0
     13627 MEMB     116      POPC     H14R     HAL2     0.900000E-01   1.00800           0
     13628 MEMB     116      POPC     H14S     HAL2     0.900000E-01   1.00800           0
     13629 MEMB     116      POPC     C215     CTL2    -0.180000       12.0110           0
     13630 MEMB     116      POPC     H15R     HAL2     0.900000E-01   1.00800           0
     13631 MEMB     116      POPC     H15S     HAL2     0.900000E-01   1.00800           0
     13632 MEMB     116      POPC     C216     CTL2    -0.180000       12.0110           0
     13633 MEMB     116      POPC     H16R     HAL2     0.900000E-01   1.00800           0
     13634 MEMB     116      POPC     H16S     HAL2     0.900000E-01   1.00800           0
     13635 MEMB     116      POPC     C217     CTL2    -0.180000       12.0110           0
     13636 MEMB     116      POPC     H17R     HAL2     0.900000E-01   1.00800           0
     13637 MEMB     116      POPC     H17S     HAL2     0.900000E-01   1.00800           0
     13638 MEMB     116      POPC     C218     CTL3    -0.270000       12.0110           0
     13639 MEMB     116      POPC     H18R     HAL3     0.900000E-01   1.00800           0
     13640 MEMB     116      POPC     H18S     HAL3     0.900000E-01   1.00800           0
     13641 MEMB     116      POPC     H18T     HAL3     0.900000E-01   1.00800           0
     13642 MEMB     116      POPC     C33      CTL2    -0.180000       12.0110           0
     13643 MEMB     116      POPC     H3X      HAL2     0.900000E-01   1.00800           0
     13644 MEMB     116      POPC     H3Y      HAL2     0.900000E-01   1.00800           0
     13645 MEMB     116      POPC     C34      CTL2    -0.180000       12.0110           0
     13646 MEMB     116      POPC     H4X      HAL2     0.900000E-01   1.00800           0
     13647 MEMB     116      POPC     H4Y      HAL2     0.900000E-01   1.00800           0
     13648 MEMB     116      POPC     C35      CTL2    -0.180000       12.0110           0
     13649 MEMB     116      POPC     H5X      HAL2     0.900000E-01   1.00800           0
     13650 MEMB     116      POPC     H5Y      HAL2     0.900000E-01   1.00800           0
     13651 MEMB     116      POPC     C36      CTL2    -0.180000       12.0110           0
     13652 MEMB     116      POPC     H6X      HAL2     0.900000E-01   1.00800           0
     13653 MEMB     116      POPC     H6Y      HAL2     0.900000E-01   1.00800           0
     13654 MEMB     116      POPC     C37      CTL2    -0.180000       12.0110           0
     13655 MEMB     116      POPC     H7X      HAL2     0.900000E-01   1.00800           0
     13656 MEMB     116      POPC     H7Y      HAL2     0.900000E-01   1.00800           0
     13657 MEMB     116      POPC     C38      CTL2    -0.180000       12.0110           0
     13658 MEMB     116      POPC     H8X      HAL2     0.900000E-01   1.00800           0
     13659 MEMB     116      POPC     H8Y      HAL2     0.900000E-01   1.00800           0
     13660 MEMB     116      POPC     C39      CTL2    -0.180000       12.0110           0
     13661 MEMB     116      POPC     H9X      HAL2     0.900000E-01   1.00800           0
     13662 MEMB     116      POPC     H9Y      HAL2     0.900000E-01   1.00800           0
     13663 MEMB     116      POPC     C310     CTL2    -0.180000       12.0110           0
     13664 MEMB     116      POPC     H10X     HAL2     0.900000E-01   1.00800           0
     13665 MEMB     116      POPC     H10Y     HAL2     0.900000E-01   1.00800           0
     13666 MEMB     116      POPC     C311     CTL2    -0.180000       12.0110           0
     13667 MEMB     116      POPC     H11X     HAL2     0.900000E-01   1.00800           0
     13668 MEMB     116      POPC     H11Y     HAL2     0.900000E-01   1.00800           0
     13669 MEMB     116      POPC     C312     CTL2    -0.180000       12.0110           0
     13670 MEMB     116      POPC     H12X     HAL2     0.900000E-01   1.00800           0
     13671 MEMB     116      POPC     H12Y     HAL2     0.900000E-01   1.00800           0
     13672 MEMB     116      POPC     C313     CTL2    -0.180000       12.0110           0
     13673 MEMB     116      POPC     H13X     HAL2     0.900000E-01   1.00800           0
     13674 MEMB     116      POPC     H13Y     HAL2     0.900000E-01   1.00800           0
     13675 MEMB     116      POPC     C314     CTL2    -0.180000       12.0110           0
     13676 MEMB     116      POPC     H14X     HAL2     0.900000E-01   1.00800           0
     13677 MEMB     116      POPC     H14Y     HAL2     0.900000E-01   1.00800           0
     13678 MEMB     116      POPC     C315     CTL2    -0.180000       12.0110           0
     13679 MEMB     116      POPC     H15X     HAL2     0.900000E-01   1.00800           0
     13680 MEMB     116      POPC     H15Y     HAL2     0.900000E-01   1.00800           0
     13681 MEMB     116      POPC     C316     CTL3    -0.270000       12.0110           0
     13682 MEMB     116      POPC     H16X     HAL3     0.900000E-01   1.00800           0
     13683 MEMB     116      POPC     H16Y     HAL3     0.900000E-01   1.00800           0
     13684 MEMB     116      POPC     H16Z     HAL3     0.900000E-01   1.00800           0
     13685 MEMB     117      POPC     N        NTL     -0.600000       14.0070           0
     13686 MEMB     117      POPC     C12      CTL2    -0.100000       12.0110           0
     13687 MEMB     117      POPC     H12A     HL       0.250000       1.00800           0
     13688 MEMB     117      POPC     H12B     HL       0.250000       1.00800           0
     13689 MEMB     117      POPC     C13      CTL5    -0.350000       12.0110           0
     13690 MEMB     117      POPC     H13A     HL       0.250000       1.00800           0
     13691 MEMB     117      POPC     H13B     HL       0.250000       1.00800           0
     13692 MEMB     117      POPC     H13C     HL       0.250000       1.00800           0
     13693 MEMB     117      POPC     C14      CTL5    -0.350000       12.0110           0
     13694 MEMB     117      POPC     H14A     HL       0.250000       1.00800           0
     13695 MEMB     117      POPC     H14B     HL       0.250000       1.00800           0
     13696 MEMB     117      POPC     H14C     HL       0.250000       1.00800           0
     13697 MEMB     117      POPC     C15      CTL5    -0.350000       12.0110           0
     13698 MEMB     117      POPC     H15A     HL       0.250000       1.00800           0
     13699 MEMB     117      POPC     H15B     HL       0.250000       1.00800           0
     13700 MEMB     117      POPC     H15C     HL       0.250000       1.00800           0
     13701 MEMB     117      POPC     C11      CTL2    -0.800000E-01   12.0110           0
     13702 MEMB     117      POPC     H11A     HAL2     0.900000E-01   1.00800           0
     13703 MEMB     117      POPC     H11B     HAL2     0.900000E-01   1.00800           0
     13704 MEMB     117      POPC     P        PL        1.50000       30.9740           0
     13705 MEMB     117      POPC     O13      O2L     -0.780000       15.9994           0
     13706 MEMB     117      POPC     O14      O2L     -0.780000       15.9994           0
     13707 MEMB     117      POPC     O12      OSLP    -0.570000       15.9994           0
     13708 MEMB     117      POPC     O11      OSLP    -0.570000       15.9994           0
     13709 MEMB     117      POPC     C1       CTL2    -0.800000E-01   12.0110           0
     13710 MEMB     117      POPC     HA       HAL2     0.900000E-01   1.00800           0
     13711 MEMB     117      POPC     HB       HAL2     0.900000E-01   1.00800           0
     13712 MEMB     117      POPC     C2       CTL1     0.170000       12.0110           0
     13713 MEMB     117      POPC     HS       HAL1     0.900000E-01   1.00800           0
     13714 MEMB     117      POPC     O21      OSL     -0.490000       15.9994           0
     13715 MEMB     117      POPC     C21      CL       0.900000       12.0110           0
     13716 MEMB     117      POPC     O22      OBL     -0.630000       15.9994           0
     13717 MEMB     117      POPC     C22      CTL2    -0.220000       12.0110           0
     13718 MEMB     117      POPC     H2R      HAL2     0.900000E-01   1.00800           0
     13719 MEMB     117      POPC     H2S      HAL2     0.900000E-01   1.00800           0
     13720 MEMB     117      POPC     C3       CTL2     0.800000E-01   12.0110           0
     13721 MEMB     117      POPC     HX       HAL2     0.900000E-01   1.00800           0
     13722 MEMB     117      POPC     HY       HAL2     0.900000E-01   1.00800           0
     13723 MEMB     117      POPC     O31      OSL     -0.490000       15.9994           0
     13724 MEMB     117      POPC     C31      CL       0.900000       12.0110           0
     13725 MEMB     117      POPC     O32      OBL     -0.630000       15.9994           0
     13726 MEMB     117      POPC     C32      CTL2    -0.220000       12.0110           0
     13727 MEMB     117      POPC     H2X      HAL2     0.900000E-01   1.00800           0
     13728 MEMB     117      POPC     H2Y      HAL2     0.900000E-01   1.00800           0
     13729 MEMB     117      POPC     C23      CTL2    -0.180000       12.0110           0
     13730 MEMB     117      POPC     H3R      HAL2     0.900000E-01   1.00800           0
     13731 MEMB     117      POPC     H3S      HAL2     0.900000E-01   1.00800           0
     13732 MEMB     117      POPC     C24      CTL2    -0.180000       12.0110           0
     13733 MEMB     117      POPC     H4R      HAL2     0.900000E-01   1.00800           0
     13734 MEMB     117      POPC     H4S      HAL2     0.900000E-01   1.00800           0
     13735 MEMB     117      POPC     C25      CTL2    -0.180000       12.0110           0
     13736 MEMB     117      POPC     H5R      HAL2     0.900000E-01   1.00800           0
     13737 MEMB     117      POPC     H5S      HAL2     0.900000E-01   1.00800           0
     13738 MEMB     117      POPC     C26      CTL2    -0.180000       12.0110           0
     13739 MEMB     117      POPC     H6R      HAL2     0.900000E-01   1.00800           0
     13740 MEMB     117      POPC     H6S      HAL2     0.900000E-01   1.00800           0
     13741 MEMB     117      POPC     C27      CTL2    -0.180000       12.0110           0
     13742 MEMB     117      POPC     H7R      HAL2     0.900000E-01   1.00800           0
     13743 MEMB     117      POPC     H7S      HAL2     0.900000E-01   1.00800           0
     13744 MEMB     117      POPC     C28      CTL2    -0.180000       12.0110           0
     13745 MEMB     117      POPC     H8R      HAL2     0.900000E-01   1.00800           0
     13746 MEMB     117      POPC     H8S      HAL2     0.900000E-01   1.00800           0
     13747 MEMB     117      POPC     C29      CEL1    -0.150000       12.0110           0
     13748 MEMB     117      POPC     H91      HEL1     0.150000       1.00800           0
     13749 MEMB     117      POPC     C210     CEL1    -0.150000       12.0110           0
     13750 MEMB     117      POPC     H101     HEL1     0.150000       1.00800           0
     13751 MEMB     117      POPC     C211     CTL2    -0.180000       12.0110           0
     13752 MEMB     117      POPC     H11R     HAL2     0.900000E-01   1.00800           0
     13753 MEMB     117      POPC     H11S     HAL2     0.900000E-01   1.00800           0
     13754 MEMB     117      POPC     C212     CTL2    -0.180000       12.0110           0
     13755 MEMB     117      POPC     H12R     HAL2     0.900000E-01   1.00800           0
     13756 MEMB     117      POPC     H12S     HAL2     0.900000E-01   1.00800           0
     13757 MEMB     117      POPC     C213     CTL2    -0.180000       12.0110           0
     13758 MEMB     117      POPC     H13R     HAL2     0.900000E-01   1.00800           0
     13759 MEMB     117      POPC     H13S     HAL2     0.900000E-01   1.00800           0
     13760 MEMB     117      POPC     C214     CTL2    -0.180000       12.0110           0
     13761 MEMB     117      POPC     H14R     HAL2     0.900000E-01   1.00800           0
     13762 MEMB     117      POPC     H14S     HAL2     0.900000E-01   1.00800           0
     13763 MEMB     117      POPC     C215     CTL2    -0.180000       12.0110           0
     13764 MEMB     117      POPC     H15R     HAL2     0.900000E-01   1.00800           0
     13765 MEMB     117      POPC     H15S     HAL2     0.900000E-01   1.00800           0
     13766 MEMB     117      POPC     C216     CTL2    -0.180000       12.0110           0
     13767 MEMB     117      POPC     H16R     HAL2     0.900000E-01   1.00800           0
     13768 MEMB     117      POPC     H16S     HAL2     0.900000E-01   1.00800           0
     13769 MEMB     117      POPC     C217     CTL2    -0.180000       12.0110           0
     13770 MEMB     117      POPC     H17R     HAL2     0.900000E-01   1.00800           0
     13771 MEMB     117      POPC     H17S     HAL2     0.900000E-01   1.00800           0
     13772 MEMB     117      POPC     C218     CTL3    -0.270000       12.0110           0
     13773 MEMB     117      POPC     H18R     HAL3     0.900000E-01   1.00800           0
     13774 MEMB     117      POPC     H18S     HAL3     0.900000E-01   1.00800           0
     13775 MEMB     117      POPC     H18T     HAL3     0.900000E-01   1.00800           0
     13776 MEMB     117      POPC     C33      CTL2    -0.180000       12.0110           0
     13777 MEMB     117      POPC     H3X      HAL2     0.900000E-01   1.00800           0
     13778 MEMB     117      POPC     H3Y      HAL2     0.900000E-01   1.00800           0
     13779 MEMB     117      POPC     C34      CTL2    -0.180000       12.0110           0
     13780 MEMB     117      POPC     H4X      HAL2     0.900000E-01   1.00800           0
     13781 MEMB     117      POPC     H4Y      HAL2     0.900000E-01   1.00800           0
     13782 MEMB     117      POPC     C35      CTL2    -0.180000       12.0110           0
     13783 MEMB     117      POPC     H5X      HAL2     0.900000E-01   1.00800           0
     13784 MEMB     117      POPC     H5Y      HAL2     0.900000E-01   1.00800           0
     13785 MEMB     117      POPC     C36      CTL2    -0.180000       12.0110           0
     13786 MEMB     117      POPC     H6X      HAL2     0.900000E-01   1.00800           0
     13787 MEMB     117      POPC     H6Y      HAL2     0.900000E-01   1.00800           0
     13788 MEMB     117      POPC     C37      CTL2    -0.180000       12.0110           0
     13789 MEMB     117      POPC     H7X      HAL2     0.900000E-01   1.00800           0
     13790 MEMB     117      POPC     H7Y      HAL2     0.900000E-01   1.00800           0
     13791 MEMB     117      POPC     C38      CTL2    -0.180000       12.0110           0
     13792 MEMB     117      POPC     H8X      HAL2     0.900000E-01   1.00800           0
     13793 MEMB     117      POPC     H8Y      HAL2     0.900000E-01   1.00800           0
     13794 MEMB     117      POPC     C39      CTL2    -0.180000       12.0110           0
     13795 MEMB     117      POPC     H9X      HAL2     0.900000E-01   1.00800           0
     13796 MEMB     117      POPC     H9Y      HAL2     0.900000E-01   1.00800           0
     13797 MEMB     117      POPC     C310     CTL2    -0.180000       12.0110           0
     13798 MEMB     117      POPC     H10X     HAL2     0.900000E-01   1.00800           0
     13799 MEMB     117      POPC     H10Y     HAL2     0.900000E-01   1.00800           0
     13800 MEMB     117      POPC     C311     CTL2    -0.180000       12.0110           0
     13801 MEMB     117      POPC     H11X     HAL2     0.900000E-01   1.00800           0
     13802 MEMB     117      POPC     H11Y     HAL2     0.900000E-01   1.00800           0
     13803 MEMB     117      POPC     C312     CTL2    -0.180000       12.0110           0
     13804 MEMB     117      POPC     H12X     HAL2     0.900000E-01   1.00800           0
     13805 MEMB     117      POPC     H12Y     HAL2     0.900000E-01   1.00800           0
     13806 MEMB     117      POPC     C313     CTL2    -0.180000       12.0110           0
     13807 MEMB     117      POPC     H13X     HAL2     0.900000E-01   1.00800           0
     13808 MEMB     117      POPC     H13Y     HAL2     0.900000E-01   1.00800           0
     13809 MEMB     117      POPC     C314     CTL2    -0.180000       12.0110           0
     13810 MEMB     117      POPC     H14X     HAL2     0.900000E-01   1.00800           0
     13811 MEMB     117      POPC     H14Y     HAL2     0.900000E-01   1.00800           0
     13812 MEMB     117      POPC     C315     CTL2    -0.180000       12.0110           0
     13813 MEMB     117      POPC     H15X     HAL2     0.900000E-01   1.00800           0
     13814 MEMB     117      POPC     H15Y     HAL2     0.900000E-01   1.00800           0
     13815 MEMB     117      POPC     C316     CTL3    -0.270000       12.0110           0
     13816 MEMB     117      POPC     H16X     HAL3     0.900000E-01   1.00800           0
     13817 MEMB     117      POPC     H16Y     HAL3     0.900000E-01   1.00800           0
     13818 MEMB     117      POPC     H16Z     HAL3     0.900000E-01   1.00800           0
     13819 MEMB     118      POPC     N        NTL     -0.600000       14.0070           0
     13820 MEMB     118      POPC     C12      CTL2    -0.100000       12.0110           0
     13821 MEMB     118      POPC     H12A     HL       0.250000       1.00800           0
     13822 MEMB     118      POPC     H12B     HL       0.250000       1.00800           0
     13823 MEMB     118      POPC     C13      CTL5    -0.350000       12.0110           0
     13824 MEMB     118      POPC     H13A     HL       0.250000       1.00800           0
     13825 MEMB     118      POPC     H13B     HL       0.250000       1.00800           0
     13826 MEMB     118      POPC     H13C     HL       0.250000       1.00800           0
     13827 MEMB     118      POPC     C14      CTL5    -0.350000       12.0110           0
     13828 MEMB     118      POPC     H14A     HL       0.250000       1.00800           0
     13829 MEMB     118      POPC     H14B     HL       0.250000       1.00800           0
     13830 MEMB     118      POPC     H14C     HL       0.250000       1.00800           0
     13831 MEMB     118      POPC     C15      CTL5    -0.350000       12.0110           0
     13832 MEMB     118      POPC     H15A     HL       0.250000       1.00800           0
     13833 MEMB     118      POPC     H15B     HL       0.250000       1.00800           0
     13834 MEMB     118      POPC     H15C     HL       0.250000       1.00800           0
     13835 MEMB     118      POPC     C11      CTL2    -0.800000E-01   12.0110           0
     13836 MEMB     118      POPC     H11A     HAL2     0.900000E-01   1.00800           0
     13837 MEMB     118      POPC     H11B     HAL2     0.900000E-01   1.00800           0
     13838 MEMB     118      POPC     P        PL        1.50000       30.9740           0
     13839 MEMB     118      POPC     O13      O2L     -0.780000       15.9994           0
     13840 MEMB     118      POPC     O14      O2L     -0.780000       15.9994           0
     13841 MEMB     118      POPC     O12      OSLP    -0.570000       15.9994           0
     13842 MEMB     118      POPC     O11      OSLP    -0.570000       15.9994           0
     13843 MEMB     118      POPC     C1       CTL2    -0.800000E-01   12.0110           0
     13844 MEMB     118      POPC     HA       HAL2     0.900000E-01   1.00800           0
     13845 MEMB     118      POPC     HB       HAL2     0.900000E-01   1.00800           0
     13846 MEMB     118      POPC     C2       CTL1     0.170000       12.0110           0
     13847 MEMB     118      POPC     HS       HAL1     0.900000E-01   1.00800           0
     13848 MEMB     118      POPC     O21      OSL     -0.490000       15.9994           0
     13849 MEMB     118      POPC     C21      CL       0.900000       12.0110           0
     13850 MEMB     118      POPC     O22      OBL     -0.630000       15.9994           0
     13851 MEMB     118      POPC     C22      CTL2    -0.220000       12.0110           0
     13852 MEMB     118      POPC     H2R      HAL2     0.900000E-01   1.00800           0
     13853 MEMB     118      POPC     H2S      HAL2     0.900000E-01   1.00800           0
     13854 MEMB     118      POPC     C3       CTL2     0.800000E-01   12.0110           0
     13855 MEMB     118      POPC     HX       HAL2     0.900000E-01   1.00800           0
     13856 MEMB     118      POPC     HY       HAL2     0.900000E-01   1.00800           0
     13857 MEMB     118      POPC     O31      OSL     -0.490000       15.9994           0
     13858 MEMB     118      POPC     C31      CL       0.900000       12.0110           0
     13859 MEMB     118      POPC     O32      OBL     -0.630000       15.9994           0
     13860 MEMB     118      POPC     C32      CTL2    -0.220000       12.0110           0
     13861 MEMB     118      POPC     H2X      HAL2     0.900000E-01   1.00800           0
     13862 MEMB     118      POPC     H2Y      HAL2     0.900000E-01   1.00800           0
     13863 MEMB     118      POPC     C23      CTL2    -0.180000       12.0110           0
     13864 MEMB     118      POPC     H3R      HAL2     0.900000E-01   1.00800           0
     13865 MEMB     118      POPC     H3S      HAL2     0.900000E-01   1.00800           0
     13866 MEMB     118      POPC     C24      CTL2    -0.180000       12.0110           0
     13867 MEMB     118      POPC     H4R      HAL2     0.900000E-01   1.00800           0
     13868 MEMB     118      POPC     H4S      HAL2     0.900000E-01   1.00800           0
     13869 MEMB     118      POPC     C25      CTL2    -0.180000       12.0110           0
     13870 MEMB     118      POPC     H5R      HAL2     0.900000E-01   1.00800           0
     13871 MEMB     118      POPC     H5S      HAL2     0.900000E-01   1.00800           0
     13872 MEMB     118      POPC     C26      CTL2    -0.180000       12.0110           0
     13873 MEMB     118      POPC     H6R      HAL2     0.900000E-01   1.00800           0
     13874 MEMB     118      POPC     H6S      HAL2     0.900000E-01   1.00800           0
     13875 MEMB     118      POPC     C27      CTL2    -0.180000       12.0110           0
     13876 MEMB     118      POPC     H7R      HAL2     0.900000E-01   1.00800           0
     13877 MEMB     118      POPC     H7S      HAL2     0.900000E-01   1.00800           0
     13878 MEMB     118      POPC     C28      CTL2    -0.180000       12.0110           0
     13879 MEMB     118      POPC     H8R      HAL2     0.900000E-01   1.00800           0
     13880 MEMB     118      POPC     H8S      HAL2     0.900000E-01   1.00800           0
     13881 MEMB     118      POPC     C29      CEL1    -0.150000       12.0110           0
     13882 MEMB     118      POPC     H91      HEL1     0.150000       1.00800           0
     13883 MEMB     118      POPC     C210     CEL1    -0.150000       12.0110           0
     13884 MEMB     118      POPC     H101     HEL1     0.150000       1.00800           0
     13885 MEMB     118      POPC     C211     CTL2    -0.180000       12.0110           0
     13886 MEMB     118      POPC     H11R     HAL2     0.900000E-01   1.00800           0
     13887 MEMB     118      POPC     H11S     HAL2     0.900000E-01   1.00800           0
     13888 MEMB     118      POPC     C212     CTL2    -0.180000       12.0110           0
     13889 MEMB     118      POPC     H12R     HAL2     0.900000E-01   1.00800           0
     13890 MEMB     118      POPC     H12S     HAL2     0.900000E-01   1.00800           0
     13891 MEMB     118      POPC     C213     CTL2    -0.180000       12.0110           0
     13892 MEMB     118      POPC     H13R     HAL2     0.900000E-01   1.00800           0
     13893 MEMB     118      POPC     H13S     HAL2     0.900000E-01   1.00800           0
     13894 MEMB     118      POPC     C214     CTL2    -0.180000       12.0110           0
     13895 MEMB     118      POPC     H14R     HAL2     0.900000E-01   1.00800           0
     13896 MEMB     118      POPC     H14S     HAL2     0.900000E-01   1.00800           0
     13897 MEMB     118      POPC     C215     CTL2    -0.180000       12.0110           0
     13898 MEMB     118      POPC     H15R     HAL2     0.900000E-01   1.00800           0
     13899 MEMB     118      POPC     H15S     HAL2     0.900000E-01   1.00800           0
     13900 MEMB     118      POPC     C216     CTL2    -0.180000       12.0110           0
     13901 MEMB     118      POPC     H16R     HAL2     0.900000E-01   1.00800           0
     13902 MEMB     118      POPC     H16S     HAL2     0.900000E-01   1.00800           0
     13903 MEMB     118      POPC     C217     CTL2    -0.180000       12.0110           0
     13904 MEMB     118      POPC     H17R     HAL2     0.900000E-01   1.00800           0
     13905 MEMB     118      POPC     H17S     HAL2     0.900000E-01   1.00800           0
     13906 MEMB     118      POPC     C218     CTL3    -0.270000       12.0110           0
     13907 MEMB     118      POPC     H18R     HAL3     0.900000E-01   1.00800           0
     13908 MEMB     118      POPC     H18S     HAL3     0.900000E-01   1.00800           0
     13909 MEMB     118      POPC     H18T     HAL3     0.900000E-01   1.00800           0
     13910 MEMB     118      POPC     C33      CTL2    -0.180000       12.0110           0
     13911 MEMB     118      POPC     H3X      HAL2     0.900000E-01   1.00800           0
     13912 MEMB     118      POPC     H3Y      HAL2     0.900000E-01   1.00800           0
     13913 MEMB     118      POPC     C34      CTL2    -0.180000       12.0110           0
     13914 MEMB     118      POPC     H4X      HAL2     0.900000E-01   1.00800           0
     13915 MEMB     118      POPC     H4Y      HAL2     0.900000E-01   1.00800           0
     13916 MEMB     118      POPC     C35      CTL2    -0.180000       12.0110           0
     13917 MEMB     118      POPC     H5X      HAL2     0.900000E-01   1.00800           0
     13918 MEMB     118      POPC     H5Y      HAL2     0.900000E-01   1.00800           0
     13919 MEMB     118      POPC     C36      CTL2    -0.180000       12.0110           0
     13920 MEMB     118      POPC     H6X      HAL2     0.900000E-01   1.00800           0
     13921 MEMB     118      POPC     H6Y      HAL2     0.900000E-01   1.00800           0
     13922 MEMB     118      POPC     C37      CTL2    -0.180000       12.0110           0
     13923 MEMB     118      POPC     H7X      HAL2     0.900000E-01   1.00800           0
     13924 MEMB     118      POPC     H7Y      HAL2     0.900000E-01   1.00800           0
     13925 MEMB     118      POPC     C38      CTL2    -0.180000       12.0110           0
     13926 MEMB     118      POPC     H8X      HAL2     0.900000E-01   1.00800           0
     13927 MEMB     118      POPC     H8Y      HAL2     0.900000E-01   1.00800           0
     13928 MEMB     118      POPC     C39      CTL2    -0.180000       12.0110           0
     13929 MEMB     118      POPC     H9X      HAL2     0.900000E-01   1.00800           0
     13930 MEMB     118      POPC     H9Y      HAL2     0.900000E-01   1.00800           0
     13931 MEMB     118      POPC     C310     CTL2    -0.180000       12.0110           0
     13932 MEMB     118      POPC     H10X     HAL2     0.900000E-01   1.00800           0
     13933 MEMB     118      POPC     H10Y     HAL2     0.900000E-01   1.00800           0
     13934 MEMB     118      POPC     C311     CTL2    -0.180000       12.0110           0
     13935 MEMB     118      POPC     H11X     HAL2     0.900000E-01   1.00800           0
     13936 MEMB     118      POPC     H11Y     HAL2     0.900000E-01   1.00800           0
     13937 MEMB     118      POPC     C312     CTL2    -0.180000       12.0110           0
     13938 MEMB     118      POPC     H12X     HAL2     0.900000E-01   1.00800           0
     13939 MEMB     118      POPC     H12Y     HAL2     0.900000E-01   1.00800           0
     13940 MEMB     118      POPC     C313     CTL2    -0.180000       12.0110           0
     13941 MEMB     118      POPC     H13X     HAL2     0.900000E-01   1.00800           0
     13942 MEMB     118      POPC     H13Y     HAL2     0.900000E-01   1.00800           0
     13943 MEMB     118      POPC     C314     CTL2    -0.180000       12.0110           0
     13944 MEMB     118      POPC     H14X     HAL2     0.900000E-01   1.00800           0
     13945 MEMB     118      POPC     H14Y     HAL2     0.900000E-01   1.00800           0
     13946 MEMB     118      POPC     C315     CTL2    -0.180000       12.0110           0
     13947 MEMB     118      POPC     H15X     HAL2     0.900000E-01   1.00800           0
     13948 MEMB     118      POPC     H15Y     HAL2     0.900000E-01   1.00800           0
     13949 MEMB     118      POPC     C316     CTL3    -0.270000       12.0110           0
     13950 MEMB     118      POPC     H16X     HAL3     0.900000E-01   1.00800           0
     13951 MEMB     118      POPC     H16Y     HAL3     0.900000E-01   1.00800           0
     13952 MEMB     118      POPC     H16Z     HAL3     0.900000E-01   1.00800           0
     13953 MEMB     119      POPC     N        NTL     -0.600000       14.0070           0
     13954 MEMB     119      POPC     C12      CTL2    -0.100000       12.0110           0
     13955 MEMB     119      POPC     H12A     HL       0.250000       1.00800           0
     13956 MEMB     119      POPC     H12B     HL       0.250000       1.00800           0
     13957 MEMB     119      POPC     C13      CTL5    -0.350000       12.0110           0
     13958 MEMB     119      POPC     H13A     HL       0.250000       1.00800           0
     13959 MEMB     119      POPC     H13B     HL       0.250000       1.00800           0
     13960 MEMB     119      POPC     H13C     HL       0.250000       1.00800           0
     13961 MEMB     119      POPC     C14      CTL5    -0.350000       12.0110           0
     13962 MEMB     119      POPC     H14A     HL       0.250000       1.00800           0
     13963 MEMB     119      POPC     H14B     HL       0.250000       1.00800           0
     13964 MEMB     119      POPC     H14C     HL       0.250000       1.00800           0
     13965 MEMB     119      POPC     C15      CTL5    -0.350000       12.0110           0
     13966 MEMB     119      POPC     H15A     HL       0.250000       1.00800           0
     13967 MEMB     119      POPC     H15B     HL       0.250000       1.00800           0
     13968 MEMB     119      POPC     H15C     HL       0.250000       1.00800           0
     13969 MEMB     119      POPC     C11      CTL2    -0.800000E-01   12.0110           0
     13970 MEMB     119      POPC     H11A     HAL2     0.900000E-01   1.00800           0
     13971 MEMB     119      POPC     H11B     HAL2     0.900000E-01   1.00800           0
     13972 MEMB     119      POPC     P        PL        1.50000       30.9740           0
     13973 MEMB     119      POPC     O13      O2L     -0.780000       15.9994           0
     13974 MEMB     119      POPC     O14      O2L     -0.780000       15.9994           0
     13975 MEMB     119      POPC     O12      OSLP    -0.570000       15.9994           0
     13976 MEMB     119      POPC     O11      OSLP    -0.570000       15.9994           0
     13977 MEMB     119      POPC     C1       CTL2    -0.800000E-01   12.0110           0
     13978 MEMB     119      POPC     HA       HAL2     0.900000E-01   1.00800           0
     13979 MEMB     119      POPC     HB       HAL2     0.900000E-01   1.00800           0
     13980 MEMB     119      POPC     C2       CTL1     0.170000       12.0110           0
     13981 MEMB     119      POPC     HS       HAL1     0.900000E-01   1.00800           0
     13982 MEMB     119      POPC     O21      OSL     -0.490000       15.9994           0
     13983 MEMB     119      POPC     C21      CL       0.900000       12.0110           0
     13984 MEMB     119      POPC     O22      OBL     -0.630000       15.9994           0
     13985 MEMB     119      POPC     C22      CTL2    -0.220000       12.0110           0
     13986 MEMB     119      POPC     H2R      HAL2     0.900000E-01   1.00800           0
     13987 MEMB     119      POPC     H2S      HAL2     0.900000E-01   1.00800           0
     13988 MEMB     119      POPC     C3       CTL2     0.800000E-01   12.0110           0
     13989 MEMB     119      POPC     HX       HAL2     0.900000E-01   1.00800           0
     13990 MEMB     119      POPC     HY       HAL2     0.900000E-01   1.00800           0
     13991 MEMB     119      POPC     O31      OSL     -0.490000       15.9994           0
     13992 MEMB     119      POPC     C31      CL       0.900000       12.0110           0
     13993 MEMB     119      POPC     O32      OBL     -0.630000       15.9994           0
     13994 MEMB     119      POPC     C32      CTL2    -0.220000       12.0110           0
     13995 MEMB     119      POPC     H2X      HAL2     0.900000E-01   1.00800           0
     13996 MEMB     119      POPC     H2Y      HAL2     0.900000E-01   1.00800           0
     13997 MEMB     119      POPC     C23      CTL2    -0.180000       12.0110           0
     13998 MEMB     119      POPC     H3R      HAL2     0.900000E-01   1.00800           0
     13999 MEMB     119      POPC     H3S      HAL2     0.900000E-01   1.00800           0
     14000 MEMB     119      POPC     C24      CTL2    -0.180000       12.0110           0
     14001 MEMB     119      POPC     H4R      HAL2     0.900000E-01   1.00800           0
     14002 MEMB     119      POPC     H4S      HAL2     0.900000E-01   1.00800           0
     14003 MEMB     119      POPC     C25      CTL2    -0.180000       12.0110           0
     14004 MEMB     119      POPC     H5R      HAL2     0.900000E-01   1.00800           0
     14005 MEMB     119      POPC     H5S      HAL2     0.900000E-01   1.00800           0
     14006 MEMB     119      POPC     C26      CTL2    -0.180000       12.0110           0
     14007 MEMB     119      POPC     H6R      HAL2     0.900000E-01   1.00800           0
     14008 MEMB     119      POPC     H6S      HAL2     0.900000E-01   1.00800           0
     14009 MEMB     119      POPC     C27      CTL2    -0.180000       12.0110           0
     14010 MEMB     119      POPC     H7R      HAL2     0.900000E-01   1.00800           0
     14011 MEMB     119      POPC     H7S      HAL2     0.900000E-01   1.00800           0
     14012 MEMB     119      POPC     C28      CTL2    -0.180000       12.0110           0
     14013 MEMB     119      POPC     H8R      HAL2     0.900000E-01   1.00800           0
     14014 MEMB     119      POPC     H8S      HAL2     0.900000E-01   1.00800           0
     14015 MEMB     119      POPC     C29      CEL1    -0.150000       12.0110           0
     14016 MEMB     119      POPC     H91      HEL1     0.150000       1.00800           0
     14017 MEMB     119      POPC     C210     CEL1    -0.150000       12.0110           0
     14018 MEMB     119      POPC     H101     HEL1     0.150000       1.00800           0
     14019 MEMB     119      POPC     C211     CTL2    -0.180000       12.0110           0
     14020 MEMB     119      POPC     H11R     HAL2     0.900000E-01   1.00800           0
     14021 MEMB     119      POPC     H11S     HAL2     0.900000E-01   1.00800           0
     14022 MEMB     119      POPC     C212     CTL2    -0.180000       12.0110           0
     14023 MEMB     119      POPC     H12R     HAL2     0.900000E-01   1.00800           0
     14024 MEMB     119      POPC     H12S     HAL2     0.900000E-01   1.00800           0
     14025 MEMB     119      POPC     C213     CTL2    -0.180000       12.0110           0
     14026 MEMB     119      POPC     H13R     HAL2     0.900000E-01   1.00800           0
     14027 MEMB     119      POPC     H13S     HAL2     0.900000E-01   1.00800           0
     14028 MEMB     119      POPC     C214     CTL2    -0.180000       12.0110           0
     14029 MEMB     119      POPC     H14R     HAL2     0.900000E-01   1.00800           0
     14030 MEMB     119      POPC     H14S     HAL2     0.900000E-01   1.00800           0
     14031 MEMB     119      POPC     C215     CTL2    -0.180000       12.0110           0
     14032 MEMB     119      POPC     H15R     HAL2     0.900000E-01   1.00800           0
     14033 MEMB     119      POPC     H15S     HAL2     0.900000E-01   1.00800           0
     14034 MEMB     119      POPC     C216     CTL2    -0.180000       12.0110           0
     14035 MEMB     119      POPC     H16R     HAL2     0.900000E-01   1.00800           0
     14036 MEMB     119      POPC     H16S     HAL2     0.900000E-01   1.00800           0
     14037 MEMB     119      POPC     C217     CTL2    -0.180000       12.0110           0
     14038 MEMB     119      POPC     H17R     HAL2     0.900000E-01   1.00800           0
     14039 MEMB     119      POPC     H17S     HAL2     0.900000E-01   1.00800           0
     14040 MEMB     119      POPC     C218     CTL3    -0.270000       12.0110           0
     14041 MEMB     119      POPC     H18R     HAL3     0.900000E-01   1.00800           0
     14042 MEMB     119      POPC     H18S     HAL3     0.900000E-01   1.00800           0
     14043 MEMB     119      POPC     H18T     HAL3     0.900000E-01   1.00800           0
     14044 MEMB     119      POPC     C33      CTL2    -0.180000       12.0110           0
     14045 MEMB     119      POPC     H3X      HAL2     0.900000E-01   1.00800           0
     14046 MEMB     119      POPC     H3Y      HAL2     0.900000E-01   1.00800           0
     14047 MEMB     119      POPC     C34      CTL2    -0.180000       12.0110           0
     14048 MEMB     119      POPC     H4X      HAL2     0.900000E-01   1.00800           0
     14049 MEMB     119      POPC     H4Y      HAL2     0.900000E-01   1.00800           0
     14050 MEMB     119      POPC     C35      CTL2    -0.180000       12.0110           0
     14051 MEMB     119      POPC     H5X      HAL2     0.900000E-01   1.00800           0
     14052 MEMB     119      POPC     H5Y      HAL2     0.900000E-01   1.00800           0
     14053 MEMB     119      POPC     C36      CTL2    -0.180000       12.0110           0
     14054 MEMB     119      POPC     H6X      HAL2     0.900000E-01   1.00800           0
     14055 MEMB     119      POPC     H6Y      HAL2     0.900000E-01   1.00800           0
     14056 MEMB     119      POPC     C37      CTL2    -0.180000       12.0110           0
     14057 MEMB     119      POPC     H7X      HAL2     0.900000E-01   1.00800           0
     14058 MEMB     119      POPC     H7Y      HAL2     0.900000E-01   1.00800           0
     14059 MEMB     119      POPC     C38      CTL2    -0.180000       12.0110           0
     14060 MEMB     119      POPC     H8X      HAL2     0.900000E-01   1.00800           0
     14061 MEMB     119      POPC     H8Y      HAL2     0.900000E-01   1.00800           0
     14062 MEMB     119      POPC     C39      CTL2    -0.180000       12.0110           0
     14063 MEMB     119      POPC     H9X      HAL2     0.900000E-01   1.00800           0
     14064 MEMB     119      POPC     H9Y      HAL2     0.900000E-01   1.00800           0
     14065 MEMB     119      POPC     C310     CTL2    -0.180000       12.0110           0
     14066 MEMB     119      POPC     H10X     HAL2     0.900000E-01   1.00800           0
     14067 MEMB     119      POPC     H10Y     HAL2     0.900000E-01   1.00800           0
     14068 MEMB     119      POPC     C311     CTL2    -0.180000       12.0110           0
     14069 MEMB     119      POPC     H11X     HAL2     0.900000E-01   1.00800           0
     14070 MEMB     119      POPC     H11Y     HAL2     0.900000E-01   1.00800           0
     14071 MEMB     119      POPC     C312     CTL2    -0.180000       12.0110           0
     14072 MEMB     119      POPC     H12X     HAL2     0.900000E-01   1.00800           0
     14073 MEMB     119      POPC     H12Y     HAL2     0.900000E-01   1.00800           0
     14074 MEMB     119      POPC     C313     CTL2    -0.180000       12.0110           0
     14075 MEMB     119      POPC     H13X     HAL2     0.900000E-01   1.00800           0
     14076 MEMB     119      POPC     H13Y     HAL2     0.900000E-01   1.00800           0
     14077 MEMB     119      POPC     C314     CTL2    -0.180000       12.0110           0
     14078 MEMB     119      POPC     H14X     HAL2     0.900000E-01   1.00800           0
     14079 MEMB     119      POPC     H14Y     HAL2     0.900000E-01   1.00800           0
     14080 MEMB     119      POPC     C315     CTL2    -0.180000       12.0110           0
     14081 MEMB     119      POPC     H15X     HAL2     0.900000E-01   1.00800           0
     14082 MEMB     119      POPC     H15Y     HAL2     0.900000E-01   1.00800           0
     14083 MEMB     119      POPC     C316     CTL3    -0.270000       12.0110           0
     14084 MEMB     119      POPC     H16X     HAL3     0.900000E-01   1.00800           0
     14085 MEMB     119      POPC     H16Y     HAL3     0.900000E-01   1.00800           0
     14086 MEMB     119      POPC     H16Z     HAL3     0.900000E-01   1.00800           0
     14087 MEMB     120      POPC     N        NTL     -0.600000       14.0070           0
     14088 MEMB     120      POPC     C12      CTL2    -0.100000       12.0110           0
     14089 MEMB     120      POPC     H12A     HL       0.250000       1.00800           0
     14090 MEMB     120      POPC     H12B     HL       0.250000       1.00800           0
     14091 MEMB     120      POPC     C13      CTL5    -0.350000       12.0110           0
     14092 MEMB     120      POPC     H13A     HL       0.250000       1.00800           0
     14093 MEMB     120      POPC     H13B     HL       0.250000       1.00800           0
     14094 MEMB     120      POPC     H13C     HL       0.250000       1.00800           0
     14095 MEMB     120      POPC     C14      CTL5    -0.350000       12.0110           0
     14096 MEMB     120      POPC     H14A     HL       0.250000       1.00800           0
     14097 MEMB     120      POPC     H14B     HL       0.250000       1.00800           0
     14098 MEMB     120      POPC     H14C     HL       0.250000       1.00800           0
     14099 MEMB     120      POPC     C15      CTL5    -0.350000       12.0110           0
     14100 MEMB     120      POPC     H15A     HL       0.250000       1.00800           0
     14101 MEMB     120      POPC     H15B     HL       0.250000       1.00800           0
     14102 MEMB     120      POPC     H15C     HL       0.250000       1.00800           0
     14103 MEMB     120      POPC     C11      CTL2    -0.800000E-01   12.0110           0
     14104 MEMB     120      POPC     H11A     HAL2     0.900000E-01   1.00800           0
     14105 MEMB     120      POPC     H11B     HAL2     0.900000E-01   1.00800           0
     14106 MEMB     120      POPC     P        PL        1.50000       30.9740           0
     14107 MEMB     120      POPC     O13      O2L     -0.780000       15.9994           0
     14108 MEMB     120      POPC     O14      O2L     -0.780000       15.9994           0
     14109 MEMB     120      POPC     O12      OSLP    -0.570000       15.9994           0
     14110 MEMB     120      POPC     O11      OSLP    -0.570000       15.9994           0
     14111 MEMB     120      POPC     C1       CTL2    -0.800000E-01   12.0110           0
     14112 MEMB     120      POPC     HA       HAL2     0.900000E-01   1.00800           0
     14113 MEMB     120      POPC     HB       HAL2     0.900000E-01   1.00800           0
     14114 MEMB     120      POPC     C2       CTL1     0.170000       12.0110           0
     14115 MEMB     120      POPC     HS       HAL1     0.900000E-01   1.00800           0
     14116 MEMB     120      POPC     O21      OSL     -0.490000       15.9994           0
     14117 MEMB     120      POPC     C21      CL       0.900000       12.0110           0
     14118 MEMB     120      POPC     O22      OBL     -0.630000       15.9994           0
     14119 MEMB     120      POPC     C22      CTL2    -0.220000       12.0110           0
     14120 MEMB     120      POPC     H2R      HAL2     0.900000E-01   1.00800           0
     14121 MEMB     120      POPC     H2S      HAL2     0.900000E-01   1.00800           0
     14122 MEMB     120      POPC     C3       CTL2     0.800000E-01   12.0110           0
     14123 MEMB     120      POPC     HX       HAL2     0.900000E-01   1.00800           0
     14124 MEMB     120      POPC     HY       HAL2     0.900000E-01   1.00800           0
     14125 MEMB     120      POPC     O31      OSL     -0.490000       15.9994           0
     14126 MEMB     120      POPC     C31      CL       0.900000       12.0110           0
     14127 MEMB     120      POPC     O32      OBL     -0.630000       15.9994           0
     14128 MEMB     120      POPC     C32      CTL2    -0.220000       12.0110           0
     14129 MEMB     120      POPC     H2X      HAL2     0.900000E-01   1.00800           0
     14130 MEMB     120      POPC     H2Y      HAL2     0.900000E-01   1.00800           0
     14131 MEMB     120      POPC     C23      CTL2    -0.180000       12.0110           0
     14132 MEMB     120      POPC     H3R      HAL2     0.900000E-01   1.00800           0
     14133 MEMB     120      POPC     H3S      HAL2     0.900000E-01   1.00800           0
     14134 MEMB     120      POPC     C24      CTL2    -0.180000       12.0110           0
     14135 MEMB     120      POPC     H4R      HAL2     0.900000E-01   1.00800           0
     14136 MEMB     120      POPC     H4S      HAL2     0.900000E-01   1.00800           0
     14137 MEMB     120      POPC     C25      CTL2    -0.180000       12.0110           0
     14138 MEMB     120      POPC     H5R      HAL2     0.900000E-01   1.00800           0
     14139 MEMB     120      POPC     H5S      HAL2     0.900000E-01   1.00800           0
     14140 MEMB     120      POPC     C26      CTL2    -0.180000       12.0110           0
     14141 MEMB     120      POPC     H6R      HAL2     0.900000E-01   1.00800           0
     14142 MEMB     120      POPC     H6S      HAL2     0.900000E-01   1.00800           0
     14143 MEMB     120      POPC     C27      CTL2    -0.180000       12.0110           0
     14144 MEMB     120      POPC     H7R      HAL2     0.900000E-01   1.00800           0
     14145 MEMB     120      POPC     H7S      HAL2     0.900000E-01   1.00800           0
     14146 MEMB     120      POPC     C28      CTL2    -0.180000       12.0110           0
     14147 MEMB     120      POPC     H8R      HAL2     0.900000E-01   1.00800           0
     14148 MEMB     120      POPC     H8S      HAL2     0.900000E-01   1.00800           0
     14149 MEMB     120      POPC     C29      CEL1    -0.150000       12.0110           0
     14150 MEMB     120      POPC     H91      HEL1     0.150000       1.00800           0
     14151 MEMB     120      POPC     C210     CEL1    -0.150000       12.0110           0
     14152 MEMB     120      POPC     H101     HEL1     0.150000       1.00800           0
     14153 MEMB     120      POPC     C211     CTL2    -0.180000       12.0110           0
     14154 MEMB     120      POPC     H11R     HAL2     0.900000E-01   1.00800           0
     14155 MEMB     120      POPC     H11S     HAL2     0.900000E-01   1.00800           0
     14156 MEMB     120      POPC     C212     CTL2    -0.180000       12.0110           0
     14157 MEMB     120      POPC     H12R     HAL2     0.900000E-01   1.00800           0
     14158 MEMB     120      POPC     H12S     HAL2     0.900000E-01   1.00800           0
     14159 MEMB     120      POPC     C213     CTL2    -0.180000       12.0110           0
     14160 MEMB     120      POPC     H13R     HAL2     0.900000E-01   1.00800           0
     14161 MEMB     120      POPC     H13S     HAL2     0.900000E-01   1.00800           0
     14162 MEMB     120      POPC     C214     CTL2    -0.180000       12.0110           0
     14163 MEMB     120      POPC     H14R     HAL2     0.900000E-01   1.00800           0
     14164 MEMB     120      POPC     H14S     HAL2     0.900000E-01   1.00800           0
     14165 MEMB     120      POPC     C215     CTL2    -0.180000       12.0110           0
     14166 MEMB     120      POPC     H15R     HAL2     0.900000E-01   1.00800           0
     14167 MEMB     120      POPC     H15S     HAL2     0.900000E-01   1.00800           0
     14168 MEMB     120      POPC     C216     CTL2    -0.180000       12.0110           0
     14169 MEMB     120      POPC     H16R     HAL2     0.900000E-01   1.00800           0
     14170 MEMB     120      POPC     H16S     HAL2     0.900000E-01   1.00800           0
     14171 MEMB     120      POPC     C217     CTL2    -0.180000       12.0110           0
     14172 MEMB     120      POPC     H17R     HAL2     0.900000E-01   1.00800           0
     14173 MEMB     120      POPC     H17S     HAL2     0.900000E-01   1.00800           0
     14174 MEMB     120      POPC     C218     CTL3    -0.270000       12.0110           0
     14175 MEMB     120      POPC     H18R     HAL3     0.900000E-01   1.00800           0
     14176 MEMB     120      POPC     H18S     HAL3     0.900000E-01   1.00800           0
     14177 MEMB     120      POPC     H18T     HAL3     0.900000E-01   1.00800           0
     14178 MEMB     120      POPC     C33      CTL2    -0.180000       12.0110           0
     14179 MEMB     120      POPC     H3X      HAL2     0.900000E-01   1.00800           0
     14180 MEMB     120      POPC     H3Y      HAL2     0.900000E-01   1.00800           0
     14181 MEMB     120      POPC     C34      CTL2    -0.180000       12.0110           0
     14182 MEMB     120      POPC     H4X      HAL2     0.900000E-01   1.00800           0
     14183 MEMB     120      POPC     H4Y      HAL2     0.900000E-01   1.00800           0
     14184 MEMB     120      POPC     C35      CTL2    -0.180000       12.0110           0
     14185 MEMB     120      POPC     H5X      HAL2     0.900000E-01   1.00800           0
     14186 MEMB     120      POPC     H5Y      HAL2     0.900000E-01   1.00800           0
     14187 MEMB     120      POPC     C36      CTL2    -0.180000       12.0110           0
     14188 MEMB     120      POPC     H6X      HAL2     0.900000E-01   1.00800           0
     14189 MEMB     120      POPC     H6Y      HAL2     0.900000E-01   1.00800           0
     14190 MEMB     120      POPC     C37      CTL2    -0.180000       12.0110           0
     14191 MEMB     120      POPC     H7X      HAL2     0.900000E-01   1.00800           0
     14192 MEMB     120      POPC     H7Y      HAL2     0.900000E-01   1.00800           0
     14193 MEMB     120      POPC     C38      CTL2    -0.180000       12.0110           0
     14194 MEMB     120      POPC     H8X      HAL2     0.900000E-01   1.00800           0
     14195 MEMB     120      POPC     H8Y      HAL2     0.900000E-01   1.00800           0
     14196 MEMB     120      POPC     C39      CTL2    -0.180000       12.0110           0
     14197 MEMB     120      POPC     H9X      HAL2     0.900000E-01   1.00800           0
     14198 MEMB     120      POPC     H9Y      HAL2     0.900000E-01   1.00800           0
     14199 MEMB     120      POPC     C310     CTL2    -0.180000       12.0110           0
     14200 MEMB     120      POPC     H10X     HAL2     0.900000E-01   1.00800           0
     14201 MEMB     120      POPC     H10Y     HAL2     0.900000E-01   1.00800           0
     14202 MEMB     120      POPC     C311     CTL2    -0.180000       12.0110           0
     14203 MEMB     120      POPC     H11X     HAL2     0.900000E-01   1.00800           0
     14204 MEMB     120      POPC     H11Y     HAL2     0.900000E-01   1.00800           0
     14205 MEMB     120      POPC     C312     CTL2    -0.180000       12.0110           0
     14206 MEMB     120      POPC     H12X     HAL2     0.900000E-01   1.00800           0
     14207 MEMB     120      POPC     H12Y     HAL2     0.900000E-01   1.00800           0
     14208 MEMB     120      POPC     C313     CTL2    -0.180000       12.0110           0
     14209 MEMB     120      POPC     H13X     HAL2     0.900000E-01   1.00800           0
     14210 MEMB     120      POPC     H13Y     HAL2     0.900000E-01   1.00800           0
     14211 MEMB     120      POPC     C314     CTL2    -0.180000       12.0110           0
     14212 MEMB     120      POPC     H14X     HAL2     0.900000E-01   1.00800           0
     14213 MEMB     120      POPC     H14Y     HAL2     0.900000E-01   1.00800           0
     14214 MEMB     120      POPC     C315     CTL2    -0.180000       12.0110           0
     14215 MEMB     120      POPC     H15X     HAL2     0.900000E-01   1.00800           0
     14216 MEMB     120      POPC     H15Y     HAL2     0.900000E-01   1.00800           0
     14217 MEMB     120      POPC     C316     CTL3    -0.270000       12.0110           0
     14218 MEMB     120      POPC     H16X     HAL3     0.900000E-01   1.00800           0
     14219 MEMB     120      POPC     H16Y     HAL3     0.900000E-01   1.00800           0
     14220 MEMB     120      POPC     H16Z     HAL3     0.900000E-01   1.00800           0
     14221 MEMB     121      POPC     N        NTL     -0.600000       14.0070           0
     14222 MEMB     121      POPC     C12      CTL2    -0.100000       12.0110           0
     14223 MEMB     121      POPC     H12A     HL       0.250000       1.00800           0
     14224 MEMB     121      POPC     H12B     HL       0.250000       1.00800           0
     14225 MEMB     121      POPC     C13      CTL5    -0.350000       12.0110           0
     14226 MEMB     121      POPC     H13A     HL       0.250000       1.00800           0
     14227 MEMB     121      POPC     H13B     HL       0.250000       1.00800           0
     14228 MEMB     121      POPC     H13C     HL       0.250000       1.00800           0
     14229 MEMB     121      POPC     C14      CTL5    -0.350000       12.0110           0
     14230 MEMB     121      POPC     H14A     HL       0.250000       1.00800           0
     14231 MEMB     121      POPC     H14B     HL       0.250000       1.00800           0
     14232 MEMB     121      POPC     H14C     HL       0.250000       1.00800           0
     14233 MEMB     121      POPC     C15      CTL5    -0.350000       12.0110           0
     14234 MEMB     121      POPC     H15A     HL       0.250000       1.00800           0
     14235 MEMB     121      POPC     H15B     HL       0.250000       1.00800           0
     14236 MEMB     121      POPC     H15C     HL       0.250000       1.00800           0
     14237 MEMB     121      POPC     C11      CTL2    -0.800000E-01   12.0110           0
     14238 MEMB     121      POPC     H11A     HAL2     0.900000E-01   1.00800           0
     14239 MEMB     121      POPC     H11B     HAL2     0.900000E-01   1.00800           0
     14240 MEMB     121      POPC     P        PL        1.50000       30.9740           0
     14241 MEMB     121      POPC     O13      O2L     -0.780000       15.9994           0
     14242 MEMB     121      POPC     O14      O2L     -0.780000       15.9994           0
     14243 MEMB     121      POPC     O12      OSLP    -0.570000       15.9994           0
     14244 MEMB     121      POPC     O11      OSLP    -0.570000       15.9994           0
     14245 MEMB     121      POPC     C1       CTL2    -0.800000E-01   12.0110           0
     14246 MEMB     121      POPC     HA       HAL2     0.900000E-01   1.00800           0
     14247 MEMB     121      POPC     HB       HAL2     0.900000E-01   1.00800           0
     14248 MEMB     121      POPC     C2       CTL1     0.170000       12.0110           0
     14249 MEMB     121      POPC     HS       HAL1     0.900000E-01   1.00800           0
     14250 MEMB     121      POPC     O21      OSL     -0.490000       15.9994           0
     14251 MEMB     121      POPC     C21      CL       0.900000       12.0110           0
     14252 MEMB     121      POPC     O22      OBL     -0.630000       15.9994           0
     14253 MEMB     121      POPC     C22      CTL2    -0.220000       12.0110           0
     14254 MEMB     121      POPC     H2R      HAL2     0.900000E-01   1.00800           0
     14255 MEMB     121      POPC     H2S      HAL2     0.900000E-01   1.00800           0
     14256 MEMB     121      POPC     C3       CTL2     0.800000E-01   12.0110           0
     14257 MEMB     121      POPC     HX       HAL2     0.900000E-01   1.00800           0
     14258 MEMB     121      POPC     HY       HAL2     0.900000E-01   1.00800           0
     14259 MEMB     121      POPC     O31      OSL     -0.490000       15.9994           0
     14260 MEMB     121      POPC     C31      CL       0.900000       12.0110           0
     14261 MEMB     121      POPC     O32      OBL     -0.630000       15.9994           0
     14262 MEMB     121      POPC     C32      CTL2    -0.220000       12.0110           0
     14263 MEMB     121      POPC     H2X      HAL2     0.900000E-01   1.00800           0
     14264 MEMB     121      POPC     H2Y      HAL2     0.900000E-01   1.00800           0
     14265 MEMB     121      POPC     C23      CTL2    -0.180000       12.0110           0
     14266 MEMB     121      POPC     H3R      HAL2     0.900000E-01   1.00800           0
     14267 MEMB     121      POPC     H3S      HAL2     0.900000E-01   1.00800           0
     14268 MEMB     121      POPC     C24      CTL2    -0.180000       12.0110           0
     14269 MEMB     121      POPC     H4R      HAL2     0.900000E-01   1.00800           0
     14270 MEMB     121      POPC     H4S      HAL2     0.900000E-01   1.00800           0
     14271 MEMB     121      POPC     C25      CTL2    -0.180000       12.0110           0
     14272 MEMB     121      POPC     H5R      HAL2     0.900000E-01   1.00800           0
     14273 MEMB     121      POPC     H5S      HAL2     0.900000E-01   1.00800           0
     14274 MEMB     121      POPC     C26      CTL2    -0.180000       12.0110           0
     14275 MEMB     121      POPC     H6R      HAL2     0.900000E-01   1.00800           0
     14276 MEMB     121      POPC     H6S      HAL2     0.900000E-01   1.00800           0
     14277 MEMB     121      POPC     C27      CTL2    -0.180000       12.0110           0
     14278 MEMB     121      POPC     H7R      HAL2     0.900000E-01   1.00800           0
     14279 MEMB     121      POPC     H7S      HAL2     0.900000E-01   1.00800           0
     14280 MEMB     121      POPC     C28      CTL2    -0.180000       12.0110           0
     14281 MEMB     121      POPC     H8R      HAL2     0.900000E-01   1.00800           0
     14282 MEMB     121      POPC     H8S      HAL2     0.900000E-01   1.00800           0
     14283 MEMB     121      POPC     C29      CEL1    -0.150000       12.0110           0
     14284 MEMB     121      POPC     H91      HEL1     0.150000       1.00800           0
     14285 MEMB     121      POPC     C210     CEL1    -0.150000       12.0110           0
     14286 MEMB     121      POPC     H101     HEL1     0.150000       1.00800           0
     14287 MEMB     121      POPC     C211     CTL2    -0.180000       12.0110           0
     14288 MEMB     121      POPC     H11R     HAL2     0.900000E-01   1.00800           0
     14289 MEMB     121      POPC     H11S     HAL2     0.900000E-01   1.00800           0
     14290 MEMB     121      POPC     C212     CTL2    -0.180000       12.0110           0
     14291 MEMB     121      POPC     H12R     HAL2     0.900000E-01   1.00800           0
     14292 MEMB     121      POPC     H12S     HAL2     0.900000E-01   1.00800           0
     14293 MEMB     121      POPC     C213     CTL2    -0.180000       12.0110           0
     14294 MEMB     121      POPC     H13R     HAL2     0.900000E-01   1.00800           0
     14295 MEMB     121      POPC     H13S     HAL2     0.900000E-01   1.00800           0
     14296 MEMB     121      POPC     C214     CTL2    -0.180000       12.0110           0
     14297 MEMB     121      POPC     H14R     HAL2     0.900000E-01   1.00800           0
     14298 MEMB     121      POPC     H14S     HAL2     0.900000E-01   1.00800           0
     14299 MEMB     121      POPC     C215     CTL2    -0.180000       12.0110           0
     14300 MEMB     121      POPC     H15R     HAL2     0.900000E-01   1.00800           0
     14301 MEMB     121      POPC     H15S     HAL2     0.900000E-01   1.00800           0
     14302 MEMB     121      POPC     C216     CTL2    -0.180000       12.0110           0
     14303 MEMB     121      POPC     H16R     HAL2     0.900000E-01   1.00800           0
     14304 MEMB     121      POPC     H16S     HAL2     0.900000E-01   1.00800           0
     14305 MEMB     121      POPC     C217     CTL2    -0.180000       12.0110           0
     14306 MEMB     121      POPC     H17R     HAL2     0.900000E-01   1.00800           0
     14307 MEMB     121      POPC     H17S     HAL2     0.900000E-01   1.00800           0
     14308 MEMB     121      POPC     C218     CTL3    -0.270000       12.0110           0
     14309 MEMB     121      POPC     H18R     HAL3     0.900000E-01   1.00800           0
     14310 MEMB     121      POPC     H18S     HAL3     0.900000E-01   1.00800           0
     14311 MEMB     121      POPC     H18T     HAL3     0.900000E-01   1.00800           0
     14312 MEMB     121      POPC     C33      CTL2    -0.180000       12.0110           0
     14313 MEMB     121      POPC     H3X      HAL2     0.900000E-01   1.00800           0
     14314 MEMB     121      POPC     H3Y      HAL2     0.900000E-01   1.00800           0
     14315 MEMB     121      POPC     C34      CTL2    -0.180000       12.0110           0
     14316 MEMB     121      POPC     H4X      HAL2     0.900000E-01   1.00800           0
     14317 MEMB     121      POPC     H4Y      HAL2     0.900000E-01   1.00800           0
     14318 MEMB     121      POPC     C35      CTL2    -0.180000       12.0110           0
     14319 MEMB     121      POPC     H5X      HAL2     0.900000E-01   1.00800           0
     14320 MEMB     121      POPC     H5Y      HAL2     0.900000E-01   1.00800           0
     14321 MEMB     121      POPC     C36      CTL2    -0.180000       12.0110           0
     14322 MEMB     121      POPC     H6X      HAL2     0.900000E-01   1.00800           0
     14323 MEMB     121      POPC     H6Y      HAL2     0.900000E-01   1.00800           0
     14324 MEMB     121      POPC     C37      CTL2    -0.180000       12.0110           0
     14325 MEMB     121      POPC     H7X      HAL2     0.900000E-01   1.00800           0
     14326 MEMB     121      POPC     H7Y      HAL2     0.900000E-01   1.00800           0
     14327 MEMB     121      POPC     C38      CTL2    -0.180000       12.0110           0
     14328 MEMB     121      POPC     H8X      HAL2     0.900000E-01   1.00800           0
     14329 MEMB     121      POPC     H8Y      HAL2     0.900000E-01   1.00800           0
     14330 MEMB     121      POPC     C39      CTL2    -0.180000       12.0110           0
     14331 MEMB     121      POPC     H9X      HAL2     0.900000E-01   1.00800           0
     14332 MEMB     121      POPC     H9Y      HAL2     0.900000E-01   1.00800           0
     14333 MEMB     121      POPC     C310     CTL2    -0.180000       12.0110           0
     14334 MEMB     121      POPC     H10X     HAL2     0.900000E-01   1.00800           0
     14335 MEMB     121      POPC     H10Y     HAL2     0.900000E-01   1.00800           0
     14336 MEMB     121      POPC     C311     CTL2    -0.180000       12.0110           0
     14337 MEMB     121      POPC     H11X     HAL2     0.900000E-01   1.00800           0
     14338 MEMB     121      POPC     H11Y     HAL2     0.900000E-01   1.00800           0
     14339 MEMB     121      POPC     C312     CTL2    -0.180000       12.0110           0
     14340 MEMB     121      POPC     H12X     HAL2     0.900000E-01   1.00800           0
     14341 MEMB     121      POPC     H12Y     HAL2     0.900000E-01   1.00800           0
     14342 MEMB     121      POPC     C313     CTL2    -0.180000       12.0110           0
     14343 MEMB     121      POPC     H13X     HAL2     0.900000E-01   1.00800           0
     14344 MEMB     121      POPC     H13Y     HAL2     0.900000E-01   1.00800           0
     14345 MEMB     121      POPC     C314     CTL2    -0.180000       12.0110           0
     14346 MEMB     121      POPC     H14X     HAL2     0.900000E-01   1.00800           0
     14347 MEMB     121      POPC     H14Y     HAL2     0.900000E-01   1.00800           0
     14348 MEMB     121      POPC     C315     CTL2    -0.180000       12.0110           0
     14349 MEMB     121      POPC     H15X     HAL2     0.900000E-01   1.00800           0
     14350 MEMB     121      POPC     H15Y     HAL2     0.900000E-01   1.00800           0
     14351 MEMB     121      POPC     C316     CTL3    -0.270000       12.0110           0
     14352 MEMB     121      POPC     H16X     HAL3     0.900000E-01   1.00800           0
     14353 MEMB     121      POPC     H16Y     HAL3     0.900000E-01   1.00800           0
     14354 MEMB     121      POPC     H16Z     HAL3     0.900000E-01   1.00800           0
     14355 MEMB     122      POPC     N        NTL     -0.600000       14.0070           0
     14356 MEMB     122      POPC     C12      CTL2    -0.100000       12.0110           0
     14357 MEMB     122      POPC     H12A     HL       0.250000       1.00800           0
     14358 MEMB     122      POPC     H12B     HL       0.250000       1.00800           0
     14359 MEMB     122      POPC     C13      CTL5    -0.350000       12.0110           0
     14360 MEMB     122      POPC     H13A     HL       0.250000       1.00800           0
     14361 MEMB     122      POPC     H13B     HL       0.250000       1.00800           0
     14362 MEMB     122      POPC     H13C     HL       0.250000       1.00800           0
     14363 MEMB     122      POPC     C14      CTL5    -0.350000       12.0110           0
     14364 MEMB     122      POPC     H14A     HL       0.250000       1.00800           0
     14365 MEMB     122      POPC     H14B     HL       0.250000       1.00800           0
     14366 MEMB     122      POPC     H14C     HL       0.250000       1.00800           0
     14367 MEMB     122      POPC     C15      CTL5    -0.350000       12.0110           0
     14368 MEMB     122      POPC     H15A     HL       0.250000       1.00800           0
     14369 MEMB     122      POPC     H15B     HL       0.250000       1.00800           0
     14370 MEMB     122      POPC     H15C     HL       0.250000       1.00800           0
     14371 MEMB     122      POPC     C11      CTL2    -0.800000E-01   12.0110           0
     14372 MEMB     122      POPC     H11A     HAL2     0.900000E-01   1.00800           0
     14373 MEMB     122      POPC     H11B     HAL2     0.900000E-01   1.00800           0
     14374 MEMB     122      POPC     P        PL        1.50000       30.9740           0
     14375 MEMB     122      POPC     O13      O2L     -0.780000       15.9994           0
     14376 MEMB     122      POPC     O14      O2L     -0.780000       15.9994           0
     14377 MEMB     122      POPC     O12      OSLP    -0.570000       15.9994           0
     14378 MEMB     122      POPC     O11      OSLP    -0.570000       15.9994           0
     14379 MEMB     122      POPC     C1       CTL2    -0.800000E-01   12.0110           0
     14380 MEMB     122      POPC     HA       HAL2     0.900000E-01   1.00800           0
     14381 MEMB     122      POPC     HB       HAL2     0.900000E-01   1.00800           0
     14382 MEMB     122      POPC     C2       CTL1     0.170000       12.0110           0
     14383 MEMB     122      POPC     HS       HAL1     0.900000E-01   1.00800           0
     14384 MEMB     122      POPC     O21      OSL     -0.490000       15.9994           0
     14385 MEMB     122      POPC     C21      CL       0.900000       12.0110           0
     14386 MEMB     122      POPC     O22      OBL     -0.630000       15.9994           0
     14387 MEMB     122      POPC     C22      CTL2    -0.220000       12.0110           0
     14388 MEMB     122      POPC     H2R      HAL2     0.900000E-01   1.00800           0
     14389 MEMB     122      POPC     H2S      HAL2     0.900000E-01   1.00800           0
     14390 MEMB     122      POPC     C3       CTL2     0.800000E-01   12.0110           0
     14391 MEMB     122      POPC     HX       HAL2     0.900000E-01   1.00800           0
     14392 MEMB     122      POPC     HY       HAL2     0.900000E-01   1.00800           0
     14393 MEMB     122      POPC     O31      OSL     -0.490000       15.9994           0
     14394 MEMB     122      POPC     C31      CL       0.900000       12.0110           0
     14395 MEMB     122      POPC     O32      OBL     -0.630000       15.9994           0
     14396 MEMB     122      POPC     C32      CTL2    -0.220000       12.0110           0
     14397 MEMB     122      POPC     H2X      HAL2     0.900000E-01   1.00800           0
     14398 MEMB     122      POPC     H2Y      HAL2     0.900000E-01   1.00800           0
     14399 MEMB     122      POPC     C23      CTL2    -0.180000       12.0110           0
     14400 MEMB     122      POPC     H3R      HAL2     0.900000E-01   1.00800           0
     14401 MEMB     122      POPC     H3S      HAL2     0.900000E-01   1.00800           0
     14402 MEMB     122      POPC     C24      CTL2    -0.180000       12.0110           0
     14403 MEMB     122      POPC     H4R      HAL2     0.900000E-01   1.00800           0
     14404 MEMB     122      POPC     H4S      HAL2     0.900000E-01   1.00800           0
     14405 MEMB     122      POPC     C25      CTL2    -0.180000       12.0110           0
     14406 MEMB     122      POPC     H5R      HAL2     0.900000E-01   1.00800           0
     14407 MEMB     122      POPC     H5S      HAL2     0.900000E-01   1.00800           0
     14408 MEMB     122      POPC     C26      CTL2    -0.180000       12.0110           0
     14409 MEMB     122      POPC     H6R      HAL2     0.900000E-01   1.00800           0
     14410 MEMB     122      POPC     H6S      HAL2     0.900000E-01   1.00800           0
     14411 MEMB     122      POPC     C27      CTL2    -0.180000       12.0110           0
     14412 MEMB     122      POPC     H7R      HAL2     0.900000E-01   1.00800           0
     14413 MEMB     122      POPC     H7S      HAL2     0.900000E-01   1.00800           0
     14414 MEMB     122      POPC     C28      CTL2    -0.180000       12.0110           0
     14415 MEMB     122      POPC     H8R      HAL2     0.900000E-01   1.00800           0
     14416 MEMB     122      POPC     H8S      HAL2     0.900000E-01   1.00800           0
     14417 MEMB     122      POPC     C29      CEL1    -0.150000       12.0110           0
     14418 MEMB     122      POPC     H91      HEL1     0.150000       1.00800           0
     14419 MEMB     122      POPC     C210     CEL1    -0.150000       12.0110           0
     14420 MEMB     122      POPC     H101     HEL1     0.150000       1.00800           0
     14421 MEMB     122      POPC     C211     CTL2    -0.180000       12.0110           0
     14422 MEMB     122      POPC     H11R     HAL2     0.900000E-01   1.00800           0
     14423 MEMB     122      POPC     H11S     HAL2     0.900000E-01   1.00800           0
     14424 MEMB     122      POPC     C212     CTL2    -0.180000       12.0110           0
     14425 MEMB     122      POPC     H12R     HAL2     0.900000E-01   1.00800           0
     14426 MEMB     122      POPC     H12S     HAL2     0.900000E-01   1.00800           0
     14427 MEMB     122      POPC     C213     CTL2    -0.180000       12.0110           0
     14428 MEMB     122      POPC     H13R     HAL2     0.900000E-01   1.00800           0
     14429 MEMB     122      POPC     H13S     HAL2     0.900000E-01   1.00800           0
     14430 MEMB     122      POPC     C214     CTL2    -0.180000       12.0110           0
     14431 MEMB     122      POPC     H14R     HAL2     0.900000E-01   1.00800           0
     14432 MEMB     122      POPC     H14S     HAL2     0.900000E-01   1.00800           0
     14433 MEMB     122      POPC     C215     CTL2    -0.180000       12.0110           0
     14434 MEMB     122      POPC     H15R     HAL2     0.900000E-01   1.00800           0
     14435 MEMB     122      POPC     H15S     HAL2     0.900000E-01   1.00800           0
     14436 MEMB     122      POPC     C216     CTL2    -0.180000       12.0110           0
     14437 MEMB     122      POPC     H16R     HAL2     0.900000E-01   1.00800           0
     14438 MEMB     122      POPC     H16S     HAL2     0.900000E-01   1.00800           0
     14439 MEMB     122      POPC     C217     CTL2    -0.180000       12.0110           0
     14440 MEMB     122      POPC     H17R     HAL2     0.900000E-01   1.00800           0
     14441 MEMB     122      POPC     H17S     HAL2     0.900000E-01   1.00800           0
     14442 MEMB     122      POPC     C218     CTL3    -0.270000       12.0110           0
     14443 MEMB     122      POPC     H18R     HAL3     0.900000E-01   1.00800           0
     14444 MEMB     122      POPC     H18S     HAL3     0.900000E-01   1.00800           0
     14445 MEMB     122      POPC     H18T     HAL3     0.900000E-01   1.00800           0
     14446 MEMB     122      POPC     C33      CTL2    -0.180000       12.0110           0
     14447 MEMB     122      POPC     H3X      HAL2     0.900000E-01   1.00800           0
     14448 MEMB     122      POPC     H3Y      HAL2     0.900000E-01   1.00800           0
     14449 MEMB     122      POPC     C34      CTL2    -0.180000       12.0110           0
     14450 MEMB     122      POPC     H4X      HAL2     0.900000E-01   1.00800           0
     14451 MEMB     122      POPC     H4Y      HAL2     0.900000E-01   1.00800           0
     14452 MEMB     122      POPC     C35      CTL2    -0.180000       12.0110           0
     14453 MEMB     122      POPC     H5X      HAL2     0.900000E-01   1.00800           0
     14454 MEMB     122      POPC     H5Y      HAL2     0.900000E-01   1.00800           0
     14455 MEMB     122      POPC     C36      CTL2    -0.180000       12.0110           0
     14456 MEMB     122      POPC     H6X      HAL2     0.900000E-01   1.00800           0
     14457 MEMB     122      POPC     H6Y      HAL2     0.900000E-01   1.00800           0
     14458 MEMB     122      POPC     C37      CTL2    -0.180000       12.0110           0
     14459 MEMB     122      POPC     H7X      HAL2     0.900000E-01   1.00800           0
     14460 MEMB     122      POPC     H7Y      HAL2     0.900000E-01   1.00800           0
     14461 MEMB     122      POPC     C38      CTL2    -0.180000       12.0110           0
     14462 MEMB     122      POPC     H8X      HAL2     0.900000E-01   1.00800           0
     14463 MEMB     122      POPC     H8Y      HAL2     0.900000E-01   1.00800           0
     14464 MEMB     122      POPC     C39      CTL2    -0.180000       12.0110           0
     14465 MEMB     122      POPC     H9X      HAL2     0.900000E-01   1.00800           0
     14466 MEMB     122      POPC     H9Y      HAL2     0.900000E-01   1.00800           0
     14467 MEMB     122      POPC     C310     CTL2    -0.180000       12.0110           0
     14468 MEMB     122      POPC     H10X     HAL2     0.900000E-01   1.00800           0
     14469 MEMB     122      POPC     H10Y     HAL2     0.900000E-01   1.00800           0
     14470 MEMB     122      POPC     C311     CTL2    -0.180000       12.0110           0
     14471 MEMB     122      POPC     H11X     HAL2     0.900000E-01   1.00800           0
     14472 MEMB     122      POPC     H11Y     HAL2     0.900000E-01   1.00800           0
     14473 MEMB     122      POPC     C312     CTL2    -0.180000       12.0110           0
     14474 MEMB     122      POPC     H12X     HAL2     0.900000E-01   1.00800           0
     14475 MEMB     122      POPC     H12Y     HAL2     0.900000E-01   1.00800           0
     14476 MEMB     122      POPC     C313     CTL2    -0.180000       12.0110           0
     14477 MEMB     122      POPC     H13X     HAL2     0.900000E-01   1.00800           0
     14478 MEMB     122      POPC     H13Y     HAL2     0.900000E-01   1.00800           0
     14479 MEMB     122      POPC     C314     CTL2    -0.180000       12.0110           0
     14480 MEMB     122      POPC     H14X     HAL2     0.900000E-01   1.00800           0
     14481 MEMB     122      POPC     H14Y     HAL2     0.900000E-01   1.00800           0
     14482 MEMB     122      POPC     C315     CTL2    -0.180000       12.0110           0
     14483 MEMB     122      POPC     H15X     HAL2     0.900000E-01   1.00800           0
     14484 MEMB     122      POPC     H15Y     HAL2     0.900000E-01   1.00800           0
     14485 MEMB     122      POPC     C316     CTL3    -0.270000       12.0110           0
     14486 MEMB     122      POPC     H16X     HAL3     0.900000E-01   1.00800           0
     14487 MEMB     122      POPC     H16Y     HAL3     0.900000E-01   1.00800           0
     14488 MEMB     122      POPC     H16Z     HAL3     0.900000E-01   1.00800           0
     14489 MEMB     123      POPC     N        NTL     -0.600000       14.0070           0
     14490 MEMB     123      POPC     C12      CTL2    -0.100000       12.0110           0
     14491 MEMB     123      POPC     H12A     HL       0.250000       1.00800           0
     14492 MEMB     123      POPC     H12B     HL       0.250000       1.00800           0
     14493 MEMB     123      POPC     C13      CTL5    -0.350000       12.0110           0
     14494 MEMB     123      POPC     H13A     HL       0.250000       1.00800           0
     14495 MEMB     123      POPC     H13B     HL       0.250000       1.00800           0
     14496 MEMB     123      POPC     H13C     HL       0.250000       1.00800           0
     14497 MEMB     123      POPC     C14      CTL5    -0.350000       12.0110           0
     14498 MEMB     123      POPC     H14A     HL       0.250000       1.00800           0
     14499 MEMB     123      POPC     H14B     HL       0.250000       1.00800           0
     14500 MEMB     123      POPC     H14C     HL       0.250000       1.00800           0
     14501 MEMB     123      POPC     C15      CTL5    -0.350000       12.0110           0
     14502 MEMB     123      POPC     H15A     HL       0.250000       1.00800           0
     14503 MEMB     123      POPC     H15B     HL       0.250000       1.00800           0
     14504 MEMB     123      POPC     H15C     HL       0.250000       1.00800           0
     14505 MEMB     123      POPC     C11      CTL2    -0.800000E-01   12.0110           0
     14506 MEMB     123      POPC     H11A     HAL2     0.900000E-01   1.00800           0
     14507 MEMB     123      POPC     H11B     HAL2     0.900000E-01   1.00800           0
     14508 MEMB     123      POPC     P        PL        1.50000       30.9740           0
     14509 MEMB     123      POPC     O13      O2L     -0.780000       15.9994           0
     14510 MEMB     123      POPC     O14      O2L     -0.780000       15.9994           0
     14511 MEMB     123      POPC     O12      OSLP    -0.570000       15.9994           0
     14512 MEMB     123      POPC     O11      OSLP    -0.570000       15.9994           0
     14513 MEMB     123      POPC     C1       CTL2    -0.800000E-01   12.0110           0
     14514 MEMB     123      POPC     HA       HAL2     0.900000E-01   1.00800           0
     14515 MEMB     123      POPC     HB       HAL2     0.900000E-01   1.00800           0
     14516 MEMB     123      POPC     C2       CTL1     0.170000       12.0110           0
     14517 MEMB     123      POPC     HS       HAL1     0.900000E-01   1.00800           0
     14518 MEMB     123      POPC     O21      OSL     -0.490000       15.9994           0
     14519 MEMB     123      POPC     C21      CL       0.900000       12.0110           0
     14520 MEMB     123      POPC     O22      OBL     -0.630000       15.9994           0
     14521 MEMB     123      POPC     C22      CTL2    -0.220000       12.0110           0
     14522 MEMB     123      POPC     H2R      HAL2     0.900000E-01   1.00800           0
     14523 MEMB     123      POPC     H2S      HAL2     0.900000E-01   1.00800           0
     14524 MEMB     123      POPC     C3       CTL2     0.800000E-01   12.0110           0
     14525 MEMB     123      POPC     HX       HAL2     0.900000E-01   1.00800           0
     14526 MEMB     123      POPC     HY       HAL2     0.900000E-01   1.00800           0
     14527 MEMB     123      POPC     O31      OSL     -0.490000       15.9994           0
     14528 MEMB     123      POPC     C31      CL       0.900000       12.0110           0
     14529 MEMB     123      POPC     O32      OBL     -0.630000       15.9994           0
     14530 MEMB     123      POPC     C32      CTL2    -0.220000       12.0110           0
     14531 MEMB     123      POPC     H2X      HAL2     0.900000E-01   1.00800           0
     14532 MEMB     123      POPC     H2Y      HAL2     0.900000E-01   1.00800           0
     14533 MEMB     123      POPC     C23      CTL2    -0.180000       12.0110           0
     14534 MEMB     123      POPC     H3R      HAL2     0.900000E-01   1.00800           0
     14535 MEMB     123      POPC     H3S      HAL2     0.900000E-01   1.00800           0
     14536 MEMB     123      POPC     C24      CTL2    -0.180000       12.0110           0
     14537 MEMB     123      POPC     H4R      HAL2     0.900000E-01   1.00800           0
     14538 MEMB     123      POPC     H4S      HAL2     0.900000E-01   1.00800           0
     14539 MEMB     123      POPC     C25      CTL2    -0.180000       12.0110           0
     14540 MEMB     123      POPC     H5R      HAL2     0.900000E-01   1.00800           0
     14541 MEMB     123      POPC     H5S      HAL2     0.900000E-01   1.00800           0
     14542 MEMB     123      POPC     C26      CTL2    -0.180000       12.0110           0
     14543 MEMB     123      POPC     H6R      HAL2     0.900000E-01   1.00800           0
     14544 MEMB     123      POPC     H6S      HAL2     0.900000E-01   1.00800           0
     14545 MEMB     123      POPC     C27      CTL2    -0.180000       12.0110           0
     14546 MEMB     123      POPC     H7R      HAL2     0.900000E-01   1.00800           0
     14547 MEMB     123      POPC     H7S      HAL2     0.900000E-01   1.00800           0
     14548 MEMB     123      POPC     C28      CTL2    -0.180000       12.0110           0
     14549 MEMB     123      POPC     H8R      HAL2     0.900000E-01   1.00800           0
     14550 MEMB     123      POPC     H8S      HAL2     0.900000E-01   1.00800           0
     14551 MEMB     123      POPC     C29      CEL1    -0.150000       12.0110           0
     14552 MEMB     123      POPC     H91      HEL1     0.150000       1.00800           0
     14553 MEMB     123      POPC     C210     CEL1    -0.150000       12.0110           0
     14554 MEMB     123      POPC     H101     HEL1     0.150000       1.00800           0
     14555 MEMB     123      POPC     C211     CTL2    -0.180000       12.0110           0
     14556 MEMB     123      POPC     H11R     HAL2     0.900000E-01   1.00800           0
     14557 MEMB     123      POPC     H11S     HAL2     0.900000E-01   1.00800           0
     14558 MEMB     123      POPC     C212     CTL2    -0.180000       12.0110           0
     14559 MEMB     123      POPC     H12R     HAL2     0.900000E-01   1.00800           0
     14560 MEMB     123      POPC     H12S     HAL2     0.900000E-01   1.00800           0
     14561 MEMB     123      POPC     C213     CTL2    -0.180000       12.0110           0
     14562 MEMB     123      POPC     H13R     HAL2     0.900000E-01   1.00800           0
     14563 MEMB     123      POPC     H13S     HAL2     0.900000E-01   1.00800           0
     14564 MEMB     123      POPC     C214     CTL2    -0.180000       12.0110           0
     14565 MEMB     123      POPC     H14R     HAL2     0.900000E-01   1.00800           0
     14566 MEMB     123      POPC     H14S     HAL2     0.900000E-01   1.00800           0
     14567 MEMB     123      POPC     C215     CTL2    -0.180000       12.0110           0
     14568 MEMB     123      POPC     H15R     HAL2     0.900000E-01   1.00800           0
     14569 MEMB     123      POPC     H15S     HAL2     0.900000E-01   1.00800           0
     14570 MEMB     123      POPC     C216     CTL2    -0.180000       12.0110           0
     14571 MEMB     123      POPC     H16R     HAL2     0.900000E-01   1.00800           0
     14572 MEMB     123      POPC     H16S     HAL2     0.900000E-01   1.00800           0
     14573 MEMB     123      POPC     C217     CTL2    -0.180000       12.0110           0
     14574 MEMB     123      POPC     H17R     HAL2     0.900000E-01   1.00800           0
     14575 MEMB     123      POPC     H17S     HAL2     0.900000E-01   1.00800           0
     14576 MEMB     123      POPC     C218     CTL3    -0.270000       12.0110           0
     14577 MEMB     123      POPC     H18R     HAL3     0.900000E-01   1.00800           0
     14578 MEMB     123      POPC     H18S     HAL3     0.900000E-01   1.00800           0
     14579 MEMB     123      POPC     H18T     HAL3     0.900000E-01   1.00800           0
     14580 MEMB     123      POPC     C33      CTL2    -0.180000       12.0110           0
     14581 MEMB     123      POPC     H3X      HAL2     0.900000E-01   1.00800           0
     14582 MEMB     123      POPC     H3Y      HAL2     0.900000E-01   1.00800           0
     14583 MEMB     123      POPC     C34      CTL2    -0.180000       12.0110           0
     14584 MEMB     123      POPC     H4X      HAL2     0.900000E-01   1.00800           0
     14585 MEMB     123      POPC     H4Y      HAL2     0.900000E-01   1.00800           0
     14586 MEMB     123      POPC     C35      CTL2    -0.180000       12.0110           0
     14587 MEMB     123      POPC     H5X      HAL2     0.900000E-01   1.00800           0
     14588 MEMB     123      POPC     H5Y      HAL2     0.900000E-01   1.00800           0
     14589 MEMB     123      POPC     C36      CTL2    -0.180000       12.0110           0
     14590 MEMB     123      POPC     H6X      HAL2     0.900000E-01   1.00800           0
     14591 MEMB     123      POPC     H6Y      HAL2     0.900000E-01   1.00800           0
     14592 MEMB     123      POPC     C37      CTL2    -0.180000       12.0110           0
     14593 MEMB     123      POPC     H7X      HAL2     0.900000E-01   1.00800           0
     14594 MEMB     123      POPC     H7Y      HAL2     0.900000E-01   1.00800           0
     14595 MEMB     123      POPC     C38      CTL2    -0.180000       12.0110           0
     14596 MEMB     123      POPC     H8X      HAL2     0.900000E-01   1.00800           0
     14597 MEMB     123      POPC     H8Y      HAL2     0.900000E-01   1.00800           0
     14598 MEMB     123      POPC     C39      CTL2    -0.180000       12.0110           0
     14599 MEMB     123      POPC     H9X      HAL2     0.900000E-01   1.00800           0
     14600 MEMB     123      POPC     H9Y      HAL2     0.900000E-01   1.00800           0
     14601 MEMB     123      POPC     C310     CTL2    -0.180000       12.0110           0
     14602 MEMB     123      POPC     H10X     HAL2     0.900000E-01   1.00800           0
     14603 MEMB     123      POPC     H10Y     HAL2     0.900000E-01   1.00800           0
     14604 MEMB     123      POPC     C311     CTL2    -0.180000       12.0110           0
     14605 MEMB     123      POPC     H11X     HAL2     0.900000E-01   1.00800           0
     14606 MEMB     123      POPC     H11Y     HAL2     0.900000E-01   1.00800           0
     14607 MEMB     123      POPC     C312     CTL2    -0.180000       12.0110           0
     14608 MEMB     123      POPC     H12X     HAL2     0.900000E-01   1.00800           0
     14609 MEMB     123      POPC     H12Y     HAL2     0.900000E-01   1.00800           0
     14610 MEMB     123      POPC     C313     CTL2    -0.180000       12.0110           0
     14611 MEMB     123      POPC     H13X     HAL2     0.900000E-01   1.00800           0
     14612 MEMB     123      POPC     H13Y     HAL2     0.900000E-01   1.00800           0
     14613 MEMB     123      POPC     C314     CTL2    -0.180000       12.0110           0
     14614 MEMB     123      POPC     H14X     HAL2     0.900000E-01   1.00800           0
     14615 MEMB     123      POPC     H14Y     HAL2     0.900000E-01   1.00800           0
     14616 MEMB     123      POPC     C315     CTL2    -0.180000       12.0110           0
     14617 MEMB     123      POPC     H15X     HAL2     0.900000E-01   1.00800           0
     14618 MEMB     123      POPC     H15Y     HAL2     0.900000E-01   1.00800           0
     14619 MEMB     123      POPC     C316     CTL3    -0.270000       12.0110           0
     14620 MEMB     123      POPC     H16X     HAL3     0.900000E-01   1.00800           0
     14621 MEMB     123      POPC     H16Y     HAL3     0.900000E-01   1.00800           0
     14622 MEMB     123      POPC     H16Z     HAL3     0.900000E-01   1.00800           0
     14623 MEMB     124      POPC     N        NTL     -0.600000       14.0070           0
     14624 MEMB     124      POPC     C12      CTL2    -0.100000       12.0110           0
     14625 MEMB     124      POPC     H12A     HL       0.250000       1.00800           0
     14626 MEMB     124      POPC     H12B     HL       0.250000       1.00800           0
     14627 MEMB     124      POPC     C13      CTL5    -0.350000       12.0110           0
     14628 MEMB     124      POPC     H13A     HL       0.250000       1.00800           0
     14629 MEMB     124      POPC     H13B     HL       0.250000       1.00800           0
     14630 MEMB     124      POPC     H13C     HL       0.250000       1.00800           0
     14631 MEMB     124      POPC     C14      CTL5    -0.350000       12.0110           0
     14632 MEMB     124      POPC     H14A     HL       0.250000       1.00800           0
     14633 MEMB     124      POPC     H14B     HL       0.250000       1.00800           0
     14634 MEMB     124      POPC     H14C     HL       0.250000       1.00800           0
     14635 MEMB     124      POPC     C15      CTL5    -0.350000       12.0110           0
     14636 MEMB     124      POPC     H15A     HL       0.250000       1.00800           0
     14637 MEMB     124      POPC     H15B     HL       0.250000       1.00800           0
     14638 MEMB     124      POPC     H15C     HL       0.250000       1.00800           0
     14639 MEMB     124      POPC     C11      CTL2    -0.800000E-01   12.0110           0
     14640 MEMB     124      POPC     H11A     HAL2     0.900000E-01   1.00800           0
     14641 MEMB     124      POPC     H11B     HAL2     0.900000E-01   1.00800           0
     14642 MEMB     124      POPC     P        PL        1.50000       30.9740           0
     14643 MEMB     124      POPC     O13      O2L     -0.780000       15.9994           0
     14644 MEMB     124      POPC     O14      O2L     -0.780000       15.9994           0
     14645 MEMB     124      POPC     O12      OSLP    -0.570000       15.9994           0
     14646 MEMB     124      POPC     O11      OSLP    -0.570000       15.9994           0
     14647 MEMB     124      POPC     C1       CTL2    -0.800000E-01   12.0110           0
     14648 MEMB     124      POPC     HA       HAL2     0.900000E-01   1.00800           0
     14649 MEMB     124      POPC     HB       HAL2     0.900000E-01   1.00800           0
     14650 MEMB     124      POPC     C2       CTL1     0.170000       12.0110           0
     14651 MEMB     124      POPC     HS       HAL1     0.900000E-01   1.00800           0
     14652 MEMB     124      POPC     O21      OSL     -0.490000       15.9994           0
     14653 MEMB     124      POPC     C21      CL       0.900000       12.0110           0
     14654 MEMB     124      POPC     O22      OBL     -0.630000       15.9994           0
     14655 MEMB     124      POPC     C22      CTL2    -0.220000       12.0110           0
     14656 MEMB     124      POPC     H2R      HAL2     0.900000E-01   1.00800           0
     14657 MEMB     124      POPC     H2S      HAL2     0.900000E-01   1.00800           0
     14658 MEMB     124      POPC     C3       CTL2     0.800000E-01   12.0110           0
     14659 MEMB     124      POPC     HX       HAL2     0.900000E-01   1.00800           0
     14660 MEMB     124      POPC     HY       HAL2     0.900000E-01   1.00800           0
     14661 MEMB     124      POPC     O31      OSL     -0.490000       15.9994           0
     14662 MEMB     124      POPC     C31      CL       0.900000       12.0110           0
     14663 MEMB     124      POPC     O32      OBL     -0.630000       15.9994           0
     14664 MEMB     124      POPC     C32      CTL2    -0.220000       12.0110           0
     14665 MEMB     124      POPC     H2X      HAL2     0.900000E-01   1.00800           0
     14666 MEMB     124      POPC     H2Y      HAL2     0.900000E-01   1.00800           0
     14667 MEMB     124      POPC     C23      CTL2    -0.180000       12.0110           0
     14668 MEMB     124      POPC     H3R      HAL2     0.900000E-01   1.00800           0
     14669 MEMB     124      POPC     H3S      HAL2     0.900000E-01   1.00800           0
     14670 MEMB     124      POPC     C24      CTL2    -0.180000       12.0110           0
     14671 MEMB     124      POPC     H4R      HAL2     0.900000E-01   1.00800           0
     14672 MEMB     124      POPC     H4S      HAL2     0.900000E-01   1.00800           0
     14673 MEMB     124      POPC     C25      CTL2    -0.180000       12.0110           0
     14674 MEMB     124      POPC     H5R      HAL2     0.900000E-01   1.00800           0
     14675 MEMB     124      POPC     H5S      HAL2     0.900000E-01   1.00800           0
     14676 MEMB     124      POPC     C26      CTL2    -0.180000       12.0110           0
     14677 MEMB     124      POPC     H6R      HAL2     0.900000E-01   1.00800           0
     14678 MEMB     124      POPC     H6S      HAL2     0.900000E-01   1.00800           0
     14679 MEMB     124      POPC     C27      CTL2    -0.180000       12.0110           0
     14680 MEMB     124      POPC     H7R      HAL2     0.900000E-01   1.00800           0
     14681 MEMB     124      POPC     H7S      HAL2     0.900000E-01   1.00800           0
     14682 MEMB     124      POPC     C28      CTL2    -0.180000       12.0110           0
     14683 MEMB     124      POPC     H8R      HAL2     0.900000E-01   1.00800           0
     14684 MEMB     124      POPC     H8S      HAL2     0.900000E-01   1.00800           0
     14685 MEMB     124      POPC     C29      CEL1    -0.150000       12.0110           0
     14686 MEMB     124      POPC     H91      HEL1     0.150000       1.00800           0
     14687 MEMB     124      POPC     C210     CEL1    -0.150000       12.0110           0
     14688 MEMB     124      POPC     H101     HEL1     0.150000       1.00800           0
     14689 MEMB     124      POPC     C211     CTL2    -0.180000       12.0110           0
     14690 MEMB     124      POPC     H11R     HAL2     0.900000E-01   1.00800           0
     14691 MEMB     124      POPC     H11S     HAL2     0.900000E-01   1.00800           0
     14692 MEMB     124      POPC     C212     CTL2    -0.180000       12.0110           0
     14693 MEMB     124      POPC     H12R     HAL2     0.900000E-01   1.00800           0
     14694 MEMB     124      POPC     H12S     HAL2     0.900000E-01   1.00800           0
     14695 MEMB     124      POPC     C213     CTL2    -0.180000       12.0110           0
     14696 MEMB     124      POPC     H13R     HAL2     0.900000E-01   1.00800           0
     14697 MEMB     124      POPC     H13S     HAL2     0.900000E-01   1.00800           0
     14698 MEMB     124      POPC     C214     CTL2    -0.180000       12.0110           0
     14699 MEMB     124      POPC     H14R     HAL2     0.900000E-01   1.00800           0
     14700 MEMB     124      POPC     H14S     HAL2     0.900000E-01   1.00800           0
     14701 MEMB     124      POPC     C215     CTL2    -0.180000       12.0110           0
     14702 MEMB     124      POPC     H15R     HAL2     0.900000E-01   1.00800           0
     14703 MEMB     124      POPC     H15S     HAL2     0.900000E-01   1.00800           0
     14704 MEMB     124      POPC     C216     CTL2    -0.180000       12.0110           0
     14705 MEMB     124      POPC     H16R     HAL2     0.900000E-01   1.00800           0
     14706 MEMB     124      POPC     H16S     HAL2     0.900000E-01   1.00800           0
     14707 MEMB     124      POPC     C217     CTL2    -0.180000       12.0110           0
     14708 MEMB     124      POPC     H17R     HAL2     0.900000E-01   1.00800           0
     14709 MEMB     124      POPC     H17S     HAL2     0.900000E-01   1.00800           0
     14710 MEMB     124      POPC     C218     CTL3    -0.270000       12.0110           0
     14711 MEMB     124      POPC     H18R     HAL3     0.900000E-01   1.00800           0
     14712 MEMB     124      POPC     H18S     HAL3     0.900000E-01   1.00800           0
     14713 MEMB     124      POPC     H18T     HAL3     0.900000E-01   1.00800           0
     14714 MEMB     124      POPC     C33      CTL2    -0.180000       12.0110           0
     14715 MEMB     124      POPC     H3X      HAL2     0.900000E-01   1.00800           0
     14716 MEMB     124      POPC     H3Y      HAL2     0.900000E-01   1.00800           0
     14717 MEMB     124      POPC     C34      CTL2    -0.180000       12.0110           0
     14718 MEMB     124      POPC     H4X      HAL2     0.900000E-01   1.00800           0
     14719 MEMB     124      POPC     H4Y      HAL2     0.900000E-01   1.00800           0
     14720 MEMB     124      POPC     C35      CTL2    -0.180000       12.0110           0
     14721 MEMB     124      POPC     H5X      HAL2     0.900000E-01   1.00800           0
     14722 MEMB     124      POPC     H5Y      HAL2     0.900000E-01   1.00800           0
     14723 MEMB     124      POPC     C36      CTL2    -0.180000       12.0110           0
     14724 MEMB     124      POPC     H6X      HAL2     0.900000E-01   1.00800           0
     14725 MEMB     124      POPC     H6Y      HAL2     0.900000E-01   1.00800           0
     14726 MEMB     124      POPC     C37      CTL2    -0.180000       12.0110           0
     14727 MEMB     124      POPC     H7X      HAL2     0.900000E-01   1.00800           0
     14728 MEMB     124      POPC     H7Y      HAL2     0.900000E-01   1.00800           0
     14729 MEMB     124      POPC     C38      CTL2    -0.180000       12.0110           0
     14730 MEMB     124      POPC     H8X      HAL2     0.900000E-01   1.00800           0
     14731 MEMB     124      POPC     H8Y      HAL2     0.900000E-01   1.00800           0
     14732 MEMB     124      POPC     C39      CTL2    -0.180000       12.0110           0
     14733 MEMB     124      POPC     H9X      HAL2     0.900000E-01   1.00800           0
     14734 MEMB     124      POPC     H9Y      HAL2     0.900000E-01   1.00800           0
     14735 MEMB     124      POPC     C310     CTL2    -0.180000       12.0110           0
     14736 MEMB     124      POPC     H10X     HAL2     0.900000E-01   1.00800           0
     14737 MEMB     124      POPC     H10Y     HAL2     0.900000E-01   1.00800           0
     14738 MEMB     124      POPC     C311     CTL2    -0.180000       12.0110           0
     14739 MEMB     124      POPC     H11X     HAL2     0.900000E-01   1.00800           0
     14740 MEMB     124      POPC     H11Y     HAL2     0.900000E-01   1.00800           0
     14741 MEMB     124      POPC     C312     CTL2    -0.180000       12.0110           0
     14742 MEMB     124      POPC     H12X     HAL2     0.900000E-01   1.00800           0
     14743 MEMB     124      POPC     H12Y     HAL2     0.900000E-01   1.00800           0
     14744 MEMB     124      POPC     C313     CTL2    -0.180000       12.0110           0
     14745 MEMB     124      POPC     H13X     HAL2     0.900000E-01   1.00800           0
     14746 MEMB     124      POPC     H13Y     HAL2     0.900000E-01   1.00800           0
     14747 MEMB     124      POPC     C314     CTL2    -0.180000       12.0110           0
     14748 MEMB     124      POPC     H14X     HAL2     0.900000E-01   1.00800           0
     14749 MEMB     124      POPC     H14Y     HAL2     0.900000E-01   1.00800           0
     14750 MEMB     124      POPC     C315     CTL2    -0.180000       12.0110           0
     14751 MEMB     124      POPC     H15X     HAL2     0.900000E-01   1.00800           0
     14752 MEMB     124      POPC     H15Y     HAL2     0.900000E-01   1.00800           0
     14753 MEMB     124      POPC     C316     CTL3    -0.270000       12.0110           0
     14754 MEMB     124      POPC     H16X     HAL3     0.900000E-01   1.00800           0
     14755 MEMB     124      POPC     H16Y     HAL3     0.900000E-01   1.00800           0
     14756 MEMB     124      POPC     H16Z     HAL3     0.900000E-01   1.00800           0
     14757 MEMB     125      POPC     N        NTL     -0.600000       14.0070           0
     14758 MEMB     125      POPC     C12      CTL2    -0.100000       12.0110           0
     14759 MEMB     125      POPC     H12A     HL       0.250000       1.00800           0
     14760 MEMB     125      POPC     H12B     HL       0.250000       1.00800           0
     14761 MEMB     125      POPC     C13      CTL5    -0.350000       12.0110           0
     14762 MEMB     125      POPC     H13A     HL       0.250000       1.00800           0
     14763 MEMB     125      POPC     H13B     HL       0.250000       1.00800           0
     14764 MEMB     125      POPC     H13C     HL       0.250000       1.00800           0
     14765 MEMB     125      POPC     C14      CTL5    -0.350000       12.0110           0
     14766 MEMB     125      POPC     H14A     HL       0.250000       1.00800           0
     14767 MEMB     125      POPC     H14B     HL       0.250000       1.00800           0
     14768 MEMB     125      POPC     H14C     HL       0.250000       1.00800           0
     14769 MEMB     125      POPC     C15      CTL5    -0.350000       12.0110           0
     14770 MEMB     125      POPC     H15A     HL       0.250000       1.00800           0
     14771 MEMB     125      POPC     H15B     HL       0.250000       1.00800           0
     14772 MEMB     125      POPC     H15C     HL       0.250000       1.00800           0
     14773 MEMB     125      POPC     C11      CTL2    -0.800000E-01   12.0110           0
     14774 MEMB     125      POPC     H11A     HAL2     0.900000E-01   1.00800           0
     14775 MEMB     125      POPC     H11B     HAL2     0.900000E-01   1.00800           0
     14776 MEMB     125      POPC     P        PL        1.50000       30.9740           0
     14777 MEMB     125      POPC     O13      O2L     -0.780000       15.9994           0
     14778 MEMB     125      POPC     O14      O2L     -0.780000       15.9994           0
     14779 MEMB     125      POPC     O12      OSLP    -0.570000       15.9994           0
     14780 MEMB     125      POPC     O11      OSLP    -0.570000       15.9994           0
     14781 MEMB     125      POPC     C1       CTL2    -0.800000E-01   12.0110           0
     14782 MEMB     125      POPC     HA       HAL2     0.900000E-01   1.00800           0
     14783 MEMB     125      POPC     HB       HAL2     0.900000E-01   1.00800           0
     14784 MEMB     125      POPC     C2       CTL1     0.170000       12.0110           0
     14785 MEMB     125      POPC     HS       HAL1     0.900000E-01   1.00800           0
     14786 MEMB     125      POPC     O21      OSL     -0.490000       15.9994           0
     14787 MEMB     125      POPC     C21      CL       0.900000       12.0110           0
     14788 MEMB     125      POPC     O22      OBL     -0.630000       15.9994           0
     14789 MEMB     125      POPC     C22      CTL2    -0.220000       12.0110           0
     14790 MEMB     125      POPC     H2R      HAL2     0.900000E-01   1.00800           0
     14791 MEMB     125      POPC     H2S      HAL2     0.900000E-01   1.00800           0
     14792 MEMB     125      POPC     C3       CTL2     0.800000E-01   12.0110           0
     14793 MEMB     125      POPC     HX       HAL2     0.900000E-01   1.00800           0
     14794 MEMB     125      POPC     HY       HAL2     0.900000E-01   1.00800           0
     14795 MEMB     125      POPC     O31      OSL     -0.490000       15.9994           0
     14796 MEMB     125      POPC     C31      CL       0.900000       12.0110           0
     14797 MEMB     125      POPC     O32      OBL     -0.630000       15.9994           0
     14798 MEMB     125      POPC     C32      CTL2    -0.220000       12.0110           0
     14799 MEMB     125      POPC     H2X      HAL2     0.900000E-01   1.00800           0
     14800 MEMB     125      POPC     H2Y      HAL2     0.900000E-01   1.00800           0
     14801 MEMB     125      POPC     C23      CTL2    -0.180000       12.0110           0
     14802 MEMB     125      POPC     H3R      HAL2     0.900000E-01   1.00800           0
     14803 MEMB     125      POPC     H3S      HAL2     0.900000E-01   1.00800           0
     14804 MEMB     125      POPC     C24      CTL2    -0.180000       12.0110           0
     14805 MEMB     125      POPC     H4R      HAL2     0.900000E-01   1.00800           0
     14806 MEMB     125      POPC     H4S      HAL2     0.900000E-01   1.00800           0
     14807 MEMB     125      POPC     C25      CTL2    -0.180000       12.0110           0
     14808 MEMB     125      POPC     H5R      HAL2     0.900000E-01   1.00800           0
     14809 MEMB     125      POPC     H5S      HAL2     0.900000E-01   1.00800           0
     14810 MEMB     125      POPC     C26      CTL2    -0.180000       12.0110           0
     14811 MEMB     125      POPC     H6R      HAL2     0.900000E-01   1.00800           0
     14812 MEMB     125      POPC     H6S      HAL2     0.900000E-01   1.00800           0
     14813 MEMB     125      POPC     C27      CTL2    -0.180000       12.0110           0
     14814 MEMB     125      POPC     H7R      HAL2     0.900000E-01   1.00800           0
     14815 MEMB     125      POPC     H7S      HAL2     0.900000E-01   1.00800           0
     14816 MEMB     125      POPC     C28      CTL2    -0.180000       12.0110           0
     14817 MEMB     125      POPC     H8R      HAL2     0.900000E-01   1.00800           0
     14818 MEMB     125      POPC     H8S      HAL2     0.900000E-01   1.00800           0
     14819 MEMB     125      POPC     C29      CEL1    -0.150000       12.0110           0
     14820 MEMB     125      POPC     H91      HEL1     0.150000       1.00800           0
     14821 MEMB     125      POPC     C210     CEL1    -0.150000       12.0110           0
     14822 MEMB     125      POPC     H101     HEL1     0.150000       1.00800           0
     14823 MEMB     125      POPC     C211     CTL2    -0.180000       12.0110           0
     14824 MEMB     125      POPC     H11R     HAL2     0.900000E-01   1.00800           0
     14825 MEMB     125      POPC     H11S     HAL2     0.900000E-01   1.00800           0
     14826 MEMB     125      POPC     C212     CTL2    -0.180000       12.0110           0
     14827 MEMB     125      POPC     H12R     HAL2     0.900000E-01   1.00800           0
     14828 MEMB     125      POPC     H12S     HAL2     0.900000E-01   1.00800           0
     14829 MEMB     125      POPC     C213     CTL2    -0.180000       12.0110           0
     14830 MEMB     125      POPC     H13R     HAL2     0.900000E-01   1.00800           0
     14831 MEMB     125      POPC     H13S     HAL2     0.900000E-01   1.00800           0
     14832 MEMB     125      POPC     C214     CTL2    -0.180000       12.0110           0
     14833 MEMB     125      POPC     H14R     HAL2     0.900000E-01   1.00800           0
     14834 MEMB     125      POPC     H14S     HAL2     0.900000E-01   1.00800           0
     14835 MEMB     125      POPC     C215     CTL2    -0.180000       12.0110           0
     14836 MEMB     125      POPC     H15R     HAL2     0.900000E-01   1.00800           0
     14837 MEMB     125      POPC     H15S     HAL2     0.900000E-01   1.00800           0
     14838 MEMB     125      POPC     C216     CTL2    -0.180000       12.0110           0
     14839 MEMB     125      POPC     H16R     HAL2     0.900000E-01   1.00800           0
     14840 MEMB     125      POPC     H16S     HAL2     0.900000E-01   1.00800           0
     14841 MEMB     125      POPC     C217     CTL2    -0.180000       12.0110           0
     14842 MEMB     125      POPC     H17R     HAL2     0.900000E-01   1.00800           0
     14843 MEMB     125      POPC     H17S     HAL2     0.900000E-01   1.00800           0
     14844 MEMB     125      POPC     C218     CTL3    -0.270000       12.0110           0
     14845 MEMB     125      POPC     H18R     HAL3     0.900000E-01   1.00800           0
     14846 MEMB     125      POPC     H18S     HAL3     0.900000E-01   1.00800           0
     14847 MEMB     125      POPC     H18T     HAL3     0.900000E-01   1.00800           0
     14848 MEMB     125      POPC     C33      CTL2    -0.180000       12.0110           0
     14849 MEMB     125      POPC     H3X      HAL2     0.900000E-01   1.00800           0
     14850 MEMB     125      POPC     H3Y      HAL2     0.900000E-01   1.00800           0
     14851 MEMB     125      POPC     C34      CTL2    -0.180000       12.0110           0
     14852 MEMB     125      POPC     H4X      HAL2     0.900000E-01   1.00800           0
     14853 MEMB     125      POPC     H4Y      HAL2     0.900000E-01   1.00800           0
     14854 MEMB     125      POPC     C35      CTL2    -0.180000       12.0110           0
     14855 MEMB     125      POPC     H5X      HAL2     0.900000E-01   1.00800           0
     14856 MEMB     125      POPC     H5Y      HAL2     0.900000E-01   1.00800           0
     14857 MEMB     125      POPC     C36      CTL2    -0.180000       12.0110           0
     14858 MEMB     125      POPC     H6X      HAL2     0.900000E-01   1.00800           0
     14859 MEMB     125      POPC     H6Y      HAL2     0.900000E-01   1.00800           0
     14860 MEMB     125      POPC     C37      CTL2    -0.180000       12.0110           0
     14861 MEMB     125      POPC     H7X      HAL2     0.900000E-01   1.00800           0
     14862 MEMB     125      POPC     H7Y      HAL2     0.900000E-01   1.00800           0
     14863 MEMB     125      POPC     C38      CTL2    -0.180000       12.0110           0
     14864 MEMB     125      POPC     H8X      HAL2     0.900000E-01   1.00800           0
     14865 MEMB     125      POPC     H8Y      HAL2     0.900000E-01   1.00800           0
     14866 MEMB     125      POPC     C39      CTL2    -0.180000       12.0110           0
     14867 MEMB     125      POPC     H9X      HAL2     0.900000E-01   1.00800           0
     14868 MEMB     125      POPC     H9Y      HAL2     0.900000E-01   1.00800           0
     14869 MEMB     125      POPC     C310     CTL2    -0.180000       12.0110           0
     14870 MEMB     125      POPC     H10X     HAL2     0.900000E-01   1.00800           0
     14871 MEMB     125      POPC     H10Y     HAL2     0.900000E-01   1.00800           0
     14872 MEMB     125      POPC     C311     CTL2    -0.180000       12.0110           0
     14873 MEMB     125      POPC     H11X     HAL2     0.900000E-01   1.00800           0
     14874 MEMB     125      POPC     H11Y     HAL2     0.900000E-01   1.00800           0
     14875 MEMB     125      POPC     C312     CTL2    -0.180000       12.0110           0
     14876 MEMB     125      POPC     H12X     HAL2     0.900000E-01   1.00800           0
     14877 MEMB     125      POPC     H12Y     HAL2     0.900000E-01   1.00800           0
     14878 MEMB     125      POPC     C313     CTL2    -0.180000       12.0110           0
     14879 MEMB     125      POPC     H13X     HAL2     0.900000E-01   1.00800           0
     14880 MEMB     125      POPC     H13Y     HAL2     0.900000E-01   1.00800           0
     14881 MEMB     125      POPC     C314     CTL2    -0.180000       12.0110           0
     14882 MEMB     125      POPC     H14X     HAL2     0.900000E-01   1.00800           0
     14883 MEMB     125      POPC     H14Y     HAL2     0.900000E-01   1.00800           0
     14884 MEMB     125      POPC     C315     CTL2    -0.180000       12.0110           0
     14885 MEMB     125      POPC     H15X     HAL2     0.900000E-01   1.00800           0
     14886 MEMB     125      POPC     H15Y     HAL2     0.900000E-01   1.00800           0
     14887 MEMB     125      POPC     C316     CTL3    -0.270000       12.0110           0
     14888 MEMB     125      POPC     H16X     HAL3     0.900000E-01   1.00800           0
     14889 MEMB     125      POPC     H16Y     HAL3     0.900000E-01   1.00800           0
     14890 MEMB     125      POPC     H16Z     HAL3     0.900000E-01   1.00800           0
     14891 MEMB     126      POPC     N        NTL     -0.600000       14.0070           0
     14892 MEMB     126      POPC     C12      CTL2    -0.100000       12.0110           0
     14893 MEMB     126      POPC     H12A     HL       0.250000       1.00800           0
     14894 MEMB     126      POPC     H12B     HL       0.250000       1.00800           0
     14895 MEMB     126      POPC     C13      CTL5    -0.350000       12.0110           0
     14896 MEMB     126      POPC     H13A     HL       0.250000       1.00800           0
     14897 MEMB     126      POPC     H13B     HL       0.250000       1.00800           0
     14898 MEMB     126      POPC     H13C     HL       0.250000       1.00800           0
     14899 MEMB     126      POPC     C14      CTL5    -0.350000       12.0110           0
     14900 MEMB     126      POPC     H14A     HL       0.250000       1.00800           0
     14901 MEMB     126      POPC     H14B     HL       0.250000       1.00800           0
     14902 MEMB     126      POPC     H14C     HL       0.250000       1.00800           0
     14903 MEMB     126      POPC     C15      CTL5    -0.350000       12.0110           0
     14904 MEMB     126      POPC     H15A     HL       0.250000       1.00800           0
     14905 MEMB     126      POPC     H15B     HL       0.250000       1.00800           0
     14906 MEMB     126      POPC     H15C     HL       0.250000       1.00800           0
     14907 MEMB     126      POPC     C11      CTL2    -0.800000E-01   12.0110           0
     14908 MEMB     126      POPC     H11A     HAL2     0.900000E-01   1.00800           0
     14909 MEMB     126      POPC     H11B     HAL2     0.900000E-01   1.00800           0
     14910 MEMB     126      POPC     P        PL        1.50000       30.9740           0
     14911 MEMB     126      POPC     O13      O2L     -0.780000       15.9994           0
     14912 MEMB     126      POPC     O14      O2L     -0.780000       15.9994           0
     14913 MEMB     126      POPC     O12      OSLP    -0.570000       15.9994           0
     14914 MEMB     126      POPC     O11      OSLP    -0.570000       15.9994           0
     14915 MEMB     126      POPC     C1       CTL2    -0.800000E-01   12.0110           0
     14916 MEMB     126      POPC     HA       HAL2     0.900000E-01   1.00800           0
     14917 MEMB     126      POPC     HB       HAL2     0.900000E-01   1.00800           0
     14918 MEMB     126      POPC     C2       CTL1     0.170000       12.0110           0
     14919 MEMB     126      POPC     HS       HAL1     0.900000E-01   1.00800           0
     14920 MEMB     126      POPC     O21      OSL     -0.490000       15.9994           0
     14921 MEMB     126      POPC     C21      CL       0.900000       12.0110           0
     14922 MEMB     126      POPC     O22      OBL     -0.630000       15.9994           0
     14923 MEMB     126      POPC     C22      CTL2    -0.220000       12.0110           0
     14924 MEMB     126      POPC     H2R      HAL2     0.900000E-01   1.00800           0
     14925 MEMB     126      POPC     H2S      HAL2     0.900000E-01   1.00800           0
     14926 MEMB     126      POPC     C3       CTL2     0.800000E-01   12.0110           0
     14927 MEMB     126      POPC     HX       HAL2     0.900000E-01   1.00800           0
     14928 MEMB     126      POPC     HY       HAL2     0.900000E-01   1.00800           0
     14929 MEMB     126      POPC     O31      OSL     -0.490000       15.9994           0
     14930 MEMB     126      POPC     C31      CL       0.900000       12.0110           0
     14931 MEMB     126      POPC     O32      OBL     -0.630000       15.9994           0
     14932 MEMB     126      POPC     C32      CTL2    -0.220000       12.0110           0
     14933 MEMB     126      POPC     H2X      HAL2     0.900000E-01   1.00800           0
     14934 MEMB     126      POPC     H2Y      HAL2     0.900000E-01   1.00800           0
     14935 MEMB     126      POPC     C23      CTL2    -0.180000       12.0110           0
     14936 MEMB     126      POPC     H3R      HAL2     0.900000E-01   1.00800           0
     14937 MEMB     126      POPC     H3S      HAL2     0.900000E-01   1.00800           0
     14938 MEMB     126      POPC     C24      CTL2    -0.180000       12.0110           0
     14939 MEMB     126      POPC     H4R      HAL2     0.900000E-01   1.00800           0
     14940 MEMB     126      POPC     H4S      HAL2     0.900000E-01   1.00800           0
     14941 MEMB     126      POPC     C25      CTL2    -0.180000       12.0110           0
     14942 MEMB     126      POPC     H5R      HAL2     0.900000E-01   1.00800           0
     14943 MEMB     126      POPC     H5S      HAL2     0.900000E-01   1.00800           0
     14944 MEMB     126      POPC     C26      CTL2    -0.180000       12.0110           0
     14945 MEMB     126      POPC     H6R      HAL2     0.900000E-01   1.00800           0
     14946 MEMB     126      POPC     H6S      HAL2     0.900000E-01   1.00800           0
     14947 MEMB     126      POPC     C27      CTL2    -0.180000       12.0110           0
     14948 MEMB     126      POPC     H7R      HAL2     0.900000E-01   1.00800           0
     14949 MEMB     126      POPC     H7S      HAL2     0.900000E-01   1.00800           0
     14950 MEMB     126      POPC     C28      CTL2    -0.180000       12.0110           0
     14951 MEMB     126      POPC     H8R      HAL2     0.900000E-01   1.00800           0
     14952 MEMB     126      POPC     H8S      HAL2     0.900000E-01   1.00800           0
     14953 MEMB     126      POPC     C29      CEL1    -0.150000       12.0110           0
     14954 MEMB     126      POPC     H91      HEL1     0.150000       1.00800           0
     14955 MEMB     126      POPC     C210     CEL1    -0.150000       12.0110           0
     14956 MEMB     126      POPC     H101     HEL1     0.150000       1.00800           0
     14957 MEMB     126      POPC     C211     CTL2    -0.180000       12.0110           0
     14958 MEMB     126      POPC     H11R     HAL2     0.900000E-01   1.00800           0
     14959 MEMB     126      POPC     H11S     HAL2     0.900000E-01   1.00800           0
     14960 MEMB     126      POPC     C212     CTL2    -0.180000       12.0110           0
     14961 MEMB     126      POPC     H12R     HAL2     0.900000E-01   1.00800           0
     14962 MEMB     126      POPC     H12S     HAL2     0.900000E-01   1.00800           0
     14963 MEMB     126      POPC     C213     CTL2    -0.180000       12.0110           0
     14964 MEMB     126      POPC     H13R     HAL2     0.900000E-01   1.00800           0
     14965 MEMB     126      POPC     H13S     HAL2     0.900000E-01   1.00800           0
     14966 MEMB     126      POPC     C214     CTL2    -0.180000       12.0110           0
     14967 MEMB     126      POPC     H14R     HAL2     0.900000E-01   1.00800           0
     14968 MEMB     126      POPC     H14S     HAL2     0.900000E-01   1.00800           0
     14969 MEMB     126      POPC     C215     CTL2    -0.180000       12.0110           0
     14970 MEMB     126      POPC     H15R     HAL2     0.900000E-01   1.00800           0
     14971 MEMB     126      POPC     H15S     HAL2     0.900000E-01   1.00800           0
     14972 MEMB     126      POPC     C216     CTL2    -0.180000       12.0110           0
     14973 MEMB     126      POPC     H16R     HAL2     0.900000E-01   1.00800           0
     14974 MEMB     126      POPC     H16S     HAL2     0.900000E-01   1.00800           0
     14975 MEMB     126      POPC     C217     CTL2    -0.180000       12.0110           0
     14976 MEMB     126      POPC     H17R     HAL2     0.900000E-01   1.00800           0
     14977 MEMB     126      POPC     H17S     HAL2     0.900000E-01   1.00800           0
     14978 MEMB     126      POPC     C218     CTL3    -0.270000       12.0110           0
     14979 MEMB     126      POPC     H18R     HAL3     0.900000E-01   1.00800           0
     14980 MEMB     126      POPC     H18S     HAL3     0.900000E-01   1.00800           0
     14981 MEMB     126      POPC     H18T     HAL3     0.900000E-01   1.00800           0
     14982 MEMB     126      POPC     C33      CTL2    -0.180000       12.0110           0
     14983 MEMB     126      POPC     H3X      HAL2     0.900000E-01   1.00800           0
     14984 MEMB     126      POPC     H3Y      HAL2     0.900000E-01   1.00800           0
     14985 MEMB     126      POPC     C34      CTL2    -0.180000       12.0110           0
     14986 MEMB     126      POPC     H4X      HAL2     0.900000E-01   1.00800           0
     14987 MEMB     126      POPC     H4Y      HAL2     0.900000E-01   1.00800           0
     14988 MEMB     126      POPC     C35      CTL2    -0.180000       12.0110           0
     14989 MEMB     126      POPC     H5X      HAL2     0.900000E-01   1.00800           0
     14990 MEMB     126      POPC     H5Y      HAL2     0.900000E-01   1.00800           0
     14991 MEMB     126      POPC     C36      CTL2    -0.180000       12.0110           0
     14992 MEMB     126      POPC     H6X      HAL2     0.900000E-01   1.00800           0
     14993 MEMB     126      POPC     H6Y      HAL2     0.900000E-01   1.00800           0
     14994 MEMB     126      POPC     C37      CTL2    -0.180000       12.0110           0
     14995 MEMB     126      POPC     H7X      HAL2     0.900000E-01   1.00800           0
     14996 MEMB     126      POPC     H7Y      HAL2     0.900000E-01   1.00800           0
     14997 MEMB     126      POPC     C38      CTL2    -0.180000       12.0110           0
     14998 MEMB     126      POPC     H8X      HAL2     0.900000E-01   1.00800           0
     14999 MEMB     126      POPC     H8Y      HAL2     0.900000E-01   1.00800           0
     15000 MEMB     126      POPC     C39      CTL2    -0.180000       12.0110           0
     15001 MEMB     126      POPC     H9X      HAL2     0.900000E-01   1.00800           0
     15002 MEMB     126      POPC     H9Y      HAL2     0.900000E-01   1.00800           0
     15003 MEMB     126      POPC     C310     CTL2    -0.180000       12.0110           0
     15004 MEMB     126      POPC     H10X     HAL2     0.900000E-01   1.00800           0
     15005 MEMB     126      POPC     H10Y     HAL2     0.900000E-01   1.00800           0
     15006 MEMB     126      POPC     C311     CTL2    -0.180000       12.0110           0
     15007 MEMB     126      POPC     H11X     HAL2     0.900000E-01   1.00800           0
     15008 MEMB     126      POPC     H11Y     HAL2     0.900000E-01   1.00800           0
     15009 MEMB     126      POPC     C312     CTL2    -0.180000       12.0110           0
     15010 MEMB     126      POPC     H12X     HAL2     0.900000E-01   1.00800           0
     15011 MEMB     126      POPC     H12Y     HAL2     0.900000E-01   1.00800           0
     15012 MEMB     126      POPC     C313     CTL2    -0.180000       12.0110           0
     15013 MEMB     126      POPC     H13X     HAL2     0.900000E-01   1.00800           0
     15014 MEMB     126      POPC     H13Y     HAL2     0.900000E-01   1.00800           0
     15015 MEMB     126      POPC     C314     CTL2    -0.180000       12.0110           0
     15016 MEMB     126      POPC     H14X     HAL2     0.900000E-01   1.00800           0
     15017 MEMB     126      POPC     H14Y     HAL2     0.900000E-01   1.00800           0
     15018 MEMB     126      POPC     C315     CTL2    -0.180000       12.0110           0
     15019 MEMB     126      POPC     H15X     HAL2     0.900000E-01   1.00800           0
     15020 MEMB     126      POPC     H15Y     HAL2     0.900000E-01   1.00800           0
     15021 MEMB     126      POPC     C316     CTL3    -0.270000       12.0110           0
     15022 MEMB     126      POPC     H16X     HAL3     0.900000E-01   1.00800           0
     15023 MEMB     126      POPC     H16Y     HAL3     0.900000E-01   1.00800           0
     15024 MEMB     126      POPC     H16Z     HAL3     0.900000E-01   1.00800           0
     15025 MEMB     127      POPC     N        NTL     -0.600000       14.0070           0
     15026 MEMB     127      POPC     C12      CTL2    -0.100000       12.0110           0
     15027 MEMB     127      POPC     H12A     HL       0.250000       1.00800           0
     15028 MEMB     127      POPC     H12B     HL       0.250000       1.00800           0
     15029 MEMB     127      POPC     C13      CTL5    -0.350000       12.0110           0
     15030 MEMB     127      POPC     H13A     HL       0.250000       1.00800           0
     15031 MEMB     127      POPC     H13B     HL       0.250000       1.00800           0
     15032 MEMB     127      POPC     H13C     HL       0.250000       1.00800           0
     15033 MEMB     127      POPC     C14      CTL5    -0.350000       12.0110           0
     15034 MEMB     127      POPC     H14A     HL       0.250000       1.00800           0
     15035 MEMB     127      POPC     H14B     HL       0.250000       1.00800           0
     15036 MEMB     127      POPC     H14C     HL       0.250000       1.00800           0
     15037 MEMB     127      POPC     C15      CTL5    -0.350000       12.0110           0
     15038 MEMB     127      POPC     H15A     HL       0.250000       1.00800           0
     15039 MEMB     127      POPC     H15B     HL       0.250000       1.00800           0
     15040 MEMB     127      POPC     H15C     HL       0.250000       1.00800           0
     15041 MEMB     127      POPC     C11      CTL2    -0.800000E-01   12.0110           0
     15042 MEMB     127      POPC     H11A     HAL2     0.900000E-01   1.00800           0
     15043 MEMB     127      POPC     H11B     HAL2     0.900000E-01   1.00800           0
     15044 MEMB     127      POPC     P        PL        1.50000       30.9740           0
     15045 MEMB     127      POPC     O13      O2L     -0.780000       15.9994           0
     15046 MEMB     127      POPC     O14      O2L     -0.780000       15.9994           0
     15047 MEMB     127      POPC     O12      OSLP    -0.570000       15.9994           0
     15048 MEMB     127      POPC     O11      OSLP    -0.570000       15.9994           0
     15049 MEMB     127      POPC     C1       CTL2    -0.800000E-01   12.0110           0
     15050 MEMB     127      POPC     HA       HAL2     0.900000E-01   1.00800           0
     15051 MEMB     127      POPC     HB       HAL2     0.900000E-01   1.00800           0
     15052 MEMB     127      POPC     C2       CTL1     0.170000       12.0110           0
     15053 MEMB     127      POPC     HS       HAL1     0.900000E-01   1.00800           0
     15054 MEMB     127      POPC     O21      OSL     -0.490000       15.9994           0
     15055 MEMB     127      POPC     C21      CL       0.900000       12.0110           0
     15056 MEMB     127      POPC     O22      OBL     -0.630000       15.9994           0
     15057 MEMB     127      POPC     C22      CTL2    -0.220000       12.0110           0
     15058 MEMB     127      POPC     H2R      HAL2     0.900000E-01   1.00800           0
     15059 MEMB     127      POPC     H2S      HAL2     0.900000E-01   1.00800           0
     15060 MEMB     127      POPC     C3       CTL2     0.800000E-01   12.0110           0
     15061 MEMB     127      POPC     HX       HAL2     0.900000E-01   1.00800           0
     15062 MEMB     127      POPC     HY       HAL2     0.900000E-01   1.00800           0
     15063 MEMB     127      POPC     O31      OSL     -0.490000       15.9994           0
     15064 MEMB     127      POPC     C31      CL       0.900000       12.0110           0
     15065 MEMB     127      POPC     O32      OBL     -0.630000       15.9994           0
     15066 MEMB     127      POPC     C32      CTL2    -0.220000       12.0110           0
     15067 MEMB     127      POPC     H2X      HAL2     0.900000E-01   1.00800           0
     15068 MEMB     127      POPC     H2Y      HAL2     0.900000E-01   1.00800           0
     15069 MEMB     127      POPC     C23      CTL2    -0.180000       12.0110           0
     15070 MEMB     127      POPC     H3R      HAL2     0.900000E-01   1.00800           0
     15071 MEMB     127      POPC     H3S      HAL2     0.900000E-01   1.00800           0
     15072 MEMB     127      POPC     C24      CTL2    -0.180000       12.0110           0
     15073 MEMB     127      POPC     H4R      HAL2     0.900000E-01   1.00800           0
     15074 MEMB     127      POPC     H4S      HAL2     0.900000E-01   1.00800           0
     15075 MEMB     127      POPC     C25      CTL2    -0.180000       12.0110           0
     15076 MEMB     127      POPC     H5R      HAL2     0.900000E-01   1.00800           0
     15077 MEMB     127      POPC     H5S      HAL2     0.900000E-01   1.00800           0
     15078 MEMB     127      POPC     C26      CTL2    -0.180000       12.0110           0
     15079 MEMB     127      POPC     H6R      HAL2     0.900000E-01   1.00800           0
     15080 MEMB     127      POPC     H6S      HAL2     0.900000E-01   1.00800           0
     15081 MEMB     127      POPC     C27      CTL2    -0.180000       12.0110           0
     15082 MEMB     127      POPC     H7R      HAL2     0.900000E-01   1.00800           0
     15083 MEMB     127      POPC     H7S      HAL2     0.900000E-01   1.00800           0
     15084 MEMB     127      POPC     C28      CTL2    -0.180000       12.0110           0
     15085 MEMB     127      POPC     H8R      HAL2     0.900000E-01   1.00800           0
     15086 MEMB     127      POPC     H8S      HAL2     0.900000E-01   1.00800           0
     15087 MEMB     127      POPC     C29      CEL1    -0.150000       12.0110           0
     15088 MEMB     127      POPC     H91      HEL1     0.150000       1.00800           0
     15089 MEMB     127      POPC     C210     CEL1    -0.150000       12.0110           0
     15090 MEMB     127      POPC     H101     HEL1     0.150000       1.00800           0
     15091 MEMB     127      POPC     C211     CTL2    -0.180000       12.0110           0
     15092 MEMB     127      POPC     H11R     HAL2     0.900000E-01   1.00800           0
     15093 MEMB     127      POPC     H11S     HAL2     0.900000E-01   1.00800           0
     15094 MEMB     127      POPC     C212     CTL2    -0.180000       12.0110           0
     15095 MEMB     127      POPC     H12R     HAL2     0.900000E-01   1.00800           0
     15096 MEMB     127      POPC     H12S     HAL2     0.900000E-01   1.00800           0
     15097 MEMB     127      POPC     C213     CTL2    -0.180000       12.0110           0
     15098 MEMB     127      POPC     H13R     HAL2     0.900000E-01   1.00800           0
     15099 MEMB     127      POPC     H13S     HAL2     0.900000E-01   1.00800           0
     15100 MEMB     127      POPC     C214     CTL2    -0.180000       12.0110           0
     15101 MEMB     127      POPC     H14R     HAL2     0.900000E-01   1.00800           0
     15102 MEMB     127      POPC     H14S     HAL2     0.900000E-01   1.00800           0
     15103 MEMB     127      POPC     C215     CTL2    -0.180000       12.0110           0
     15104 MEMB     127      POPC     H15R     HAL2     0.900000E-01   1.00800           0
     15105 MEMB     127      POPC     H15S     HAL2     0.900000E-01   1.00800           0
     15106 MEMB     127      POPC     C216     CTL2    -0.180000       12.0110           0
     15107 MEMB     127      POPC     H16R     HAL2     0.900000E-01   1.00800           0
     15108 MEMB     127      POPC     H16S     HAL2     0.900000E-01   1.00800           0
     15109 MEMB     127      POPC     C217     CTL2    -0.180000       12.0110           0
     15110 MEMB     127      POPC     H17R     HAL2     0.900000E-01   1.00800           0
     15111 MEMB     127      POPC     H17S     HAL2     0.900000E-01   1.00800           0
     15112 MEMB     127      POPC     C218     CTL3    -0.270000       12.0110           0
     15113 MEMB     127      POPC     H18R     HAL3     0.900000E-01   1.00800           0
     15114 MEMB     127      POPC     H18S     HAL3     0.900000E-01   1.00800           0
     15115 MEMB     127      POPC     H18T     HAL3     0.900000E-01   1.00800           0
     15116 MEMB     127      POPC     C33      CTL2    -0.180000       12.0110           0
     15117 MEMB     127      POPC     H3X      HAL2     0.900000E-01   1.00800           0
     15118 MEMB     127      POPC     H3Y      HAL2     0.900000E-01   1.00800           0
     15119 MEMB     127      POPC     C34      CTL2    -0.180000       12.0110           0
     15120 MEMB     127      POPC     H4X      HAL2     0.900000E-01   1.00800           0
     15121 MEMB     127      POPC     H4Y      HAL2     0.900000E-01   1.00800           0
     15122 MEMB     127      POPC     C35      CTL2    -0.180000       12.0110           0
     15123 MEMB     127      POPC     H5X      HAL2     0.900000E-01   1.00800           0
     15124 MEMB     127      POPC     H5Y      HAL2     0.900000E-01   1.00800           0
     15125 MEMB     127      POPC     C36      CTL2    -0.180000       12.0110           0
     15126 MEMB     127      POPC     H6X      HAL2     0.900000E-01   1.00800           0
     15127 MEMB     127      POPC     H6Y      HAL2     0.900000E-01   1.00800           0
     15128 MEMB     127      POPC     C37      CTL2    -0.180000       12.0110           0
     15129 MEMB     127      POPC     H7X      HAL2     0.900000E-01   1.00800           0
     15130 MEMB     127      POPC     H7Y      HAL2     0.900000E-01   1.00800           0
     15131 MEMB     127      POPC     C38      CTL2    -0.180000       12.0110           0
     15132 MEMB     127      POPC     H8X      HAL2     0.900000E-01   1.00800           0
     15133 MEMB     127      POPC     H8Y      HAL2     0.900000E-01   1.00800           0
     15134 MEMB     127      POPC     C39      CTL2    -0.180000       12.0110           0
     15135 MEMB     127      POPC     H9X      HAL2     0.900000E-01   1.00800           0
     15136 MEMB     127      POPC     H9Y      HAL2     0.900000E-01   1.00800           0
     15137 MEMB     127      POPC     C310     CTL2    -0.180000       12.0110           0
     15138 MEMB     127      POPC     H10X     HAL2     0.900000E-01   1.00800           0
     15139 MEMB     127      POPC     H10Y     HAL2     0.900000E-01   1.00800           0
     15140 MEMB     127      POPC     C311     CTL2    -0.180000       12.0110           0
     15141 MEMB     127      POPC     H11X     HAL2     0.900000E-01   1.00800           0
     15142 MEMB     127      POPC     H11Y     HAL2     0.900000E-01   1.00800           0
     15143 MEMB     127      POPC     C312     CTL2    -0.180000       12.0110           0
     15144 MEMB     127      POPC     H12X     HAL2     0.900000E-01   1.00800           0
     15145 MEMB     127      POPC     H12Y     HAL2     0.900000E-01   1.00800           0
     15146 MEMB     127      POPC     C313     CTL2    -0.180000       12.0110           0
     15147 MEMB     127      POPC     H13X     HAL2     0.900000E-01   1.00800           0
     15148 MEMB     127      POPC     H13Y     HAL2     0.900000E-01   1.00800           0
     15149 MEMB     127      POPC     C314     CTL2    -0.180000       12.0110           0
     15150 MEMB     127      POPC     H14X     HAL2     0.900000E-01   1.00800           0
     15151 MEMB     127      POPC     H14Y     HAL2     0.900000E-01   1.00800           0
     15152 MEMB     127      POPC     C315     CTL2    -0.180000       12.0110           0
     15153 MEMB     127      POPC     H15X     HAL2     0.900000E-01   1.00800           0
     15154 MEMB     127      POPC     H15Y     HAL2     0.900000E-01   1.00800           0
     15155 MEMB     127      POPC     C316     CTL3    -0.270000       12.0110           0
     15156 MEMB     127      POPC     H16X     HAL3     0.900000E-01   1.00800           0
     15157 MEMB     127      POPC     H16Y     HAL3     0.900000E-01   1.00800           0
     15158 MEMB     127      POPC     H16Z     HAL3     0.900000E-01   1.00800           0
     15159 MEMB     128      POPC     N        NTL     -0.600000       14.0070           0
     15160 MEMB     128      POPC     C12      CTL2    -0.100000       12.0110           0
     15161 MEMB     128      POPC     H12A     HL       0.250000       1.00800           0
     15162 MEMB     128      POPC     H12B     HL       0.250000       1.00800           0
     15163 MEMB     128      POPC     C13      CTL5    -0.350000       12.0110           0
     15164 MEMB     128      POPC     H13A     HL       0.250000       1.00800           0
     15165 MEMB     128      POPC     H13B     HL       0.250000       1.00800           0
     15166 MEMB     128      POPC     H13C     HL       0.250000       1.00800           0
     15167 MEMB     128      POPC     C14      CTL5    -0.350000       12.0110           0
     15168 MEMB     128      POPC     H14A     HL       0.250000       1.00800           0
     15169 MEMB     128      POPC     H14B     HL       0.250000       1.00800           0
     15170 MEMB     128      POPC     H14C     HL       0.250000       1.00800           0
     15171 MEMB     128      POPC     C15      CTL5    -0.350000       12.0110           0
     15172 MEMB     128      POPC     H15A     HL       0.250000       1.00800           0
     15173 MEMB     128      POPC     H15B     HL       0.250000       1.00800           0
     15174 MEMB     128      POPC     H15C     HL       0.250000       1.00800           0
     15175 MEMB     128      POPC     C11      CTL2    -0.800000E-01   12.0110           0
     15176 MEMB     128      POPC     H11A     HAL2     0.900000E-01   1.00800           0
     15177 MEMB     128      POPC     H11B     HAL2     0.900000E-01   1.00800           0
     15178 MEMB     128      POPC     P        PL        1.50000       30.9740           0
     15179 MEMB     128      POPC     O13      O2L     -0.780000       15.9994           0
     15180 MEMB     128      POPC     O14      O2L     -0.780000       15.9994           0
     15181 MEMB     128      POPC     O12      OSLP    -0.570000       15.9994           0
     15182 MEMB     128      POPC     O11      OSLP    -0.570000       15.9994           0
     15183 MEMB     128      POPC     C1       CTL2    -0.800000E-01   12.0110           0
     15184 MEMB     128      POPC     HA       HAL2     0.900000E-01   1.00800           0
     15185 MEMB     128      POPC     HB       HAL2     0.900000E-01   1.00800           0
     15186 MEMB     128      POPC     C2       CTL1     0.170000       12.0110           0
     15187 MEMB     128      POPC     HS       HAL1     0.900000E-01   1.00800           0
     15188 MEMB     128      POPC     O21      OSL     -0.490000       15.9994           0
     15189 MEMB     128      POPC     C21      CL       0.900000       12.0110           0
     15190 MEMB     128      POPC     O22      OBL     -0.630000       15.9994           0
     15191 MEMB     128      POPC     C22      CTL2    -0.220000       12.0110           0
     15192 MEMB     128      POPC     H2R      HAL2     0.900000E-01   1.00800           0
     15193 MEMB     128      POPC     H2S      HAL2     0.900000E-01   1.00800           0
     15194 MEMB     128      POPC     C3       CTL2     0.800000E-01   12.0110           0
     15195 MEMB     128      POPC     HX       HAL2     0.900000E-01   1.00800           0
     15196 MEMB     128      POPC     HY       HAL2     0.900000E-01   1.00800           0
     15197 MEMB     128      POPC     O31      OSL     -0.490000       15.9994           0
     15198 MEMB     128      POPC     C31      CL       0.900000       12.0110           0
     15199 MEMB     128      POPC     O32      OBL     -0.630000       15.9994           0
     15200 MEMB     128      POPC     C32      CTL2    -0.220000       12.0110           0
     15201 MEMB     128      POPC     H2X      HAL2     0.900000E-01   1.00800           0
     15202 MEMB     128      POPC     H2Y      HAL2     0.900000E-01   1.00800           0
     15203 MEMB     128      POPC     C23      CTL2    -0.180000       12.0110           0
     15204 MEMB     128      POPC     H3R      HAL2     0.900000E-01   1.00800           0
     15205 MEMB     128      POPC     H3S      HAL2     0.900000E-01   1.00800           0
     15206 MEMB     128      POPC     C24      CTL2    -0.180000       12.0110           0
     15207 MEMB     128      POPC     H4R      HAL2     0.900000E-01   1.00800           0
     15208 MEMB     128      POPC     H4S      HAL2     0.900000E-01   1.00800           0
     15209 MEMB     128      POPC     C25      CTL2    -0.180000       12.0110           0
     15210 MEMB     128      POPC     H5R      HAL2     0.900000E-01   1.00800           0
     15211 MEMB     128      POPC     H5S      HAL2     0.900000E-01   1.00800           0
     15212 MEMB     128      POPC     C26      CTL2    -0.180000       12.0110           0
     15213 MEMB     128      POPC     H6R      HAL2     0.900000E-01   1.00800           0
     15214 MEMB     128      POPC     H6S      HAL2     0.900000E-01   1.00800           0
     15215 MEMB     128      POPC     C27      CTL2    -0.180000       12.0110           0
     15216 MEMB     128      POPC     H7R      HAL2     0.900000E-01   1.00800           0
     15217 MEMB     128      POPC     H7S      HAL2     0.900000E-01   1.00800           0
     15218 MEMB     128      POPC     C28      CTL2    -0.180000       12.0110           0
     15219 MEMB     128      POPC     H8R      HAL2     0.900000E-01   1.00800           0
     15220 MEMB     128      POPC     H8S      HAL2     0.900000E-01   1.00800           0
     15221 MEMB     128      POPC     C29      CEL1    -0.150000       12.0110           0
     15222 MEMB     128      POPC     H91      HEL1     0.150000       1.00800           0
     15223 MEMB     128      POPC     C210     CEL1    -0.150000       12.0110           0
     15224 MEMB     128      POPC     H101     HEL1     0.150000       1.00800           0
     15225 MEMB     128      POPC     C211     CTL2    -0.180000       12.0110           0
     15226 MEMB     128      POPC     H11R     HAL2     0.900000E-01   1.00800           0
     15227 MEMB     128      POPC     H11S     HAL2     0.900000E-01   1.00800           0
     15228 MEMB     128      POPC     C212     CTL2    -0.180000       12.0110           0
     15229 MEMB     128      POPC     H12R     HAL2     0.900000E-01   1.00800           0
     15230 MEMB     128      POPC     H12S     HAL2     0.900000E-01   1.00800           0
     15231 MEMB     128      POPC     C213     CTL2    -0.180000       12.0110           0
     15232 MEMB     128      POPC     H13R     HAL2     0.900000E-01   1.00800           0
     15233 MEMB     128      POPC     H13S     HAL2     0.900000E-01   1.00800           0
     15234 MEMB     128      POPC     C214     CTL2    -0.180000       12.0110           0
     15235 MEMB     128      POPC     H14R     HAL2     0.900000E-01   1.00800           0
     15236 MEMB     128      POPC     H14S     HAL2     0.900000E-01   1.00800           0
     15237 MEMB     128      POPC     C215     CTL2    -0.180000       12.0110           0
     15238 MEMB     128      POPC     H15R     HAL2     0.900000E-01   1.00800           0
     15239 MEMB     128      POPC     H15S     HAL2     0.900000E-01   1.00800           0
     15240 MEMB     128      POPC     C216     CTL2    -0.180000       12.0110           0
     15241 MEMB     128      POPC     H16R     HAL2     0.900000E-01   1.00800           0
     15242 MEMB     128      POPC     H16S     HAL2     0.900000E-01   1.00800           0
     15243 MEMB     128      POPC     C217     CTL2    -0.180000       12.0110           0
     15244 MEMB     128      POPC     H17R     HAL2     0.900000E-01   1.00800           0
     15245 MEMB     128      POPC     H17S     HAL2     0.900000E-01   1.00800           0
     15246 MEMB     128      POPC     C218     CTL3    -0.270000       12.0110           0
     15247 MEMB     128      POPC     H18R     HAL3     0.900000E-01   1.00800           0
     15248 MEMB     128      POPC     H18S     HAL3     0.900000E-01   1.00800           0
     15249 MEMB     128      POPC     H18T     HAL3     0.900000E-01   1.00800           0
     15250 MEMB     128      POPC     C33      CTL2    -0.180000       12.0110           0
     15251 MEMB     128      POPC     H3X      HAL2     0.900000E-01   1.00800           0
     15252 MEMB     128      POPC     H3Y      HAL2     0.900000E-01   1.00800           0
     15253 MEMB     128      POPC     C34      CTL2    -0.180000       12.0110           0
     15254 MEMB     128      POPC     H4X      HAL2     0.900000E-01   1.00800           0
     15255 MEMB     128      POPC     H4Y      HAL2     0.900000E-01   1.00800           0
     15256 MEMB     128      POPC     C35      CTL2    -0.180000       12.0110           0
     15257 MEMB     128      POPC     H5X      HAL2     0.900000E-01   1.00800           0
     15258 MEMB     128      POPC     H5Y      HAL2     0.900000E-01   1.00800           0
     15259 MEMB     128      POPC     C36      CTL2    -0.180000       12.0110           0
     15260 MEMB     128      POPC     H6X      HAL2     0.900000E-01   1.00800           0
     15261 MEMB     128      POPC     H6Y      HAL2     0.900000E-01   1.00800           0
     15262 MEMB     128      POPC     C37      CTL2    -0.180000       12.0110           0
     15263 MEMB     128      POPC     H7X      HAL2     0.900000E-01   1.00800           0
     15264 MEMB     128      POPC     H7Y      HAL2     0.900000E-01   1.00800           0
     15265 MEMB     128      POPC     C38      CTL2    -0.180000       12.0110           0
     15266 MEMB     128      POPC     H8X      HAL2     0.900000E-01   1.00800           0
     15267 MEMB     128      POPC     H8Y      HAL2     0.900000E-01   1.00800           0
     15268 MEMB     128      POPC     C39      CTL2    -0.180000       12.0110           0
     15269 MEMB     128      POPC     H9X      HAL2     0.900000E-01   1.00800           0
     15270 MEMB     128      POPC     H9Y      HAL2     0.900000E-01   1.00800           0
     15271 MEMB     128      POPC     C310     CTL2    -0.180000       12.0110           0
     15272 MEMB     128      POPC     H10X     HAL2     0.900000E-01   1.00800           0
     15273 MEMB     128      POPC     H10Y     HAL2     0.900000E-01   1.00800           0
     15274 MEMB     128      POPC     C311     CTL2    -0.180000       12.0110           0
     15275 MEMB     128      POPC     H11X     HAL2     0.900000E-01   1.00800           0
     15276 MEMB     128      POPC     H11Y     HAL2     0.900000E-01   1.00800           0
     15277 MEMB     128      POPC     C312     CTL2    -0.180000       12.0110           0
     15278 MEMB     128      POPC     H12X     HAL2     0.900000E-01   1.00800           0
     15279 MEMB     128      POPC     H12Y     HAL2     0.900000E-01   1.00800           0
     15280 MEMB     128      POPC     C313     CTL2    -0.180000       12.0110           0
     15281 MEMB     128      POPC     H13X     HAL2     0.900000E-01   1.00800           0
     15282 MEMB     128      POPC     H13Y     HAL2     0.900000E-01   1.00800           0
     15283 MEMB     128      POPC     C314     CTL2    -0.180000       12.0110           0
     15284 MEMB     128      POPC     H14X     HAL2     0.900000E-01   1.00800           0
     15285 MEMB     128      POPC     H14Y     HAL2     0.900000E-01   1.00800           0
     15286 MEMB     128      POPC     C315     CTL2    -0.180000       12.0110           0
     15287 MEMB     128      POPC     H15X     HAL2     0.900000E-01   1.00800           0
     15288 MEMB     128      POPC     H15Y     HAL2     0.900000E-01   1.00800           0
     15289 MEMB     128      POPC     C316     CTL3    -0.270000       12.0110           0
     15290 MEMB     128      POPC     H16X     HAL3     0.900000E-01   1.00800           0
     15291 MEMB     128      POPC     H16Y     HAL3     0.900000E-01   1.00800           0
     15292 MEMB     128      POPC     H16Z     HAL3     0.900000E-01   1.00800           0
     15293 MEMB     129      POPC     N        NTL     -0.600000       14.0070           0
     15294 MEMB     129      POPC     C12      CTL2    -0.100000       12.0110           0
     15295 MEMB     129      POPC     H12A     HL       0.250000       1.00800           0
     15296 MEMB     129      POPC     H12B     HL       0.250000       1.00800           0
     15297 MEMB     129      POPC     C13      CTL5    -0.350000       12.0110           0
     15298 MEMB     129      POPC     H13A     HL       0.250000       1.00800           0
     15299 MEMB     129      POPC     H13B     HL       0.250000       1.00800           0
     15300 MEMB     129      POPC     H13C     HL       0.250000       1.00800           0
     15301 MEMB     129      POPC     C14      CTL5    -0.350000       12.0110           0
     15302 MEMB     129      POPC     H14A     HL       0.250000       1.00800           0
     15303 MEMB     129      POPC     H14B     HL       0.250000       1.00800           0
     15304 MEMB     129      POPC     H14C     HL       0.250000       1.00800           0
     15305 MEMB     129      POPC     C15      CTL5    -0.350000       12.0110           0
     15306 MEMB     129      POPC     H15A     HL       0.250000       1.00800           0
     15307 MEMB     129      POPC     H15B     HL       0.250000       1.00800           0
     15308 MEMB     129      POPC     H15C     HL       0.250000       1.00800           0
     15309 MEMB     129      POPC     C11      CTL2    -0.800000E-01   12.0110           0
     15310 MEMB     129      POPC     H11A     HAL2     0.900000E-01   1.00800           0
     15311 MEMB     129      POPC     H11B     HAL2     0.900000E-01   1.00800           0
     15312 MEMB     129      POPC     P        PL        1.50000       30.9740           0
     15313 MEMB     129      POPC     O13      O2L     -0.780000       15.9994           0
     15314 MEMB     129      POPC     O14      O2L     -0.780000       15.9994           0
     15315 MEMB     129      POPC     O12      OSLP    -0.570000       15.9994           0
     15316 MEMB     129      POPC     O11      OSLP    -0.570000       15.9994           0
     15317 MEMB     129      POPC     C1       CTL2    -0.800000E-01   12.0110           0
     15318 MEMB     129      POPC     HA       HAL2     0.900000E-01   1.00800           0
     15319 MEMB     129      POPC     HB       HAL2     0.900000E-01   1.00800           0
     15320 MEMB     129      POPC     C2       CTL1     0.170000       12.0110           0
     15321 MEMB     129      POPC     HS       HAL1     0.900000E-01   1.00800           0
     15322 MEMB     129      POPC     O21      OSL     -0.490000       15.9994           0
     15323 MEMB     129      POPC     C21      CL       0.900000       12.0110           0
     15324 MEMB     129      POPC     O22      OBL     -0.630000       15.9994           0
     15325 MEMB     129      POPC     C22      CTL2    -0.220000       12.0110           0
     15326 MEMB     129      POPC     H2R      HAL2     0.900000E-01   1.00800           0
     15327 MEMB     129      POPC     H2S      HAL2     0.900000E-01   1.00800           0
     15328 MEMB     129      POPC     C3       CTL2     0.800000E-01   12.0110           0
     15329 MEMB     129      POPC     HX       HAL2     0.900000E-01   1.00800           0
     15330 MEMB     129      POPC     HY       HAL2     0.900000E-01   1.00800           0
     15331 MEMB     129      POPC     O31      OSL     -0.490000       15.9994           0
     15332 MEMB     129      POPC     C31      CL       0.900000       12.0110           0
     15333 MEMB     129      POPC     O32      OBL     -0.630000       15.9994           0
     15334 MEMB     129      POPC     C32      CTL2    -0.220000       12.0110           0
     15335 MEMB     129      POPC     H2X      HAL2     0.900000E-01   1.00800           0
     15336 MEMB     129      POPC     H2Y      HAL2     0.900000E-01   1.00800           0
     15337 MEMB     129      POPC     C23      CTL2    -0.180000       12.0110           0
     15338 MEMB     129      POPC     H3R      HAL2     0.900000E-01   1.00800           0
     15339 MEMB     129      POPC     H3S      HAL2     0.900000E-01   1.00800           0
     15340 MEMB     129      POPC     C24      CTL2    -0.180000       12.0110           0
     15341 MEMB     129      POPC     H4R      HAL2     0.900000E-01   1.00800           0
     15342 MEMB     129      POPC     H4S      HAL2     0.900000E-01   1.00800           0
     15343 MEMB     129      POPC     C25      CTL2    -0.180000       12.0110           0
     15344 MEMB     129      POPC     H5R      HAL2     0.900000E-01   1.00800           0
     15345 MEMB     129      POPC     H5S      HAL2     0.900000E-01   1.00800           0
     15346 MEMB     129      POPC     C26      CTL2    -0.180000       12.0110           0
     15347 MEMB     129      POPC     H6R      HAL2     0.900000E-01   1.00800           0
     15348 MEMB     129      POPC     H6S      HAL2     0.900000E-01   1.00800           0
     15349 MEMB     129      POPC     C27      CTL2    -0.180000       12.0110           0
     15350 MEMB     129      POPC     H7R      HAL2     0.900000E-01   1.00800           0
     15351 MEMB     129      POPC     H7S      HAL2     0.900000E-01   1.00800           0
     15352 MEMB     129      POPC     C28      CTL2    -0.180000       12.0110           0
     15353 MEMB     129      POPC     H8R      HAL2     0.900000E-01   1.00800           0
     15354 MEMB     129      POPC     H8S      HAL2     0.900000E-01   1.00800           0
     15355 MEMB     129      POPC     C29      CEL1    -0.150000       12.0110           0
     15356 MEMB     129      POPC     H91      HEL1     0.150000       1.00800           0
     15357 MEMB     129      POPC     C210     CEL1    -0.150000       12.0110           0
     15358 MEMB     129      POPC     H101     HEL1     0.150000       1.00800           0
     15359 MEMB     129      POPC     C211     CTL2    -0.180000       12.0110           0
     15360 MEMB     129      POPC     H11R     HAL2     0.900000E-01   1.00800           0
     15361 MEMB     129      POPC     H11S     HAL2     0.900000E-01   1.00800           0
     15362 MEMB     129      POPC     C212     CTL2    -0.180000       12.0110           0
     15363 MEMB     129      POPC     H12R     HAL2     0.900000E-01   1.00800           0
     15364 MEMB     129      POPC     H12S     HAL2     0.900000E-01   1.00800           0
     15365 MEMB     129      POPC     C213     CTL2    -0.180000       12.0110           0
     15366 MEMB     129      POPC     H13R     HAL2     0.900000E-01   1.00800           0
     15367 MEMB     129      POPC     H13S     HAL2     0.900000E-01   1.00800           0
     15368 MEMB     129      POPC     C214     CTL2    -0.180000       12.0110           0
     15369 MEMB     129      POPC     H14R     HAL2     0.900000E-01   1.00800           0
     15370 MEMB     129      POPC     H14S     HAL2     0.900000E-01   1.00800           0
     15371 MEMB     129      POPC     C215     CTL2    -0.180000       12.0110           0
     15372 MEMB     129      POPC     H15R     HAL2     0.900000E-01   1.00800           0
     15373 MEMB     129      POPC     H15S     HAL2     0.900000E-01   1.00800           0
     15374 MEMB     129      POPC     C216     CTL2    -0.180000       12.0110           0
     15375 MEMB     129      POPC     H16R     HAL2     0.900000E-01   1.00800           0
     15376 MEMB     129      POPC     H16S     HAL2     0.900000E-01   1.00800           0
     15377 MEMB     129      POPC     C217     CTL2    -0.180000       12.0110           0
     15378 MEMB     129      POPC     H17R     HAL2     0.900000E-01   1.00800           0
     15379 MEMB     129      POPC     H17S     HAL2     0.900000E-01   1.00800           0
     15380 MEMB     129      POPC     C218     CTL3    -0.270000       12.0110           0
     15381 MEMB     129      POPC     H18R     HAL3     0.900000E-01   1.00800           0
     15382 MEMB     129      POPC     H18S     HAL3     0.900000E-01   1.00800           0
     15383 MEMB     129      POPC     H18T     HAL3     0.900000E-01   1.00800           0
     15384 MEMB     129      POPC     C33      CTL2    -0.180000       12.0110           0
     15385 MEMB     129      POPC     H3X      HAL2     0.900000E-01   1.00800           0
     15386 MEMB     129      POPC     H3Y      HAL2     0.900000E-01   1.00800           0
     15387 MEMB     129      POPC     C34      CTL2    -0.180000       12.0110           0
     15388 MEMB     129      POPC     H4X      HAL2     0.900000E-01   1.00800           0
     15389 MEMB     129      POPC     H4Y      HAL2     0.900000E-01   1.00800           0
     15390 MEMB     129      POPC     C35      CTL2    -0.180000       12.0110           0
     15391 MEMB     129      POPC     H5X      HAL2     0.900000E-01   1.00800           0
     15392 MEMB     129      POPC     H5Y      HAL2     0.900000E-01   1.00800           0
     15393 MEMB     129      POPC     C36      CTL2    -0.180000       12.0110           0
     15394 MEMB     129      POPC     H6X      HAL2     0.900000E-01   1.00800           0
     15395 MEMB     129      POPC     H6Y      HAL2     0.900000E-01   1.00800           0
     15396 MEMB     129      POPC     C37      CTL2    -0.180000       12.0110           0
     15397 MEMB     129      POPC     H7X      HAL2     0.900000E-01   1.00800           0
     15398 MEMB     129      POPC     H7Y      HAL2     0.900000E-01   1.00800           0
     15399 MEMB     129      POPC     C38      CTL2    -0.180000       12.0110           0
     15400 MEMB     129      POPC     H8X      HAL2     0.900000E-01   1.00800           0
     15401 MEMB     129      POPC     H8Y      HAL2     0.900000E-01   1.00800           0
     15402 MEMB     129      POPC     C39      CTL2    -0.180000       12.0110           0
     15403 MEMB     129      POPC     H9X      HAL2     0.900000E-01   1.00800           0
     15404 MEMB     129      POPC     H9Y      HAL2     0.900000E-01   1.00800           0
     15405 MEMB     129      POPC     C310     CTL2    -0.180000       12.0110           0
     15406 MEMB     129      POPC     H10X     HAL2     0.900000E-01   1.00800           0
     15407 MEMB     129      POPC     H10Y     HAL2     0.900000E-01   1.00800           0
     15408 MEMB     129      POPC     C311     CTL2    -0.180000       12.0110           0
     15409 MEMB     129      POPC     H11X     HAL2     0.900000E-01   1.00800           0
     15410 MEMB     129      POPC     H11Y     HAL2     0.900000E-01   1.00800           0
     15411 MEMB     129      POPC     C312     CTL2    -0.180000       12.0110           0
     15412 MEMB     129      POPC     H12X     HAL2     0.900000E-01   1.00800           0
     15413 MEMB     129      POPC     H12Y     HAL2     0.900000E-01   1.00800           0
     15414 MEMB     129      POPC     C313     CTL2    -0.180000       12.0110           0
     15415 MEMB     129      POPC     H13X     HAL2     0.900000E-01   1.00800           0
     15416 MEMB     129      POPC     H13Y     HAL2     0.900000E-01   1.00800           0
     15417 MEMB     129      POPC     C314     CTL2    -0.180000       12.0110           0
     15418 MEMB     129      POPC     H14X     HAL2     0.900000E-01   1.00800           0
     15419 MEMB     129      POPC     H14Y     HAL2     0.900000E-01   1.00800           0
     15420 MEMB     129      POPC     C315     CTL2    -0.180000       12.0110           0
     15421 MEMB     129      POPC     H15X     HAL2     0.900000E-01   1.00800           0
     15422 MEMB     129      POPC     H15Y     HAL2     0.900000E-01   1.00800           0
     15423 MEMB     129      POPC     C316     CTL3    -0.270000       12.0110           0
     15424 MEMB     129      POPC     H16X     HAL3     0.900000E-01   1.00800           0
     15425 MEMB     129      POPC     H16Y     HAL3     0.900000E-01   1.00800           0
     15426 MEMB     129      POPC     H16Z     HAL3     0.900000E-01   1.00800           0
     15427 MEMB     130      POPC     N        NTL     -0.600000       14.0070           0
     15428 MEMB     130      POPC     C12      CTL2    -0.100000       12.0110           0
     15429 MEMB     130      POPC     H12A     HL       0.250000       1.00800           0
     15430 MEMB     130      POPC     H12B     HL       0.250000       1.00800           0
     15431 MEMB     130      POPC     C13      CTL5    -0.350000       12.0110           0
     15432 MEMB     130      POPC     H13A     HL       0.250000       1.00800           0
     15433 MEMB     130      POPC     H13B     HL       0.250000       1.00800           0
     15434 MEMB     130      POPC     H13C     HL       0.250000       1.00800           0
     15435 MEMB     130      POPC     C14      CTL5    -0.350000       12.0110           0
     15436 MEMB     130      POPC     H14A     HL       0.250000       1.00800           0
     15437 MEMB     130      POPC     H14B     HL       0.250000       1.00800           0
     15438 MEMB     130      POPC     H14C     HL       0.250000       1.00800           0
     15439 MEMB     130      POPC     C15      CTL5    -0.350000       12.0110           0
     15440 MEMB     130      POPC     H15A     HL       0.250000       1.00800           0
     15441 MEMB     130      POPC     H15B     HL       0.250000       1.00800           0
     15442 MEMB     130      POPC     H15C     HL       0.250000       1.00800           0
     15443 MEMB     130      POPC     C11      CTL2    -0.800000E-01   12.0110           0
     15444 MEMB     130      POPC     H11A     HAL2     0.900000E-01   1.00800           0
     15445 MEMB     130      POPC     H11B     HAL2     0.900000E-01   1.00800           0
     15446 MEMB     130      POPC     P        PL        1.50000       30.9740           0
     15447 MEMB     130      POPC     O13      O2L     -0.780000       15.9994           0
     15448 MEMB     130      POPC     O14      O2L     -0.780000       15.9994           0
     15449 MEMB     130      POPC     O12      OSLP    -0.570000       15.9994           0
     15450 MEMB     130      POPC     O11      OSLP    -0.570000       15.9994           0
     15451 MEMB     130      POPC     C1       CTL2    -0.800000E-01   12.0110           0
     15452 MEMB     130      POPC     HA       HAL2     0.900000E-01   1.00800           0
     15453 MEMB     130      POPC     HB       HAL2     0.900000E-01   1.00800           0
     15454 MEMB     130      POPC     C2       CTL1     0.170000       12.0110           0
     15455 MEMB     130      POPC     HS       HAL1     0.900000E-01   1.00800           0
     15456 MEMB     130      POPC     O21      OSL     -0.490000       15.9994           0
     15457 MEMB     130      POPC     C21      CL       0.900000       12.0110           0
     15458 MEMB     130      POPC     O22      OBL     -0.630000       15.9994           0
     15459 MEMB     130      POPC     C22      CTL2    -0.220000       12.0110           0
     15460 MEMB     130      POPC     H2R      HAL2     0.900000E-01   1.00800           0
     15461 MEMB     130      POPC     H2S      HAL2     0.900000E-01   1.00800           0
     15462 MEMB     130      POPC     C3       CTL2     0.800000E-01   12.0110           0
     15463 MEMB     130      POPC     HX       HAL2     0.900000E-01   1.00800           0
     15464 MEMB     130      POPC     HY       HAL2     0.900000E-01   1.00800           0
     15465 MEMB     130      POPC     O31      OSL     -0.490000       15.9994           0
     15466 MEMB     130      POPC     C31      CL       0.900000       12.0110           0
     15467 MEMB     130      POPC     O32      OBL     -0.630000       15.9994           0
     15468 MEMB     130      POPC     C32      CTL2    -0.220000       12.0110           0
     15469 MEMB     130      POPC     H2X      HAL2     0.900000E-01   1.00800           0
     15470 MEMB     130      POPC     H2Y      HAL2     0.900000E-01   1.00800           0
     15471 MEMB     130      POPC     C23      CTL2    -0.180000       12.0110           0
     15472 MEMB     130      POPC     H3R      HAL2     0.900000E-01   1.00800           0
     15473 MEMB     130      POPC     H3S      HAL2     0.900000E-01   1.00800           0
     15474 MEMB     130      POPC     C24      CTL2    -0.180000       12.0110           0
     15475 MEMB     130      POPC     H4R      HAL2     0.900000E-01   1.00800           0
     15476 MEMB     130      POPC     H4S      HAL2     0.900000E-01   1.00800           0
     15477 MEMB     130      POPC     C25      CTL2    -0.180000       12.0110           0
     15478 MEMB     130      POPC     H5R      HAL2     0.900000E-01   1.00800           0
     15479 MEMB     130      POPC     H5S      HAL2     0.900000E-01   1.00800           0
     15480 MEMB     130      POPC     C26      CTL2    -0.180000       12.0110           0
     15481 MEMB     130      POPC     H6R      HAL2     0.900000E-01   1.00800           0
     15482 MEMB     130      POPC     H6S      HAL2     0.900000E-01   1.00800           0
     15483 MEMB     130      POPC     C27      CTL2    -0.180000       12.0110           0
     15484 MEMB     130      POPC     H7R      HAL2     0.900000E-01   1.00800           0
     15485 MEMB     130      POPC     H7S      HAL2     0.900000E-01   1.00800           0
     15486 MEMB     130      POPC     C28      CTL2    -0.180000       12.0110           0
     15487 MEMB     130      POPC     H8R      HAL2     0.900000E-01   1.00800           0
     15488 MEMB     130      POPC     H8S      HAL2     0.900000E-01   1.00800           0
     15489 MEMB     130      POPC     C29      CEL1    -0.150000       12.0110           0
     15490 MEMB     130      POPC     H91      HEL1     0.150000       1.00800           0
     15491 MEMB     130      POPC     C210     CEL1    -0.150000       12.0110           0
     15492 MEMB     130      POPC     H101     HEL1     0.150000       1.00800           0
     15493 MEMB     130      POPC     C211     CTL2    -0.180000       12.0110           0
     15494 MEMB     130      POPC     H11R     HAL2     0.900000E-01   1.00800           0
     15495 MEMB     130      POPC     H11S     HAL2     0.900000E-01   1.00800           0
     15496 MEMB     130      POPC     C212     CTL2    -0.180000       12.0110           0
     15497 MEMB     130      POPC     H12R     HAL2     0.900000E-01   1.00800           0
     15498 MEMB     130      POPC     H12S     HAL2     0.900000E-01   1.00800           0
     15499 MEMB     130      POPC     C213     CTL2    -0.180000       12.0110           0
     15500 MEMB     130      POPC     H13R     HAL2     0.900000E-01   1.00800           0
     15501 MEMB     130      POPC     H13S     HAL2     0.900000E-01   1.00800           0
     15502 MEMB     130      POPC     C214     CTL2    -0.180000       12.0110           0
     15503 MEMB     130      POPC     H14R     HAL2     0.900000E-01   1.00800           0
     15504 MEMB     130      POPC     H14S     HAL2     0.900000E-01   1.00800           0
     15505 MEMB     130      POPC     C215     CTL2    -0.180000       12.0110           0
     15506 MEMB     130      POPC     H15R     HAL2     0.900000E-01   1.00800           0
     15507 MEMB     130      POPC     H15S     HAL2     0.900000E-01   1.00800           0
     15508 MEMB     130      POPC     C216     CTL2    -0.180000       12.0110           0
     15509 MEMB     130      POPC     H16R     HAL2     0.900000E-01   1.00800           0
     15510 MEMB     130      POPC     H16S     HAL2     0.900000E-01   1.00800           0
     15511 MEMB     130      POPC     C217     CTL2    -0.180000       12.0110           0
     15512 MEMB     130      POPC     H17R     HAL2     0.900000E-01   1.00800           0
     15513 MEMB     130      POPC     H17S     HAL2     0.900000E-01   1.00800           0
     15514 MEMB     130      POPC     C218     CTL3    -0.270000       12.0110           0
     15515 MEMB     130      POPC     H18R     HAL3     0.900000E-01   1.00800           0
     15516 MEMB     130      POPC     H18S     HAL3     0.900000E-01   1.00800           0
     15517 MEMB     130      POPC     H18T     HAL3     0.900000E-01   1.00800           0
     15518 MEMB     130      POPC     C33      CTL2    -0.180000       12.0110           0
     15519 MEMB     130      POPC     H3X      HAL2     0.900000E-01   1.00800           0
     15520 MEMB     130      POPC     H3Y      HAL2     0.900000E-01   1.00800           0
     15521 MEMB     130      POPC     C34      CTL2    -0.180000       12.0110           0
     15522 MEMB     130      POPC     H4X      HAL2     0.900000E-01   1.00800           0
     15523 MEMB     130      POPC     H4Y      HAL2     0.900000E-01   1.00800           0
     15524 MEMB     130      POPC     C35      CTL2    -0.180000       12.0110           0
     15525 MEMB     130      POPC     H5X      HAL2     0.900000E-01   1.00800           0
     15526 MEMB     130      POPC     H5Y      HAL2     0.900000E-01   1.00800           0
     15527 MEMB     130      POPC     C36      CTL2    -0.180000       12.0110           0
     15528 MEMB     130      POPC     H6X      HAL2     0.900000E-01   1.00800           0
     15529 MEMB     130      POPC     H6Y      HAL2     0.900000E-01   1.00800           0
     15530 MEMB     130      POPC     C37      CTL2    -0.180000       12.0110           0
     15531 MEMB     130      POPC     H7X      HAL2     0.900000E-01   1.00800           0
     15532 MEMB     130      POPC     H7Y      HAL2     0.900000E-01   1.00800           0
     15533 MEMB     130      POPC     C38      CTL2    -0.180000       12.0110           0
     15534 MEMB     130      POPC     H8X      HAL2     0.900000E-01   1.00800           0
     15535 MEMB     130      POPC     H8Y      HAL2     0.900000E-01   1.00800           0
     15536 MEMB     130      POPC     C39      CTL2    -0.180000       12.0110           0
     15537 MEMB     130      POPC     H9X      HAL2     0.900000E-01   1.00800           0
     15538 MEMB     130      POPC     H9Y      HAL2     0.900000E-01   1.00800           0
     15539 MEMB     130      POPC     C310     CTL2    -0.180000       12.0110           0
     15540 MEMB     130      POPC     H10X     HAL2     0.900000E-01   1.00800           0
     15541 MEMB     130      POPC     H10Y     HAL2     0.900000E-01   1.00800           0
     15542 MEMB     130      POPC     C311     CTL2    -0.180000       12.0110           0
     15543 MEMB     130      POPC     H11X     HAL2     0.900000E-01   1.00800           0
     15544 MEMB     130      POPC     H11Y     HAL2     0.900000E-01   1.00800           0
     15545 MEMB     130      POPC     C312     CTL2    -0.180000       12.0110           0
     15546 MEMB     130      POPC     H12X     HAL2     0.900000E-01   1.00800           0
     15547 MEMB     130      POPC     H12Y     HAL2     0.900000E-01   1.00800           0
     15548 MEMB     130      POPC     C313     CTL2    -0.180000       12.0110           0
     15549 MEMB     130      POPC     H13X     HAL2     0.900000E-01   1.00800           0
     15550 MEMB     130      POPC     H13Y     HAL2     0.900000E-01   1.00800           0
     15551 MEMB     130      POPC     C314     CTL2    -0.180000       12.0110           0
     15552 MEMB     130      POPC     H14X     HAL2     0.900000E-01   1.00800           0
     15553 MEMB     130      POPC     H14Y     HAL2     0.900000E-01   1.00800           0
     15554 MEMB     130      POPC     C315     CTL2    -0.180000       12.0110           0
     15555 MEMB     130      POPC     H15X     HAL2     0.900000E-01   1.00800           0
     15556 MEMB     130      POPC     H15Y     HAL2     0.900000E-01   1.00800           0
     15557 MEMB     130      POPC     C316     CTL3    -0.270000       12.0110           0
     15558 MEMB     130      POPC     H16X     HAL3     0.900000E-01   1.00800           0
     15559 MEMB     130      POPC     H16Y     HAL3     0.900000E-01   1.00800           0
     15560 MEMB     130      POPC     H16Z     HAL3     0.900000E-01   1.00800           0
     15561 MEMB     131      POPC     N        NTL     -0.600000       14.0070           0
     15562 MEMB     131      POPC     C12      CTL2    -0.100000       12.0110           0
     15563 MEMB     131      POPC     H12A     HL       0.250000       1.00800           0
     15564 MEMB     131      POPC     H12B     HL       0.250000       1.00800           0
     15565 MEMB     131      POPC     C13      CTL5    -0.350000       12.0110           0
     15566 MEMB     131      POPC     H13A     HL       0.250000       1.00800           0
     15567 MEMB     131      POPC     H13B     HL       0.250000       1.00800           0
     15568 MEMB     131      POPC     H13C     HL       0.250000       1.00800           0
     15569 MEMB     131      POPC     C14      CTL5    -0.350000       12.0110           0
     15570 MEMB     131      POPC     H14A     HL       0.250000       1.00800           0
     15571 MEMB     131      POPC     H14B     HL       0.250000       1.00800           0
     15572 MEMB     131      POPC     H14C     HL       0.250000       1.00800           0
     15573 MEMB     131      POPC     C15      CTL5    -0.350000       12.0110           0
     15574 MEMB     131      POPC     H15A     HL       0.250000       1.00800           0
     15575 MEMB     131      POPC     H15B     HL       0.250000       1.00800           0
     15576 MEMB     131      POPC     H15C     HL       0.250000       1.00800           0
     15577 MEMB     131      POPC     C11      CTL2    -0.800000E-01   12.0110           0
     15578 MEMB     131      POPC     H11A     HAL2     0.900000E-01   1.00800           0
     15579 MEMB     131      POPC     H11B     HAL2     0.900000E-01   1.00800           0
     15580 MEMB     131      POPC     P        PL        1.50000       30.9740           0
     15581 MEMB     131      POPC     O13      O2L     -0.780000       15.9994           0
     15582 MEMB     131      POPC     O14      O2L     -0.780000       15.9994           0
     15583 MEMB     131      POPC     O12      OSLP    -0.570000       15.9994           0
     15584 MEMB     131      POPC     O11      OSLP    -0.570000       15.9994           0
     15585 MEMB     131      POPC     C1       CTL2    -0.800000E-01   12.0110           0
     15586 MEMB     131      POPC     HA       HAL2     0.900000E-01   1.00800           0
     15587 MEMB     131      POPC     HB       HAL2     0.900000E-01   1.00800           0
     15588 MEMB     131      POPC     C2       CTL1     0.170000       12.0110           0
     15589 MEMB     131      POPC     HS       HAL1     0.900000E-01   1.00800           0
     15590 MEMB     131      POPC     O21      OSL     -0.490000       15.9994           0
     15591 MEMB     131      POPC     C21      CL       0.900000       12.0110           0
     15592 MEMB     131      POPC     O22      OBL     -0.630000       15.9994           0
     15593 MEMB     131      POPC     C22      CTL2    -0.220000       12.0110           0
     15594 MEMB     131      POPC     H2R      HAL2     0.900000E-01   1.00800           0
     15595 MEMB     131      POPC     H2S      HAL2     0.900000E-01   1.00800           0
     15596 MEMB     131      POPC     C3       CTL2     0.800000E-01   12.0110           0
     15597 MEMB     131      POPC     HX       HAL2     0.900000E-01   1.00800           0
     15598 MEMB     131      POPC     HY       HAL2     0.900000E-01   1.00800           0
     15599 MEMB     131      POPC     O31      OSL     -0.490000       15.9994           0
     15600 MEMB     131      POPC     C31      CL       0.900000       12.0110           0
     15601 MEMB     131      POPC     O32      OBL     -0.630000       15.9994           0
     15602 MEMB     131      POPC     C32      CTL2    -0.220000       12.0110           0
     15603 MEMB     131      POPC     H2X      HAL2     0.900000E-01   1.00800           0
     15604 MEMB     131      POPC     H2Y      HAL2     0.900000E-01   1.00800           0
     15605 MEMB     131      POPC     C23      CTL2    -0.180000       12.0110           0
     15606 MEMB     131      POPC     H3R      HAL2     0.900000E-01   1.00800           0
     15607 MEMB     131      POPC     H3S      HAL2     0.900000E-01   1.00800           0
     15608 MEMB     131      POPC     C24      CTL2    -0.180000       12.0110           0
     15609 MEMB     131      POPC     H4R      HAL2     0.900000E-01   1.00800           0
     15610 MEMB     131      POPC     H4S      HAL2     0.900000E-01   1.00800           0
     15611 MEMB     131      POPC     C25      CTL2    -0.180000       12.0110           0
     15612 MEMB     131      POPC     H5R      HAL2     0.900000E-01   1.00800           0
     15613 MEMB     131      POPC     H5S      HAL2     0.900000E-01   1.00800           0
     15614 MEMB     131      POPC     C26      CTL2    -0.180000       12.0110           0
     15615 MEMB     131      POPC     H6R      HAL2     0.900000E-01   1.00800           0
     15616 MEMB     131      POPC     H6S      HAL2     0.900000E-01   1.00800           0
     15617 MEMB     131      POPC     C27      CTL2    -0.180000       12.0110           0
     15618 MEMB     131      POPC     H7R      HAL2     0.900000E-01   1.00800           0
     15619 MEMB     131      POPC     H7S      HAL2     0.900000E-01   1.00800           0
     15620 MEMB     131      POPC     C28      CTL2    -0.180000       12.0110           0
     15621 MEMB     131      POPC     H8R      HAL2     0.900000E-01   1.00800           0
     15622 MEMB     131      POPC     H8S      HAL2     0.900000E-01   1.00800           0
     15623 MEMB     131      POPC     C29      CEL1    -0.150000       12.0110           0
     15624 MEMB     131      POPC     H91      HEL1     0.150000       1.00800           0
     15625 MEMB     131      POPC     C210     CEL1    -0.150000       12.0110           0
     15626 MEMB     131      POPC     H101     HEL1     0.150000       1.00800           0
     15627 MEMB     131      POPC     C211     CTL2    -0.180000       12.0110           0
     15628 MEMB     131      POPC     H11R     HAL2     0.900000E-01   1.00800           0
     15629 MEMB     131      POPC     H11S     HAL2     0.900000E-01   1.00800           0
     15630 MEMB     131      POPC     C212     CTL2    -0.180000       12.0110           0
     15631 MEMB     131      POPC     H12R     HAL2     0.900000E-01   1.00800           0
     15632 MEMB     131      POPC     H12S     HAL2     0.900000E-01   1.00800           0
     15633 MEMB     131      POPC     C213     CTL2    -0.180000       12.0110           0
     15634 MEMB     131      POPC     H13R     HAL2     0.900000E-01   1.00800           0
     15635 MEMB     131      POPC     H13S     HAL2     0.900000E-01   1.00800           0
     15636 MEMB     131      POPC     C214     CTL2    -0.180000       12.0110           0
     15637 MEMB     131      POPC     H14R     HAL2     0.900000E-01   1.00800           0
     15638 MEMB     131      POPC     H14S     HAL2     0.900000E-01   1.00800           0
     15639 MEMB     131      POPC     C215     CTL2    -0.180000       12.0110           0
     15640 MEMB     131      POPC     H15R     HAL2     0.900000E-01   1.00800           0
     15641 MEMB     131      POPC     H15S     HAL2     0.900000E-01   1.00800           0
     15642 MEMB     131      POPC     C216     CTL2    -0.180000       12.0110           0
     15643 MEMB     131      POPC     H16R     HAL2     0.900000E-01   1.00800           0
     15644 MEMB     131      POPC     H16S     HAL2     0.900000E-01   1.00800           0
     15645 MEMB     131      POPC     C217     CTL2    -0.180000       12.0110           0
     15646 MEMB     131      POPC     H17R     HAL2     0.900000E-01   1.00800           0
     15647 MEMB     131      POPC     H17S     HAL2     0.900000E-01   1.00800           0
     15648 MEMB     131      POPC     C218     CTL3    -0.270000       12.0110           0
     15649 MEMB     131      POPC     H18R     HAL3     0.900000E-01   1.00800           0
     15650 MEMB     131      POPC     H18S     HAL3     0.900000E-01   1.00800           0
     15651 MEMB     131      POPC     H18T     HAL3     0.900000E-01   1.00800           0
     15652 MEMB     131      POPC     C33      CTL2    -0.180000       12.0110           0
     15653 MEMB     131      POPC     H3X      HAL2     0.900000E-01   1.00800           0
     15654 MEMB     131      POPC     H3Y      HAL2     0.900000E-01   1.00800           0
     15655 MEMB     131      POPC     C34      CTL2    -0.180000       12.0110           0
     15656 MEMB     131      POPC     H4X      HAL2     0.900000E-01   1.00800           0
     15657 MEMB     131      POPC     H4Y      HAL2     0.900000E-01   1.00800           0
     15658 MEMB     131      POPC     C35      CTL2    -0.180000       12.0110           0
     15659 MEMB     131      POPC     H5X      HAL2     0.900000E-01   1.00800           0
     15660 MEMB     131      POPC     H5Y      HAL2     0.900000E-01   1.00800           0
     15661 MEMB     131      POPC     C36      CTL2    -0.180000       12.0110           0
     15662 MEMB     131      POPC     H6X      HAL2     0.900000E-01   1.00800           0
     15663 MEMB     131      POPC     H6Y      HAL2     0.900000E-01   1.00800           0
     15664 MEMB     131      POPC     C37      CTL2    -0.180000       12.0110           0
     15665 MEMB     131      POPC     H7X      HAL2     0.900000E-01   1.00800           0
     15666 MEMB     131      POPC     H7Y      HAL2     0.900000E-01   1.00800           0
     15667 MEMB     131      POPC     C38      CTL2    -0.180000       12.0110           0
     15668 MEMB     131      POPC     H8X      HAL2     0.900000E-01   1.00800           0
     15669 MEMB     131      POPC     H8Y      HAL2     0.900000E-01   1.00800           0
     15670 MEMB     131      POPC     C39      CTL2    -0.180000       12.0110           0
     15671 MEMB     131      POPC     H9X      HAL2     0.900000E-01   1.00800           0
     15672 MEMB     131      POPC     H9Y      HAL2     0.900000E-01   1.00800           0
     15673 MEMB     131      POPC     C310     CTL2    -0.180000       12.0110           0
     15674 MEMB     131      POPC     H10X     HAL2     0.900000E-01   1.00800           0
     15675 MEMB     131      POPC     H10Y     HAL2     0.900000E-01   1.00800           0
     15676 MEMB     131      POPC     C311     CTL2    -0.180000       12.0110           0
     15677 MEMB     131      POPC     H11X     HAL2     0.900000E-01   1.00800           0
     15678 MEMB     131      POPC     H11Y     HAL2     0.900000E-01   1.00800           0
     15679 MEMB     131      POPC     C312     CTL2    -0.180000       12.0110           0
     15680 MEMB     131      POPC     H12X     HAL2     0.900000E-01   1.00800           0
     15681 MEMB     131      POPC     H12Y     HAL2     0.900000E-01   1.00800           0
     15682 MEMB     131      POPC     C313     CTL2    -0.180000       12.0110           0
     15683 MEMB     131      POPC     H13X     HAL2     0.900000E-01   1.00800           0
     15684 MEMB     131      POPC     H13Y     HAL2     0.900000E-01   1.00800           0
     15685 MEMB     131      POPC     C314     CTL2    -0.180000       12.0110           0
     15686 MEMB     131      POPC     H14X     HAL2     0.900000E-01   1.00800           0
     15687 MEMB     131      POPC     H14Y     HAL2     0.900000E-01   1.00800           0
     15688 MEMB     131      POPC     C315     CTL2    -0.180000       12.0110           0
     15689 MEMB     131      POPC     H15X     HAL2     0.900000E-01   1.00800           0
     15690 MEMB     131      POPC     H15Y     HAL2     0.900000E-01   1.00800           0
     15691 MEMB     131      POPC     C316     CTL3    -0.270000       12.0110           0
     15692 MEMB     131      POPC     H16X     HAL3     0.900000E-01   1.00800           0
     15693 MEMB     131      POPC     H16Y     HAL3     0.900000E-01   1.00800           0
     15694 MEMB     131      POPC     H16Z     HAL3     0.900000E-01   1.00800           0
     15695 MEMB     132      POPC     N        NTL     -0.600000       14.0070           0
     15696 MEMB     132      POPC     C12      CTL2    -0.100000       12.0110           0
     15697 MEMB     132      POPC     H12A     HL       0.250000       1.00800           0
     15698 MEMB     132      POPC     H12B     HL       0.250000       1.00800           0
     15699 MEMB     132      POPC     C13      CTL5    -0.350000       12.0110           0
     15700 MEMB     132      POPC     H13A     HL       0.250000       1.00800           0
     15701 MEMB     132      POPC     H13B     HL       0.250000       1.00800           0
     15702 MEMB     132      POPC     H13C     HL       0.250000       1.00800           0
     15703 MEMB     132      POPC     C14      CTL5    -0.350000       12.0110           0
     15704 MEMB     132      POPC     H14A     HL       0.250000       1.00800           0
     15705 MEMB     132      POPC     H14B     HL       0.250000       1.00800           0
     15706 MEMB     132      POPC     H14C     HL       0.250000       1.00800           0
     15707 MEMB     132      POPC     C15      CTL5    -0.350000       12.0110           0
     15708 MEMB     132      POPC     H15A     HL       0.250000       1.00800           0
     15709 MEMB     132      POPC     H15B     HL       0.250000       1.00800           0
     15710 MEMB     132      POPC     H15C     HL       0.250000       1.00800           0
     15711 MEMB     132      POPC     C11      CTL2    -0.800000E-01   12.0110           0
     15712 MEMB     132      POPC     H11A     HAL2     0.900000E-01   1.00800           0
     15713 MEMB     132      POPC     H11B     HAL2     0.900000E-01   1.00800           0
     15714 MEMB     132      POPC     P        PL        1.50000       30.9740           0
     15715 MEMB     132      POPC     O13      O2L     -0.780000       15.9994           0
     15716 MEMB     132      POPC     O14      O2L     -0.780000       15.9994           0
     15717 MEMB     132      POPC     O12      OSLP    -0.570000       15.9994           0
     15718 MEMB     132      POPC     O11      OSLP    -0.570000       15.9994           0
     15719 MEMB     132      POPC     C1       CTL2    -0.800000E-01   12.0110           0
     15720 MEMB     132      POPC     HA       HAL2     0.900000E-01   1.00800           0
     15721 MEMB     132      POPC     HB       HAL2     0.900000E-01   1.00800           0
     15722 MEMB     132      POPC     C2       CTL1     0.170000       12.0110           0
     15723 MEMB     132      POPC     HS       HAL1     0.900000E-01   1.00800           0
     15724 MEMB     132      POPC     O21      OSL     -0.490000       15.9994           0
     15725 MEMB     132      POPC     C21      CL       0.900000       12.0110           0
     15726 MEMB     132      POPC     O22      OBL     -0.630000       15.9994           0
     15727 MEMB     132      POPC     C22      CTL2    -0.220000       12.0110           0
     15728 MEMB     132      POPC     H2R      HAL2     0.900000E-01   1.00800           0
     15729 MEMB     132      POPC     H2S      HAL2     0.900000E-01   1.00800           0
     15730 MEMB     132      POPC     C3       CTL2     0.800000E-01   12.0110           0
     15731 MEMB     132      POPC     HX       HAL2     0.900000E-01   1.00800           0
     15732 MEMB     132      POPC     HY       HAL2     0.900000E-01   1.00800           0
     15733 MEMB     132      POPC     O31      OSL     -0.490000       15.9994           0
     15734 MEMB     132      POPC     C31      CL       0.900000       12.0110           0
     15735 MEMB     132      POPC     O32      OBL     -0.630000       15.9994           0
     15736 MEMB     132      POPC     C32      CTL2    -0.220000       12.0110           0
     15737 MEMB     132      POPC     H2X      HAL2     0.900000E-01   1.00800           0
     15738 MEMB     132      POPC     H2Y      HAL2     0.900000E-01   1.00800           0
     15739 MEMB     132      POPC     C23      CTL2    -0.180000       12.0110           0
     15740 MEMB     132      POPC     H3R      HAL2     0.900000E-01   1.00800           0
     15741 MEMB     132      POPC     H3S      HAL2     0.900000E-01   1.00800           0
     15742 MEMB     132      POPC     C24      CTL2    -0.180000       12.0110           0
     15743 MEMB     132      POPC     H4R      HAL2     0.900000E-01   1.00800           0
     15744 MEMB     132      POPC     H4S      HAL2     0.900000E-01   1.00800           0
     15745 MEMB     132      POPC     C25      CTL2    -0.180000       12.0110           0
     15746 MEMB     132      POPC     H5R      HAL2     0.900000E-01   1.00800           0
     15747 MEMB     132      POPC     H5S      HAL2     0.900000E-01   1.00800           0
     15748 MEMB     132      POPC     C26      CTL2    -0.180000       12.0110           0
     15749 MEMB     132      POPC     H6R      HAL2     0.900000E-01   1.00800           0
     15750 MEMB     132      POPC     H6S      HAL2     0.900000E-01   1.00800           0
     15751 MEMB     132      POPC     C27      CTL2    -0.180000       12.0110           0
     15752 MEMB     132      POPC     H7R      HAL2     0.900000E-01   1.00800           0
     15753 MEMB     132      POPC     H7S      HAL2     0.900000E-01   1.00800           0
     15754 MEMB     132      POPC     C28      CTL2    -0.180000       12.0110           0
     15755 MEMB     132      POPC     H8R      HAL2     0.900000E-01   1.00800           0
     15756 MEMB     132      POPC     H8S      HAL2     0.900000E-01   1.00800           0
     15757 MEMB     132      POPC     C29      CEL1    -0.150000       12.0110           0
     15758 MEMB     132      POPC     H91      HEL1     0.150000       1.00800           0
     15759 MEMB     132      POPC     C210     CEL1    -0.150000       12.0110           0
     15760 MEMB     132      POPC     H101     HEL1     0.150000       1.00800           0
     15761 MEMB     132      POPC     C211     CTL2    -0.180000       12.0110           0
     15762 MEMB     132      POPC     H11R     HAL2     0.900000E-01   1.00800           0
     15763 MEMB     132      POPC     H11S     HAL2     0.900000E-01   1.00800           0
     15764 MEMB     132      POPC     C212     CTL2    -0.180000       12.0110           0
     15765 MEMB     132      POPC     H12R     HAL2     0.900000E-01   1.00800           0
     15766 MEMB     132      POPC     H12S     HAL2     0.900000E-01   1.00800           0
     15767 MEMB     132      POPC     C213     CTL2    -0.180000       12.0110           0
     15768 MEMB     132      POPC     H13R     HAL2     0.900000E-01   1.00800           0
     15769 MEMB     132      POPC     H13S     HAL2     0.900000E-01   1.00800           0
     15770 MEMB     132      POPC     C214     CTL2    -0.180000       12.0110           0
     15771 MEMB     132      POPC     H14R     HAL2     0.900000E-01   1.00800           0
     15772 MEMB     132      POPC     H14S     HAL2     0.900000E-01   1.00800           0
     15773 MEMB     132      POPC     C215     CTL2    -0.180000       12.0110           0
     15774 MEMB     132      POPC     H15R     HAL2     0.900000E-01   1.00800           0
     15775 MEMB     132      POPC     H15S     HAL2     0.900000E-01   1.00800           0
     15776 MEMB     132      POPC     C216     CTL2    -0.180000       12.0110           0
     15777 MEMB     132      POPC     H16R     HAL2     0.900000E-01   1.00800           0
     15778 MEMB     132      POPC     H16S     HAL2     0.900000E-01   1.00800           0
     15779 MEMB     132      POPC     C217     CTL2    -0.180000       12.0110           0
     15780 MEMB     132      POPC     H17R     HAL2     0.900000E-01   1.00800           0
     15781 MEMB     132      POPC     H17S     HAL2     0.900000E-01   1.00800           0
     15782 MEMB     132      POPC     C218     CTL3    -0.270000       12.0110           0
     15783 MEMB     132      POPC     H18R     HAL3     0.900000E-01   1.00800           0
     15784 MEMB     132      POPC     H18S     HAL3     0.900000E-01   1.00800           0
     15785 MEMB     132      POPC     H18T     HAL3     0.900000E-01   1.00800           0
     15786 MEMB     132      POPC     C33      CTL2    -0.180000       12.0110           0
     15787 MEMB     132      POPC     H3X      HAL2     0.900000E-01   1.00800           0
     15788 MEMB     132      POPC     H3Y      HAL2     0.900000E-01   1.00800           0
     15789 MEMB     132      POPC     C34      CTL2    -0.180000       12.0110           0
     15790 MEMB     132      POPC     H4X      HAL2     0.900000E-01   1.00800           0
     15791 MEMB     132      POPC     H4Y      HAL2     0.900000E-01   1.00800           0
     15792 MEMB     132      POPC     C35      CTL2    -0.180000       12.0110           0
     15793 MEMB     132      POPC     H5X      HAL2     0.900000E-01   1.00800           0
     15794 MEMB     132      POPC     H5Y      HAL2     0.900000E-01   1.00800           0
     15795 MEMB     132      POPC     C36      CTL2    -0.180000       12.0110           0
     15796 MEMB     132      POPC     H6X      HAL2     0.900000E-01   1.00800           0
     15797 MEMB     132      POPC     H6Y      HAL2     0.900000E-01   1.00800           0
     15798 MEMB     132      POPC     C37      CTL2    -0.180000       12.0110           0
     15799 MEMB     132      POPC     H7X      HAL2     0.900000E-01   1.00800           0
     15800 MEMB     132      POPC     H7Y      HAL2     0.900000E-01   1.00800           0
     15801 MEMB     132      POPC     C38      CTL2    -0.180000       12.0110           0
     15802 MEMB     132      POPC     H8X      HAL2     0.900000E-01   1.00800           0
     15803 MEMB     132      POPC     H8Y      HAL2     0.900000E-01   1.00800           0
     15804 MEMB     132      POPC     C39      CTL2    -0.180000       12.0110           0
     15805 MEMB     132      POPC     H9X      HAL2     0.900000E-01   1.00800           0
     15806 MEMB     132      POPC     H9Y      HAL2     0.900000E-01   1.00800           0
     15807 MEMB     132      POPC     C310     CTL2    -0.180000       12.0110           0
     15808 MEMB     132      POPC     H10X     HAL2     0.900000E-01   1.00800           0
     15809 MEMB     132      POPC     H10Y     HAL2     0.900000E-01   1.00800           0
     15810 MEMB     132      POPC     C311     CTL2    -0.180000       12.0110           0
     15811 MEMB     132      POPC     H11X     HAL2     0.900000E-01   1.00800           0
     15812 MEMB     132      POPC     H11Y     HAL2     0.900000E-01   1.00800           0
     15813 MEMB     132      POPC     C312     CTL2    -0.180000       12.0110           0
     15814 MEMB     132      POPC     H12X     HAL2     0.900000E-01   1.00800           0
     15815 MEMB     132      POPC     H12Y     HAL2     0.900000E-01   1.00800           0
     15816 MEMB     132      POPC     C313     CTL2    -0.180000       12.0110           0
     15817 MEMB     132      POPC     H13X     HAL2     0.900000E-01   1.00800           0
     15818 MEMB     132      POPC     H13Y     HAL2     0.900000E-01   1.00800           0
     15819 MEMB     132      POPC     C314     CTL2    -0.180000       12.0110           0
     15820 MEMB     132      POPC     H14X     HAL2     0.900000E-01   1.00800           0
     15821 MEMB     132      POPC     H14Y     HAL2     0.900000E-01   1.00800           0
     15822 MEMB     132      POPC     C315     CTL2    -0.180000       12.0110           0
     15823 MEMB     132      POPC     H15X     HAL2     0.900000E-01   1.00800           0
     15824 MEMB     132      POPC     H15Y     HAL2     0.900000E-01   1.00800           0
     15825 MEMB     132      POPC     C316     CTL3    -0.270000       12.0110           0
     15826 MEMB     132      POPC     H16X     HAL3     0.900000E-01   1.00800           0
     15827 MEMB     132      POPC     H16Y     HAL3     0.900000E-01   1.00800           0
     15828 MEMB     132      POPC     H16Z     HAL3     0.900000E-01   1.00800           0
     15829 MEMB     133      POPC     N        NTL     -0.600000       14.0070           0
     15830 MEMB     133      POPC     C12      CTL2    -0.100000       12.0110           0
     15831 MEMB     133      POPC     H12A     HL       0.250000       1.00800           0
     15832 MEMB     133      POPC     H12B     HL       0.250000       1.00800           0
     15833 MEMB     133      POPC     C13      CTL5    -0.350000       12.0110           0
     15834 MEMB     133      POPC     H13A     HL       0.250000       1.00800           0
     15835 MEMB     133      POPC     H13B     HL       0.250000       1.00800           0
     15836 MEMB     133      POPC     H13C     HL       0.250000       1.00800           0
     15837 MEMB     133      POPC     C14      CTL5    -0.350000       12.0110           0
     15838 MEMB     133      POPC     H14A     HL       0.250000       1.00800           0
     15839 MEMB     133      POPC     H14B     HL       0.250000       1.00800           0
     15840 MEMB     133      POPC     H14C     HL       0.250000       1.00800           0
     15841 MEMB     133      POPC     C15      CTL5    -0.350000       12.0110           0
     15842 MEMB     133      POPC     H15A     HL       0.250000       1.00800           0
     15843 MEMB     133      POPC     H15B     HL       0.250000       1.00800           0
     15844 MEMB     133      POPC     H15C     HL       0.250000       1.00800           0
     15845 MEMB     133      POPC     C11      CTL2    -0.800000E-01   12.0110           0
     15846 MEMB     133      POPC     H11A     HAL2     0.900000E-01   1.00800           0
     15847 MEMB     133      POPC     H11B     HAL2     0.900000E-01   1.00800           0
     15848 MEMB     133      POPC     P        PL        1.50000       30.9740           0
     15849 MEMB     133      POPC     O13      O2L     -0.780000       15.9994           0
     15850 MEMB     133      POPC     O14      O2L     -0.780000       15.9994           0
     15851 MEMB     133      POPC     O12      OSLP    -0.570000       15.9994           0
     15852 MEMB     133      POPC     O11      OSLP    -0.570000       15.9994           0
     15853 MEMB     133      POPC     C1       CTL2    -0.800000E-01   12.0110           0
     15854 MEMB     133      POPC     HA       HAL2     0.900000E-01   1.00800           0
     15855 MEMB     133      POPC     HB       HAL2     0.900000E-01   1.00800           0
     15856 MEMB     133      POPC     C2       CTL1     0.170000       12.0110           0
     15857 MEMB     133      POPC     HS       HAL1     0.900000E-01   1.00800           0
     15858 MEMB     133      POPC     O21      OSL     -0.490000       15.9994           0
     15859 MEMB     133      POPC     C21      CL       0.900000       12.0110           0
     15860 MEMB     133      POPC     O22      OBL     -0.630000       15.9994           0
     15861 MEMB     133      POPC     C22      CTL2    -0.220000       12.0110           0
     15862 MEMB     133      POPC     H2R      HAL2     0.900000E-01   1.00800           0
     15863 MEMB     133      POPC     H2S      HAL2     0.900000E-01   1.00800           0
     15864 MEMB     133      POPC     C3       CTL2     0.800000E-01   12.0110           0
     15865 MEMB     133      POPC     HX       HAL2     0.900000E-01   1.00800           0
     15866 MEMB     133      POPC     HY       HAL2     0.900000E-01   1.00800           0
     15867 MEMB     133      POPC     O31      OSL     -0.490000       15.9994           0
     15868 MEMB     133      POPC     C31      CL       0.900000       12.0110           0
     15869 MEMB     133      POPC     O32      OBL     -0.630000       15.9994           0
     15870 MEMB     133      POPC     C32      CTL2    -0.220000       12.0110           0
     15871 MEMB     133      POPC     H2X      HAL2     0.900000E-01   1.00800           0
     15872 MEMB     133      POPC     H2Y      HAL2     0.900000E-01   1.00800           0
     15873 MEMB     133      POPC     C23      CTL2    -0.180000       12.0110           0
     15874 MEMB     133      POPC     H3R      HAL2     0.900000E-01   1.00800           0
     15875 MEMB     133      POPC     H3S      HAL2     0.900000E-01   1.00800           0
     15876 MEMB     133      POPC     C24      CTL2    -0.180000       12.0110           0
     15877 MEMB     133      POPC     H4R      HAL2     0.900000E-01   1.00800           0
     15878 MEMB     133      POPC     H4S      HAL2     0.900000E-01   1.00800           0
     15879 MEMB     133      POPC     C25      CTL2    -0.180000       12.0110           0
     15880 MEMB     133      POPC     H5R      HAL2     0.900000E-01   1.00800           0
     15881 MEMB     133      POPC     H5S      HAL2     0.900000E-01   1.00800           0
     15882 MEMB     133      POPC     C26      CTL2    -0.180000       12.0110           0
     15883 MEMB     133      POPC     H6R      HAL2     0.900000E-01   1.00800           0
     15884 MEMB     133      POPC     H6S      HAL2     0.900000E-01   1.00800           0
     15885 MEMB     133      POPC     C27      CTL2    -0.180000       12.0110           0
     15886 MEMB     133      POPC     H7R      HAL2     0.900000E-01   1.00800           0
     15887 MEMB     133      POPC     H7S      HAL2     0.900000E-01   1.00800           0
     15888 MEMB     133      POPC     C28      CTL2    -0.180000       12.0110           0
     15889 MEMB     133      POPC     H8R      HAL2     0.900000E-01   1.00800           0
     15890 MEMB     133      POPC     H8S      HAL2     0.900000E-01   1.00800           0
     15891 MEMB     133      POPC     C29      CEL1    -0.150000       12.0110           0
     15892 MEMB     133      POPC     H91      HEL1     0.150000       1.00800           0
     15893 MEMB     133      POPC     C210     CEL1    -0.150000       12.0110           0
     15894 MEMB     133      POPC     H101     HEL1     0.150000       1.00800           0
     15895 MEMB     133      POPC     C211     CTL2    -0.180000       12.0110           0
     15896 MEMB     133      POPC     H11R     HAL2     0.900000E-01   1.00800           0
     15897 MEMB     133      POPC     H11S     HAL2     0.900000E-01   1.00800           0
     15898 MEMB     133      POPC     C212     CTL2    -0.180000       12.0110           0
     15899 MEMB     133      POPC     H12R     HAL2     0.900000E-01   1.00800           0
     15900 MEMB     133      POPC     H12S     HAL2     0.900000E-01   1.00800           0
     15901 MEMB     133      POPC     C213     CTL2    -0.180000       12.0110           0
     15902 MEMB     133      POPC     H13R     HAL2     0.900000E-01   1.00800           0
     15903 MEMB     133      POPC     H13S     HAL2     0.900000E-01   1.00800           0
     15904 MEMB     133      POPC     C214     CTL2    -0.180000       12.0110           0
     15905 MEMB     133      POPC     H14R     HAL2     0.900000E-01   1.00800           0
     15906 MEMB     133      POPC     H14S     HAL2     0.900000E-01   1.00800           0
     15907 MEMB     133      POPC     C215     CTL2    -0.180000       12.0110           0
     15908 MEMB     133      POPC     H15R     HAL2     0.900000E-01   1.00800           0
     15909 MEMB     133      POPC     H15S     HAL2     0.900000E-01   1.00800           0
     15910 MEMB     133      POPC     C216     CTL2    -0.180000       12.0110           0
     15911 MEMB     133      POPC     H16R     HAL2     0.900000E-01   1.00800           0
     15912 MEMB     133      POPC     H16S     HAL2     0.900000E-01   1.00800           0
     15913 MEMB     133      POPC     C217     CTL2    -0.180000       12.0110           0
     15914 MEMB     133      POPC     H17R     HAL2     0.900000E-01   1.00800           0
     15915 MEMB     133      POPC     H17S     HAL2     0.900000E-01   1.00800           0
     15916 MEMB     133      POPC     C218     CTL3    -0.270000       12.0110           0
     15917 MEMB     133      POPC     H18R     HAL3     0.900000E-01   1.00800           0
     15918 MEMB     133      POPC     H18S     HAL3     0.900000E-01   1.00800           0
     15919 MEMB     133      POPC     H18T     HAL3     0.900000E-01   1.00800           0
     15920 MEMB     133      POPC     C33      CTL2    -0.180000       12.0110           0
     15921 MEMB     133      POPC     H3X      HAL2     0.900000E-01   1.00800           0
     15922 MEMB     133      POPC     H3Y      HAL2     0.900000E-01   1.00800           0
     15923 MEMB     133      POPC     C34      CTL2    -0.180000       12.0110           0
     15924 MEMB     133      POPC     H4X      HAL2     0.900000E-01   1.00800           0
     15925 MEMB     133      POPC     H4Y      HAL2     0.900000E-01   1.00800           0
     15926 MEMB     133      POPC     C35      CTL2    -0.180000       12.0110           0
     15927 MEMB     133      POPC     H5X      HAL2     0.900000E-01   1.00800           0
     15928 MEMB     133      POPC     H5Y      HAL2     0.900000E-01   1.00800           0
     15929 MEMB     133      POPC     C36      CTL2    -0.180000       12.0110           0
     15930 MEMB     133      POPC     H6X      HAL2     0.900000E-01   1.00800           0
     15931 MEMB     133      POPC     H6Y      HAL2     0.900000E-01   1.00800           0
     15932 MEMB     133      POPC     C37      CTL2    -0.180000       12.0110           0
     15933 MEMB     133      POPC     H7X      HAL2     0.900000E-01   1.00800           0
     15934 MEMB     133      POPC     H7Y      HAL2     0.900000E-01   1.00800           0
     15935 MEMB     133      POPC     C38      CTL2    -0.180000       12.0110           0
     15936 MEMB     133      POPC     H8X      HAL2     0.900000E-01   1.00800           0
     15937 MEMB     133      POPC     H8Y      HAL2     0.900000E-01   1.00800           0
     15938 MEMB     133      POPC     C39      CTL2    -0.180000       12.0110           0
     15939 MEMB     133      POPC     H9X      HAL2     0.900000E-01   1.00800           0
     15940 MEMB     133      POPC     H9Y      HAL2     0.900000E-01   1.00800           0
     15941 MEMB     133      POPC     C310     CTL2    -0.180000       12.0110           0
     15942 MEMB     133      POPC     H10X     HAL2     0.900000E-01   1.00800           0
     15943 MEMB     133      POPC     H10Y     HAL2     0.900000E-01   1.00800           0
     15944 MEMB     133      POPC     C311     CTL2    -0.180000       12.0110           0
     15945 MEMB     133      POPC     H11X     HAL2     0.900000E-01   1.00800           0
     15946 MEMB     133      POPC     H11Y     HAL2     0.900000E-01   1.00800           0
     15947 MEMB     133      POPC     C312     CTL2    -0.180000       12.0110           0
     15948 MEMB     133      POPC     H12X     HAL2     0.900000E-01   1.00800           0
     15949 MEMB     133      POPC     H12Y     HAL2     0.900000E-01   1.00800           0
     15950 MEMB     133      POPC     C313     CTL2    -0.180000       12.0110           0
     15951 MEMB     133      POPC     H13X     HAL2     0.900000E-01   1.00800           0
     15952 MEMB     133      POPC     H13Y     HAL2     0.900000E-01   1.00800           0
     15953 MEMB     133      POPC     C314     CTL2    -0.180000       12.0110           0
     15954 MEMB     133      POPC     H14X     HAL2     0.900000E-01   1.00800           0
     15955 MEMB     133      POPC     H14Y     HAL2     0.900000E-01   1.00800           0
     15956 MEMB     133      POPC     C315     CTL2    -0.180000       12.0110           0
     15957 MEMB     133      POPC     H15X     HAL2     0.900000E-01   1.00800           0
     15958 MEMB     133      POPC     H15Y     HAL2     0.900000E-01   1.00800           0
     15959 MEMB     133      POPC     C316     CTL3    -0.270000       12.0110           0
     15960 MEMB     133      POPC     H16X     HAL3     0.900000E-01   1.00800           0
     15961 MEMB     133      POPC     H16Y     HAL3     0.900000E-01   1.00800           0
     15962 MEMB     133      POPC     H16Z     HAL3     0.900000E-01   1.00800           0
     15963 MEMB     134      POPC     N        NTL     -0.600000       14.0070           0
     15964 MEMB     134      POPC     C12      CTL2    -0.100000       12.0110           0
     15965 MEMB     134      POPC     H12A     HL       0.250000       1.00800           0
     15966 MEMB     134      POPC     H12B     HL       0.250000       1.00800           0
     15967 MEMB     134      POPC     C13      CTL5    -0.350000       12.0110           0
     15968 MEMB     134      POPC     H13A     HL       0.250000       1.00800           0
     15969 MEMB     134      POPC     H13B     HL       0.250000       1.00800           0
     15970 MEMB     134      POPC     H13C     HL       0.250000       1.00800           0
     15971 MEMB     134      POPC     C14      CTL5    -0.350000       12.0110           0
     15972 MEMB     134      POPC     H14A     HL       0.250000       1.00800           0
     15973 MEMB     134      POPC     H14B     HL       0.250000       1.00800           0
     15974 MEMB     134      POPC     H14C     HL       0.250000       1.00800           0
     15975 MEMB     134      POPC     C15      CTL5    -0.350000       12.0110           0
     15976 MEMB     134      POPC     H15A     HL       0.250000       1.00800           0
     15977 MEMB     134      POPC     H15B     HL       0.250000       1.00800           0
     15978 MEMB     134      POPC     H15C     HL       0.250000       1.00800           0
     15979 MEMB     134      POPC     C11      CTL2    -0.800000E-01   12.0110           0
     15980 MEMB     134      POPC     H11A     HAL2     0.900000E-01   1.00800           0
     15981 MEMB     134      POPC     H11B     HAL2     0.900000E-01   1.00800           0
     15982 MEMB     134      POPC     P        PL        1.50000       30.9740           0
     15983 MEMB     134      POPC     O13      O2L     -0.780000       15.9994           0
     15984 MEMB     134      POPC     O14      O2L     -0.780000       15.9994           0
     15985 MEMB     134      POPC     O12      OSLP    -0.570000       15.9994           0
     15986 MEMB     134      POPC     O11      OSLP    -0.570000       15.9994           0
     15987 MEMB     134      POPC     C1       CTL2    -0.800000E-01   12.0110           0
     15988 MEMB     134      POPC     HA       HAL2     0.900000E-01   1.00800           0
     15989 MEMB     134      POPC     HB       HAL2     0.900000E-01   1.00800           0
     15990 MEMB     134      POPC     C2       CTL1     0.170000       12.0110           0
     15991 MEMB     134      POPC     HS       HAL1     0.900000E-01   1.00800           0
     15992 MEMB     134      POPC     O21      OSL     -0.490000       15.9994           0
     15993 MEMB     134      POPC     C21      CL       0.900000       12.0110           0
     15994 MEMB     134      POPC     O22      OBL     -0.630000       15.9994           0
     15995 MEMB     134      POPC     C22      CTL2    -0.220000       12.0110           0
     15996 MEMB     134      POPC     H2R      HAL2     0.900000E-01   1.00800           0
     15997 MEMB     134      POPC     H2S      HAL2     0.900000E-01   1.00800           0
     15998 MEMB     134      POPC     C3       CTL2     0.800000E-01   12.0110           0
     15999 MEMB     134      POPC     HX       HAL2     0.900000E-01   1.00800           0
     16000 MEMB     134      POPC     HY       HAL2     0.900000E-01   1.00800           0
     16001 MEMB     134      POPC     O31      OSL     -0.490000       15.9994           0
     16002 MEMB     134      POPC     C31      CL       0.900000       12.0110           0
     16003 MEMB     134      POPC     O32      OBL     -0.630000       15.9994           0
     16004 MEMB     134      POPC     C32      CTL2    -0.220000       12.0110           0
     16005 MEMB     134      POPC     H2X      HAL2     0.900000E-01   1.00800           0
     16006 MEMB     134      POPC     H2Y      HAL2     0.900000E-01   1.00800           0
     16007 MEMB     134      POPC     C23      CTL2    -0.180000       12.0110           0
     16008 MEMB     134      POPC     H3R      HAL2     0.900000E-01   1.00800           0
     16009 MEMB     134      POPC     H3S      HAL2     0.900000E-01   1.00800           0
     16010 MEMB     134      POPC     C24      CTL2    -0.180000       12.0110           0
     16011 MEMB     134      POPC     H4R      HAL2     0.900000E-01   1.00800           0
     16012 MEMB     134      POPC     H4S      HAL2     0.900000E-01   1.00800           0
     16013 MEMB     134      POPC     C25      CTL2    -0.180000       12.0110           0
     16014 MEMB     134      POPC     H5R      HAL2     0.900000E-01   1.00800           0
     16015 MEMB     134      POPC     H5S      HAL2     0.900000E-01   1.00800           0
     16016 MEMB     134      POPC     C26      CTL2    -0.180000       12.0110           0
     16017 MEMB     134      POPC     H6R      HAL2     0.900000E-01   1.00800           0
     16018 MEMB     134      POPC     H6S      HAL2     0.900000E-01   1.00800           0
     16019 MEMB     134      POPC     C27      CTL2    -0.180000       12.0110           0
     16020 MEMB     134      POPC     H7R      HAL2     0.900000E-01   1.00800           0
     16021 MEMB     134      POPC     H7S      HAL2     0.900000E-01   1.00800           0
     16022 MEMB     134      POPC     C28      CTL2    -0.180000       12.0110           0
     16023 MEMB     134      POPC     H8R      HAL2     0.900000E-01   1.00800           0
     16024 MEMB     134      POPC     H8S      HAL2     0.900000E-01   1.00800           0
     16025 MEMB     134      POPC     C29      CEL1    -0.150000       12.0110           0
     16026 MEMB     134      POPC     H91      HEL1     0.150000       1.00800           0
     16027 MEMB     134      POPC     C210     CEL1    -0.150000       12.0110           0
     16028 MEMB     134      POPC     H101     HEL1     0.150000       1.00800           0
     16029 MEMB     134      POPC     C211     CTL2    -0.180000       12.0110           0
     16030 MEMB     134      POPC     H11R     HAL2     0.900000E-01   1.00800           0
     16031 MEMB     134      POPC     H11S     HAL2     0.900000E-01   1.00800           0
     16032 MEMB     134      POPC     C212     CTL2    -0.180000       12.0110           0
     16033 MEMB     134      POPC     H12R     HAL2     0.900000E-01   1.00800           0
     16034 MEMB     134      POPC     H12S     HAL2     0.900000E-01   1.00800           0
     16035 MEMB     134      POPC     C213     CTL2    -0.180000       12.0110           0
     16036 MEMB     134      POPC     H13R     HAL2     0.900000E-01   1.00800           0
     16037 MEMB     134      POPC     H13S     HAL2     0.900000E-01   1.00800           0
     16038 MEMB     134      POPC     C214     CTL2    -0.180000       12.0110           0
     16039 MEMB     134      POPC     H14R     HAL2     0.900000E-01   1.00800           0
     16040 MEMB     134      POPC     H14S     HAL2     0.900000E-01   1.00800           0
     16041 MEMB     134      POPC     C215     CTL2    -0.180000       12.0110           0
     16042 MEMB     134      POPC     H15R     HAL2     0.900000E-01   1.00800           0
     16043 MEMB     134      POPC     H15S     HAL2     0.900000E-01   1.00800           0
     16044 MEMB     134      POPC     C216     CTL2    -0.180000       12.0110           0
     16045 MEMB     134      POPC     H16R     HAL2     0.900000E-01   1.00800           0
     16046 MEMB     134      POPC     H16S     HAL2     0.900000E-01   1.00800           0
     16047 MEMB     134      POPC     C217     CTL2    -0.180000       12.0110           0
     16048 MEMB     134      POPC     H17R     HAL2     0.900000E-01   1.00800           0
     16049 MEMB     134      POPC     H17S     HAL2     0.900000E-01   1.00800           0
     16050 MEMB     134      POPC     C218     CTL3    -0.270000       12.0110           0
     16051 MEMB     134      POPC     H18R     HAL3     0.900000E-01   1.00800           0
     16052 MEMB     134      POPC     H18S     HAL3     0.900000E-01   1.00800           0
     16053 MEMB     134      POPC     H18T     HAL3     0.900000E-01   1.00800           0
     16054 MEMB     134      POPC     C33      CTL2    -0.180000       12.0110           0
     16055 MEMB     134      POPC     H3X      HAL2     0.900000E-01   1.00800           0
     16056 MEMB     134      POPC     H3Y      HAL2     0.900000E-01   1.00800           0
     16057 MEMB     134      POPC     C34      CTL2    -0.180000       12.0110           0
     16058 MEMB     134      POPC     H4X      HAL2     0.900000E-01   1.00800           0
     16059 MEMB     134      POPC     H4Y      HAL2     0.900000E-01   1.00800           0
     16060 MEMB     134      POPC     C35      CTL2    -0.180000       12.0110           0
     16061 MEMB     134      POPC     H5X      HAL2     0.900000E-01   1.00800           0
     16062 MEMB     134      POPC     H5Y      HAL2     0.900000E-01   1.00800           0
     16063 MEMB     134      POPC     C36      CTL2    -0.180000       12.0110           0
     16064 MEMB     134      POPC     H6X      HAL2     0.900000E-01   1.00800           0
     16065 MEMB     134      POPC     H6Y      HAL2     0.900000E-01   1.00800           0
     16066 MEMB     134      POPC     C37      CTL2    -0.180000       12.0110           0
     16067 MEMB     134      POPC     H7X      HAL2     0.900000E-01   1.00800           0
     16068 MEMB     134      POPC     H7Y      HAL2     0.900000E-01   1.00800           0
     16069 MEMB     134      POPC     C38      CTL2    -0.180000       12.0110           0
     16070 MEMB     134      POPC     H8X      HAL2     0.900000E-01   1.00800           0
     16071 MEMB     134      POPC     H8Y      HAL2     0.900000E-01   1.00800           0
     16072 MEMB     134      POPC     C39      CTL2    -0.180000       12.0110           0
     16073 MEMB     134      POPC     H9X      HAL2     0.900000E-01   1.00800           0
     16074 MEMB     134      POPC     H9Y      HAL2     0.900000E-01   1.00800           0
     16075 MEMB     134      POPC     C310     CTL2    -0.180000       12.0110           0
     16076 MEMB     134      POPC     H10X     HAL2     0.900000E-01   1.00800           0
     16077 MEMB     134      POPC     H10Y     HAL2     0.900000E-01   1.00800           0
     16078 MEMB     134      POPC     C311     CTL2    -0.180000       12.0110           0
     16079 MEMB     134      POPC     H11X     HAL2     0.900000E-01   1.00800           0
     16080 MEMB     134      POPC     H11Y     HAL2     0.900000E-01   1.00800           0
     16081 MEMB     134      POPC     C312     CTL2    -0.180000       12.0110           0
     16082 MEMB     134      POPC     H12X     HAL2     0.900000E-01   1.00800           0
     16083 MEMB     134      POPC     H12Y     HAL2     0.900000E-01   1.00800           0
     16084 MEMB     134      POPC     C313     CTL2    -0.180000       12.0110           0
     16085 MEMB     134      POPC     H13X     HAL2     0.900000E-01   1.00800           0
     16086 MEMB     134      POPC     H13Y     HAL2     0.900000E-01   1.00800           0
     16087 MEMB     134      POPC     C314     CTL2    -0.180000       12.0110           0
     16088 MEMB     134      POPC     H14X     HAL2     0.900000E-01   1.00800           0
     16089 MEMB     134      POPC     H14Y     HAL2     0.900000E-01   1.00800           0
     16090 MEMB     134      POPC     C315     CTL2    -0.180000       12.0110           0
     16091 MEMB     134      POPC     H15X     HAL2     0.900000E-01   1.00800           0
     16092 MEMB     134      POPC     H15Y     HAL2     0.900000E-01   1.00800           0
     16093 MEMB     134      POPC     C316     CTL3    -0.270000       12.0110           0
     16094 MEMB     134      POPC     H16X     HAL3     0.900000E-01   1.00800           0
     16095 MEMB     134      POPC     H16Y     HAL3     0.900000E-01   1.00800           0
     16096 MEMB     134      POPC     H16Z     HAL3     0.900000E-01   1.00800           0
     16097 MEMB     135      POPC     N        NTL     -0.600000       14.0070           0
     16098 MEMB     135      POPC     C12      CTL2    -0.100000       12.0110           0
     16099 MEMB     135      POPC     H12A     HL       0.250000       1.00800           0
     16100 MEMB     135      POPC     H12B     HL       0.250000       1.00800           0
     16101 MEMB     135      POPC     C13      CTL5    -0.350000       12.0110           0
     16102 MEMB     135      POPC     H13A     HL       0.250000       1.00800           0
     16103 MEMB     135      POPC     H13B     HL       0.250000       1.00800           0
     16104 MEMB     135      POPC     H13C     HL       0.250000       1.00800           0
     16105 MEMB     135      POPC     C14      CTL5    -0.350000       12.0110           0
     16106 MEMB     135      POPC     H14A     HL       0.250000       1.00800           0
     16107 MEMB     135      POPC     H14B     HL       0.250000       1.00800           0
     16108 MEMB     135      POPC     H14C     HL       0.250000       1.00800           0
     16109 MEMB     135      POPC     C15      CTL5    -0.350000       12.0110           0
     16110 MEMB     135      POPC     H15A     HL       0.250000       1.00800           0
     16111 MEMB     135      POPC     H15B     HL       0.250000       1.00800           0
     16112 MEMB     135      POPC     H15C     HL       0.250000       1.00800           0
     16113 MEMB     135      POPC     C11      CTL2    -0.800000E-01   12.0110           0
     16114 MEMB     135      POPC     H11A     HAL2     0.900000E-01   1.00800           0
     16115 MEMB     135      POPC     H11B     HAL2     0.900000E-01   1.00800           0
     16116 MEMB     135      POPC     P        PL        1.50000       30.9740           0
     16117 MEMB     135      POPC     O13      O2L     -0.780000       15.9994           0
     16118 MEMB     135      POPC     O14      O2L     -0.780000       15.9994           0
     16119 MEMB     135      POPC     O12      OSLP    -0.570000       15.9994           0
     16120 MEMB     135      POPC     O11      OSLP    -0.570000       15.9994           0
     16121 MEMB     135      POPC     C1       CTL2    -0.800000E-01   12.0110           0
     16122 MEMB     135      POPC     HA       HAL2     0.900000E-01   1.00800           0
     16123 MEMB     135      POPC     HB       HAL2     0.900000E-01   1.00800           0
     16124 MEMB     135      POPC     C2       CTL1     0.170000       12.0110           0
     16125 MEMB     135      POPC     HS       HAL1     0.900000E-01   1.00800           0
     16126 MEMB     135      POPC     O21      OSL     -0.490000       15.9994           0
     16127 MEMB     135      POPC     C21      CL       0.900000       12.0110           0
     16128 MEMB     135      POPC     O22      OBL     -0.630000       15.9994           0
     16129 MEMB     135      POPC     C22      CTL2    -0.220000       12.0110           0
     16130 MEMB     135      POPC     H2R      HAL2     0.900000E-01   1.00800           0
     16131 MEMB     135      POPC     H2S      HAL2     0.900000E-01   1.00800           0
     16132 MEMB     135      POPC     C3       CTL2     0.800000E-01   12.0110           0
     16133 MEMB     135      POPC     HX       HAL2     0.900000E-01   1.00800           0
     16134 MEMB     135      POPC     HY       HAL2     0.900000E-01   1.00800           0
     16135 MEMB     135      POPC     O31      OSL     -0.490000       15.9994           0
     16136 MEMB     135      POPC     C31      CL       0.900000       12.0110           0
     16137 MEMB     135      POPC     O32      OBL     -0.630000       15.9994           0
     16138 MEMB     135      POPC     C32      CTL2    -0.220000       12.0110           0
     16139 MEMB     135      POPC     H2X      HAL2     0.900000E-01   1.00800           0
     16140 MEMB     135      POPC     H2Y      HAL2     0.900000E-01   1.00800           0
     16141 MEMB     135      POPC     C23      CTL2    -0.180000       12.0110           0
     16142 MEMB     135      POPC     H3R      HAL2     0.900000E-01   1.00800           0
     16143 MEMB     135      POPC     H3S      HAL2     0.900000E-01   1.00800           0
     16144 MEMB     135      POPC     C24      CTL2    -0.180000       12.0110           0
     16145 MEMB     135      POPC     H4R      HAL2     0.900000E-01   1.00800           0
     16146 MEMB     135      POPC     H4S      HAL2     0.900000E-01   1.00800           0
     16147 MEMB     135      POPC     C25      CTL2    -0.180000       12.0110           0
     16148 MEMB     135      POPC     H5R      HAL2     0.900000E-01   1.00800           0
     16149 MEMB     135      POPC     H5S      HAL2     0.900000E-01   1.00800           0
     16150 MEMB     135      POPC     C26      CTL2    -0.180000       12.0110           0
     16151 MEMB     135      POPC     H6R      HAL2     0.900000E-01   1.00800           0
     16152 MEMB     135      POPC     H6S      HAL2     0.900000E-01   1.00800           0
     16153 MEMB     135      POPC     C27      CTL2    -0.180000       12.0110           0
     16154 MEMB     135      POPC     H7R      HAL2     0.900000E-01   1.00800           0
     16155 MEMB     135      POPC     H7S      HAL2     0.900000E-01   1.00800           0
     16156 MEMB     135      POPC     C28      CTL2    -0.180000       12.0110           0
     16157 MEMB     135      POPC     H8R      HAL2     0.900000E-01   1.00800           0
     16158 MEMB     135      POPC     H8S      HAL2     0.900000E-01   1.00800           0
     16159 MEMB     135      POPC     C29      CEL1    -0.150000       12.0110           0
     16160 MEMB     135      POPC     H91      HEL1     0.150000       1.00800           0
     16161 MEMB     135      POPC     C210     CEL1    -0.150000       12.0110           0
     16162 MEMB     135      POPC     H101     HEL1     0.150000       1.00800           0
     16163 MEMB     135      POPC     C211     CTL2    -0.180000       12.0110           0
     16164 MEMB     135      POPC     H11R     HAL2     0.900000E-01   1.00800           0
     16165 MEMB     135      POPC     H11S     HAL2     0.900000E-01   1.00800           0
     16166 MEMB     135      POPC     C212     CTL2    -0.180000       12.0110           0
     16167 MEMB     135      POPC     H12R     HAL2     0.900000E-01   1.00800           0
     16168 MEMB     135      POPC     H12S     HAL2     0.900000E-01   1.00800           0
     16169 MEMB     135      POPC     C213     CTL2    -0.180000       12.0110           0
     16170 MEMB     135      POPC     H13R     HAL2     0.900000E-01   1.00800           0
     16171 MEMB     135      POPC     H13S     HAL2     0.900000E-01   1.00800           0
     16172 MEMB     135      POPC     C214     CTL2    -0.180000       12.0110           0
     16173 MEMB     135      POPC     H14R     HAL2     0.900000E-01   1.00800           0
     16174 MEMB     135      POPC     H14S     HAL2     0.900000E-01   1.00800           0
     16175 MEMB     135      POPC     C215     CTL2    -0.180000       12.0110           0
     16176 MEMB     135      POPC     H15R     HAL2     0.900000E-01   1.00800           0
     16177 MEMB     135      POPC     H15S     HAL2     0.900000E-01   1.00800           0
     16178 MEMB     135      POPC     C216     CTL2    -0.180000       12.0110           0
     16179 MEMB     135      POPC     H16R     HAL2     0.900000E-01   1.00800           0
     16180 MEMB     135      POPC     H16S     HAL2     0.900000E-01   1.00800           0
     16181 MEMB     135      POPC     C217     CTL2    -0.180000       12.0110           0
     16182 MEMB     135      POPC     H17R     HAL2     0.900000E-01   1.00800           0
     16183 MEMB     135      POPC     H17S     HAL2     0.900000E-01   1.00800           0
     16184 MEMB     135      POPC     C218     CTL3    -0.270000       12.0110           0
     16185 MEMB     135      POPC     H18R     HAL3     0.900000E-01   1.00800           0
     16186 MEMB     135      POPC     H18S     HAL3     0.900000E-01   1.00800           0
     16187 MEMB     135      POPC     H18T     HAL3     0.900000E-01   1.00800           0
     16188 MEMB     135      POPC     C33      CTL2    -0.180000       12.0110           0
     16189 MEMB     135      POPC     H3X      HAL2     0.900000E-01   1.00800           0
     16190 MEMB     135      POPC     H3Y      HAL2     0.900000E-01   1.00800           0
     16191 MEMB     135      POPC     C34      CTL2    -0.180000       12.0110           0
     16192 MEMB     135      POPC     H4X      HAL2     0.900000E-01   1.00800           0
     16193 MEMB     135      POPC     H4Y      HAL2     0.900000E-01   1.00800           0
     16194 MEMB     135      POPC     C35      CTL2    -0.180000       12.0110           0
     16195 MEMB     135      POPC     H5X      HAL2     0.900000E-01   1.00800           0
     16196 MEMB     135      POPC     H5Y      HAL2     0.900000E-01   1.00800           0
     16197 MEMB     135      POPC     C36      CTL2    -0.180000       12.0110           0
     16198 MEMB     135      POPC     H6X      HAL2     0.900000E-01   1.00800           0
     16199 MEMB     135      POPC     H6Y      HAL2     0.900000E-01   1.00800           0
     16200 MEMB     135      POPC     C37      CTL2    -0.180000       12.0110           0
     16201 MEMB     135      POPC     H7X      HAL2     0.900000E-01   1.00800           0
     16202 MEMB     135      POPC     H7Y      HAL2     0.900000E-01   1.00800           0
     16203 MEMB     135      POPC     C38      CTL2    -0.180000       12.0110           0
     16204 MEMB     135      POPC     H8X      HAL2     0.900000E-01   1.00800           0
     16205 MEMB     135      POPC     H8Y      HAL2     0.900000E-01   1.00800           0
     16206 MEMB     135      POPC     C39      CTL2    -0.180000       12.0110           0
     16207 MEMB     135      POPC     H9X      HAL2     0.900000E-01   1.00800           0
     16208 MEMB     135      POPC     H9Y      HAL2     0.900000E-01   1.00800           0
     16209 MEMB     135      POPC     C310     CTL2    -0.180000       12.0110           0
     16210 MEMB     135      POPC     H10X     HAL2     0.900000E-01   1.00800           0
     16211 MEMB     135      POPC     H10Y     HAL2     0.900000E-01   1.00800           0
     16212 MEMB     135      POPC     C311     CTL2    -0.180000       12.0110           0
     16213 MEMB     135      POPC     H11X     HAL2     0.900000E-01   1.00800           0
     16214 MEMB     135      POPC     H11Y     HAL2     0.900000E-01   1.00800           0
     16215 MEMB     135      POPC     C312     CTL2    -0.180000       12.0110           0
     16216 MEMB     135      POPC     H12X     HAL2     0.900000E-01   1.00800           0
     16217 MEMB     135      POPC     H12Y     HAL2     0.900000E-01   1.00800           0
     16218 MEMB     135      POPC     C313     CTL2    -0.180000       12.0110           0
     16219 MEMB     135      POPC     H13X     HAL2     0.900000E-01   1.00800           0
     16220 MEMB     135      POPC     H13Y     HAL2     0.900000E-01   1.00800           0
     16221 MEMB     135      POPC     C314     CTL2    -0.180000       12.0110           0
     16222 MEMB     135      POPC     H14X     HAL2     0.900000E-01   1.00800           0
     16223 MEMB     135      POPC     H14Y     HAL2     0.900000E-01   1.00800           0
     16224 MEMB     135      POPC     C315     CTL2    -0.180000       12.0110           0
     16225 MEMB     135      POPC     H15X     HAL2     0.900000E-01   1.00800           0
     16226 MEMB     135      POPC     H15Y     HAL2     0.900000E-01   1.00800           0
     16227 MEMB     135      POPC     C316     CTL3    -0.270000       12.0110           0
     16228 MEMB     135      POPC     H16X     HAL3     0.900000E-01   1.00800           0
     16229 MEMB     135      POPC     H16Y     HAL3     0.900000E-01   1.00800           0
     16230 MEMB     135      POPC     H16Z     HAL3     0.900000E-01   1.00800           0
     16231 MEMB     136      POPC     N        NTL     -0.600000       14.0070           0
     16232 MEMB     136      POPC     C12      CTL2    -0.100000       12.0110           0
     16233 MEMB     136      POPC     H12A     HL       0.250000       1.00800           0
     16234 MEMB     136      POPC     H12B     HL       0.250000       1.00800           0
     16235 MEMB     136      POPC     C13      CTL5    -0.350000       12.0110           0
     16236 MEMB     136      POPC     H13A     HL       0.250000       1.00800           0
     16237 MEMB     136      POPC     H13B     HL       0.250000       1.00800           0
     16238 MEMB     136      POPC     H13C     HL       0.250000       1.00800           0
     16239 MEMB     136      POPC     C14      CTL5    -0.350000       12.0110           0
     16240 MEMB     136      POPC     H14A     HL       0.250000       1.00800           0
     16241 MEMB     136      POPC     H14B     HL       0.250000       1.00800           0
     16242 MEMB     136      POPC     H14C     HL       0.250000       1.00800           0
     16243 MEMB     136      POPC     C15      CTL5    -0.350000       12.0110           0
     16244 MEMB     136      POPC     H15A     HL       0.250000       1.00800           0
     16245 MEMB     136      POPC     H15B     HL       0.250000       1.00800           0
     16246 MEMB     136      POPC     H15C     HL       0.250000       1.00800           0
     16247 MEMB     136      POPC     C11      CTL2    -0.800000E-01   12.0110           0
     16248 MEMB     136      POPC     H11A     HAL2     0.900000E-01   1.00800           0
     16249 MEMB     136      POPC     H11B     HAL2     0.900000E-01   1.00800           0
     16250 MEMB     136      POPC     P        PL        1.50000       30.9740           0
     16251 MEMB     136      POPC     O13      O2L     -0.780000       15.9994           0
     16252 MEMB     136      POPC     O14      O2L     -0.780000       15.9994           0
     16253 MEMB     136      POPC     O12      OSLP    -0.570000       15.9994           0
     16254 MEMB     136      POPC     O11      OSLP    -0.570000       15.9994           0
     16255 MEMB     136      POPC     C1       CTL2    -0.800000E-01   12.0110           0
     16256 MEMB     136      POPC     HA       HAL2     0.900000E-01   1.00800           0
     16257 MEMB     136      POPC     HB       HAL2     0.900000E-01   1.00800           0
     16258 MEMB     136      POPC     C2       CTL1     0.170000       12.0110           0
     16259 MEMB     136      POPC     HS       HAL1     0.900000E-01   1.00800           0
     16260 MEMB     136      POPC     O21      OSL     -0.490000       15.9994           0
     16261 MEMB     136      POPC     C21      CL       0.900000       12.0110           0
     16262 MEMB     136      POPC     O22      OBL     -0.630000       15.9994           0
     16263 MEMB     136      POPC     C22      CTL2    -0.220000       12.0110           0
     16264 MEMB     136      POPC     H2R      HAL2     0.900000E-01   1.00800           0
     16265 MEMB     136      POPC     H2S      HAL2     0.900000E-01   1.00800           0
     16266 MEMB     136      POPC     C3       CTL2     0.800000E-01   12.0110           0
     16267 MEMB     136      POPC     HX       HAL2     0.900000E-01   1.00800           0
     16268 MEMB     136      POPC     HY       HAL2     0.900000E-01   1.00800           0
     16269 MEMB     136      POPC     O31      OSL     -0.490000       15.9994           0
     16270 MEMB     136      POPC     C31      CL       0.900000       12.0110           0
     16271 MEMB     136      POPC     O32      OBL     -0.630000       15.9994           0
     16272 MEMB     136      POPC     C32      CTL2    -0.220000       12.0110           0
     16273 MEMB     136      POPC     H2X      HAL2     0.900000E-01   1.00800           0
     16274 MEMB     136      POPC     H2Y      HAL2     0.900000E-01   1.00800           0
     16275 MEMB     136      POPC     C23      CTL2    -0.180000       12.0110           0
     16276 MEMB     136      POPC     H3R      HAL2     0.900000E-01   1.00800           0
     16277 MEMB     136      POPC     H3S      HAL2     0.900000E-01   1.00800           0
     16278 MEMB     136      POPC     C24      CTL2    -0.180000       12.0110           0
     16279 MEMB     136      POPC     H4R      HAL2     0.900000E-01   1.00800           0
     16280 MEMB     136      POPC     H4S      HAL2     0.900000E-01   1.00800           0
     16281 MEMB     136      POPC     C25      CTL2    -0.180000       12.0110           0
     16282 MEMB     136      POPC     H5R      HAL2     0.900000E-01   1.00800           0
     16283 MEMB     136      POPC     H5S      HAL2     0.900000E-01   1.00800           0
     16284 MEMB     136      POPC     C26      CTL2    -0.180000       12.0110           0
     16285 MEMB     136      POPC     H6R      HAL2     0.900000E-01   1.00800           0
     16286 MEMB     136      POPC     H6S      HAL2     0.900000E-01   1.00800           0
     16287 MEMB     136      POPC     C27      CTL2    -0.180000       12.0110           0
     16288 MEMB     136      POPC     H7R      HAL2     0.900000E-01   1.00800           0
     16289 MEMB     136      POPC     H7S      HAL2     0.900000E-01   1.00800           0
     16290 MEMB     136      POPC     C28      CTL2    -0.180000       12.0110           0
     16291 MEMB     136      POPC     H8R      HAL2     0.900000E-01   1.00800           0
     16292 MEMB     136      POPC     H8S      HAL2     0.900000E-01   1.00800           0
     16293 MEMB     136      POPC     C29      CEL1    -0.150000       12.0110           0
     16294 MEMB     136      POPC     H91      HEL1     0.150000       1.00800           0
     16295 MEMB     136      POPC     C210     CEL1    -0.150000       12.0110           0
     16296 MEMB     136      POPC     H101     HEL1     0.150000       1.00800           0
     16297 MEMB     136      POPC     C211     CTL2    -0.180000       12.0110           0
     16298 MEMB     136      POPC     H11R     HAL2     0.900000E-01   1.00800           0
     16299 MEMB     136      POPC     H11S     HAL2     0.900000E-01   1.00800           0
     16300 MEMB     136      POPC     C212     CTL2    -0.180000       12.0110           0
     16301 MEMB     136      POPC     H12R     HAL2     0.900000E-01   1.00800           0
     16302 MEMB     136      POPC     H12S     HAL2     0.900000E-01   1.00800           0
     16303 MEMB     136      POPC     C213     CTL2    -0.180000       12.0110           0
     16304 MEMB     136      POPC     H13R     HAL2     0.900000E-01   1.00800           0
     16305 MEMB     136      POPC     H13S     HAL2     0.900000E-01   1.00800           0
     16306 MEMB     136      POPC     C214     CTL2    -0.180000       12.0110           0
     16307 MEMB     136      POPC     H14R     HAL2     0.900000E-01   1.00800           0
     16308 MEMB     136      POPC     H14S     HAL2     0.900000E-01   1.00800           0
     16309 MEMB     136      POPC     C215     CTL2    -0.180000       12.0110           0
     16310 MEMB     136      POPC     H15R     HAL2     0.900000E-01   1.00800           0
     16311 MEMB     136      POPC     H15S     HAL2     0.900000E-01   1.00800           0
     16312 MEMB     136      POPC     C216     CTL2    -0.180000       12.0110           0
     16313 MEMB     136      POPC     H16R     HAL2     0.900000E-01   1.00800           0
     16314 MEMB     136      POPC     H16S     HAL2     0.900000E-01   1.00800           0
     16315 MEMB     136      POPC     C217     CTL2    -0.180000       12.0110           0
     16316 MEMB     136      POPC     H17R     HAL2     0.900000E-01   1.00800           0
     16317 MEMB     136      POPC     H17S     HAL2     0.900000E-01   1.00800           0
     16318 MEMB     136      POPC     C218     CTL3    -0.270000       12.0110           0
     16319 MEMB     136      POPC     H18R     HAL3     0.900000E-01   1.00800           0
     16320 MEMB     136      POPC     H18S     HAL3     0.900000E-01   1.00800           0
     16321 MEMB     136      POPC     H18T     HAL3     0.900000E-01   1.00800           0
     16322 MEMB     136      POPC     C33      CTL2    -0.180000       12.0110           0
     16323 MEMB     136      POPC     H3X      HAL2     0.900000E-01   1.00800           0
     16324 MEMB     136      POPC     H3Y      HAL2     0.900000E-01   1.00800           0
     16325 MEMB     136      POPC     C34      CTL2    -0.180000       12.0110           0
     16326 MEMB     136      POPC     H4X      HAL2     0.900000E-01   1.00800           0
     16327 MEMB     136      POPC     H4Y      HAL2     0.900000E-01   1.00800           0
     16328 MEMB     136      POPC     C35      CTL2    -0.180000       12.0110           0
     16329 MEMB     136      POPC     H5X      HAL2     0.900000E-01   1.00800           0
     16330 MEMB     136      POPC     H5Y      HAL2     0.900000E-01   1.00800           0
     16331 MEMB     136      POPC     C36      CTL2    -0.180000       12.0110           0
     16332 MEMB     136      POPC     H6X      HAL2     0.900000E-01   1.00800           0
     16333 MEMB     136      POPC     H6Y      HAL2     0.900000E-01   1.00800           0
     16334 MEMB     136      POPC     C37      CTL2    -0.180000       12.0110           0
     16335 MEMB     136      POPC     H7X      HAL2     0.900000E-01   1.00800           0
     16336 MEMB     136      POPC     H7Y      HAL2     0.900000E-01   1.00800           0
     16337 MEMB     136      POPC     C38      CTL2    -0.180000       12.0110           0
     16338 MEMB     136      POPC     H8X      HAL2     0.900000E-01   1.00800           0
     16339 MEMB     136      POPC     H8Y      HAL2     0.900000E-01   1.00800           0
     16340 MEMB     136      POPC     C39      CTL2    -0.180000       12.0110           0
     16341 MEMB     136      POPC     H9X      HAL2     0.900000E-01   1.00800           0
     16342 MEMB     136      POPC     H9Y      HAL2     0.900000E-01   1.00800           0
     16343 MEMB     136      POPC     C310     CTL2    -0.180000       12.0110           0
     16344 MEMB     136      POPC     H10X     HAL2     0.900000E-01   1.00800           0
     16345 MEMB     136      POPC     H10Y     HAL2     0.900000E-01   1.00800           0
     16346 MEMB     136      POPC     C311     CTL2    -0.180000       12.0110           0
     16347 MEMB     136      POPC     H11X     HAL2     0.900000E-01   1.00800           0
     16348 MEMB     136      POPC     H11Y     HAL2     0.900000E-01   1.00800           0
     16349 MEMB     136      POPC     C312     CTL2    -0.180000       12.0110           0
     16350 MEMB     136      POPC     H12X     HAL2     0.900000E-01   1.00800           0
     16351 MEMB     136      POPC     H12Y     HAL2     0.900000E-01   1.00800           0
     16352 MEMB     136      POPC     C313     CTL2    -0.180000       12.0110           0
     16353 MEMB     136      POPC     H13X     HAL2     0.900000E-01   1.00800           0
     16354 MEMB     136      POPC     H13Y     HAL2     0.900000E-01   1.00800           0
     16355 MEMB     136      POPC     C314     CTL2    -0.180000       12.0110           0
     16356 MEMB     136      POPC     H14X     HAL2     0.900000E-01   1.00800           0
     16357 MEMB     136      POPC     H14Y     HAL2     0.900000E-01   1.00800           0
     16358 MEMB     136      POPC     C315     CTL2    -0.180000       12.0110           0
     16359 MEMB     136      POPC     H15X     HAL2     0.900000E-01   1.00800           0
     16360 MEMB     136      POPC     H15Y     HAL2     0.900000E-01   1.00800           0
     16361 MEMB     136      POPC     C316     CTL3    -0.270000       12.0110           0
     16362 MEMB     136      POPC     H16X     HAL3     0.900000E-01   1.00800           0
     16363 MEMB     136      POPC     H16Y     HAL3     0.900000E-01   1.00800           0
     16364 MEMB     136      POPC     H16Z     HAL3     0.900000E-01   1.00800           0
     16365 MEMB     137      POPC     N        NTL     -0.600000       14.0070           0
     16366 MEMB     137      POPC     C12      CTL2    -0.100000       12.0110           0
     16367 MEMB     137      POPC     H12A     HL       0.250000       1.00800           0
     16368 MEMB     137      POPC     H12B     HL       0.250000       1.00800           0
     16369 MEMB     137      POPC     C13      CTL5    -0.350000       12.0110           0
     16370 MEMB     137      POPC     H13A     HL       0.250000       1.00800           0
     16371 MEMB     137      POPC     H13B     HL       0.250000       1.00800           0
     16372 MEMB     137      POPC     H13C     HL       0.250000       1.00800           0
     16373 MEMB     137      POPC     C14      CTL5    -0.350000       12.0110           0
     16374 MEMB     137      POPC     H14A     HL       0.250000       1.00800           0
     16375 MEMB     137      POPC     H14B     HL       0.250000       1.00800           0
     16376 MEMB     137      POPC     H14C     HL       0.250000       1.00800           0
     16377 MEMB     137      POPC     C15      CTL5    -0.350000       12.0110           0
     16378 MEMB     137      POPC     H15A     HL       0.250000       1.00800           0
     16379 MEMB     137      POPC     H15B     HL       0.250000       1.00800           0
     16380 MEMB     137      POPC     H15C     HL       0.250000       1.00800           0
     16381 MEMB     137      POPC     C11      CTL2    -0.800000E-01   12.0110           0
     16382 MEMB     137      POPC     H11A     HAL2     0.900000E-01   1.00800           0
     16383 MEMB     137      POPC     H11B     HAL2     0.900000E-01   1.00800           0
     16384 MEMB     137      POPC     P        PL        1.50000       30.9740           0
     16385 MEMB     137      POPC     O13      O2L     -0.780000       15.9994           0
     16386 MEMB     137      POPC     O14      O2L     -0.780000       15.9994           0
     16387 MEMB     137      POPC     O12      OSLP    -0.570000       15.9994           0
     16388 MEMB     137      POPC     O11      OSLP    -0.570000       15.9994           0
     16389 MEMB     137      POPC     C1       CTL2    -0.800000E-01   12.0110           0
     16390 MEMB     137      POPC     HA       HAL2     0.900000E-01   1.00800           0
     16391 MEMB     137      POPC     HB       HAL2     0.900000E-01   1.00800           0
     16392 MEMB     137      POPC     C2       CTL1     0.170000       12.0110           0
     16393 MEMB     137      POPC     HS       HAL1     0.900000E-01   1.00800           0
     16394 MEMB     137      POPC     O21      OSL     -0.490000       15.9994           0
     16395 MEMB     137      POPC     C21      CL       0.900000       12.0110           0
     16396 MEMB     137      POPC     O22      OBL     -0.630000       15.9994           0
     16397 MEMB     137      POPC     C22      CTL2    -0.220000       12.0110           0
     16398 MEMB     137      POPC     H2R      HAL2     0.900000E-01   1.00800           0
     16399 MEMB     137      POPC     H2S      HAL2     0.900000E-01   1.00800           0
     16400 MEMB     137      POPC     C3       CTL2     0.800000E-01   12.0110           0
     16401 MEMB     137      POPC     HX       HAL2     0.900000E-01   1.00800           0
     16402 MEMB     137      POPC     HY       HAL2     0.900000E-01   1.00800           0
     16403 MEMB     137      POPC     O31      OSL     -0.490000       15.9994           0
     16404 MEMB     137      POPC     C31      CL       0.900000       12.0110           0
     16405 MEMB     137      POPC     O32      OBL     -0.630000       15.9994           0
     16406 MEMB     137      POPC     C32      CTL2    -0.220000       12.0110           0
     16407 MEMB     137      POPC     H2X      HAL2     0.900000E-01   1.00800           0
     16408 MEMB     137      POPC     H2Y      HAL2     0.900000E-01   1.00800           0
     16409 MEMB     137      POPC     C23      CTL2    -0.180000       12.0110           0
     16410 MEMB     137      POPC     H3R      HAL2     0.900000E-01   1.00800           0
     16411 MEMB     137      POPC     H3S      HAL2     0.900000E-01   1.00800           0
     16412 MEMB     137      POPC     C24      CTL2    -0.180000       12.0110           0
     16413 MEMB     137      POPC     H4R      HAL2     0.900000E-01   1.00800           0
     16414 MEMB     137      POPC     H4S      HAL2     0.900000E-01   1.00800           0
     16415 MEMB     137      POPC     C25      CTL2    -0.180000       12.0110           0
     16416 MEMB     137      POPC     H5R      HAL2     0.900000E-01   1.00800           0
     16417 MEMB     137      POPC     H5S      HAL2     0.900000E-01   1.00800           0
     16418 MEMB     137      POPC     C26      CTL2    -0.180000       12.0110           0
     16419 MEMB     137      POPC     H6R      HAL2     0.900000E-01   1.00800           0
     16420 MEMB     137      POPC     H6S      HAL2     0.900000E-01   1.00800           0
     16421 MEMB     137      POPC     C27      CTL2    -0.180000       12.0110           0
     16422 MEMB     137      POPC     H7R      HAL2     0.900000E-01   1.00800           0
     16423 MEMB     137      POPC     H7S      HAL2     0.900000E-01   1.00800           0
     16424 MEMB     137      POPC     C28      CTL2    -0.180000       12.0110           0
     16425 MEMB     137      POPC     H8R      HAL2     0.900000E-01   1.00800           0
     16426 MEMB     137      POPC     H8S      HAL2     0.900000E-01   1.00800           0
     16427 MEMB     137      POPC     C29      CEL1    -0.150000       12.0110           0
     16428 MEMB     137      POPC     H91      HEL1     0.150000       1.00800           0
     16429 MEMB     137      POPC     C210     CEL1    -0.150000       12.0110           0
     16430 MEMB     137      POPC     H101     HEL1     0.150000       1.00800           0
     16431 MEMB     137      POPC     C211     CTL2    -0.180000       12.0110           0
     16432 MEMB     137      POPC     H11R     HAL2     0.900000E-01   1.00800           0
     16433 MEMB     137      POPC     H11S     HAL2     0.900000E-01   1.00800           0
     16434 MEMB     137      POPC     C212     CTL2    -0.180000       12.0110           0
     16435 MEMB     137      POPC     H12R     HAL2     0.900000E-01   1.00800           0
     16436 MEMB     137      POPC     H12S     HAL2     0.900000E-01   1.00800           0
     16437 MEMB     137      POPC     C213     CTL2    -0.180000       12.0110           0
     16438 MEMB     137      POPC     H13R     HAL2     0.900000E-01   1.00800           0
     16439 MEMB     137      POPC     H13S     HAL2     0.900000E-01   1.00800           0
     16440 MEMB     137      POPC     C214     CTL2    -0.180000       12.0110           0
     16441 MEMB     137      POPC     H14R     HAL2     0.900000E-01   1.00800           0
     16442 MEMB     137      POPC     H14S     HAL2     0.900000E-01   1.00800           0
     16443 MEMB     137      POPC     C215     CTL2    -0.180000       12.0110           0
     16444 MEMB     137      POPC     H15R     HAL2     0.900000E-01   1.00800           0
     16445 MEMB     137      POPC     H15S     HAL2     0.900000E-01   1.00800           0
     16446 MEMB     137      POPC     C216     CTL2    -0.180000       12.0110           0
     16447 MEMB     137      POPC     H16R     HAL2     0.900000E-01   1.00800           0
     16448 MEMB     137      POPC     H16S     HAL2     0.900000E-01   1.00800           0
     16449 MEMB     137      POPC     C217     CTL2    -0.180000       12.0110           0
     16450 MEMB     137      POPC     H17R     HAL2     0.900000E-01   1.00800           0
     16451 MEMB     137      POPC     H17S     HAL2     0.900000E-01   1.00800           0
     16452 MEMB     137      POPC     C218     CTL3    -0.270000       12.0110           0
     16453 MEMB     137      POPC     H18R     HAL3     0.900000E-01   1.00800           0
     16454 MEMB     137      POPC     H18S     HAL3     0.900000E-01   1.00800           0
     16455 MEMB     137      POPC     H18T     HAL3     0.900000E-01   1.00800           0
     16456 MEMB     137      POPC     C33      CTL2    -0.180000       12.0110           0
     16457 MEMB     137      POPC     H3X      HAL2     0.900000E-01   1.00800           0
     16458 MEMB     137      POPC     H3Y      HAL2     0.900000E-01   1.00800           0
     16459 MEMB     137      POPC     C34      CTL2    -0.180000       12.0110           0
     16460 MEMB     137      POPC     H4X      HAL2     0.900000E-01   1.00800           0
     16461 MEMB     137      POPC     H4Y      HAL2     0.900000E-01   1.00800           0
     16462 MEMB     137      POPC     C35      CTL2    -0.180000       12.0110           0
     16463 MEMB     137      POPC     H5X      HAL2     0.900000E-01   1.00800           0
     16464 MEMB     137      POPC     H5Y      HAL2     0.900000E-01   1.00800           0
     16465 MEMB     137      POPC     C36      CTL2    -0.180000       12.0110           0
     16466 MEMB     137      POPC     H6X      HAL2     0.900000E-01   1.00800           0
     16467 MEMB     137      POPC     H6Y      HAL2     0.900000E-01   1.00800           0
     16468 MEMB     137      POPC     C37      CTL2    -0.180000       12.0110           0
     16469 MEMB     137      POPC     H7X      HAL2     0.900000E-01   1.00800           0
     16470 MEMB     137      POPC     H7Y      HAL2     0.900000E-01   1.00800           0
     16471 MEMB     137      POPC     C38      CTL2    -0.180000       12.0110           0
     16472 MEMB     137      POPC     H8X      HAL2     0.900000E-01   1.00800           0
     16473 MEMB     137      POPC     H8Y      HAL2     0.900000E-01   1.00800           0
     16474 MEMB     137      POPC     C39      CTL2    -0.180000       12.0110           0
     16475 MEMB     137      POPC     H9X      HAL2     0.900000E-01   1.00800           0
     16476 MEMB     137      POPC     H9Y      HAL2     0.900000E-01   1.00800           0
     16477 MEMB     137      POPC     C310     CTL2    -0.180000       12.0110           0
     16478 MEMB     137      POPC     H10X     HAL2     0.900000E-01   1.00800           0
     16479 MEMB     137      POPC     H10Y     HAL2     0.900000E-01   1.00800           0
     16480 MEMB     137      POPC     C311     CTL2    -0.180000       12.0110           0
     16481 MEMB     137      POPC     H11X     HAL2     0.900000E-01   1.00800           0
     16482 MEMB     137      POPC     H11Y     HAL2     0.900000E-01   1.00800           0
     16483 MEMB     137      POPC     C312     CTL2    -0.180000       12.0110           0
     16484 MEMB     137      POPC     H12X     HAL2     0.900000E-01   1.00800           0
     16485 MEMB     137      POPC     H12Y     HAL2     0.900000E-01   1.00800           0
     16486 MEMB     137      POPC     C313     CTL2    -0.180000       12.0110           0
     16487 MEMB     137      POPC     H13X     HAL2     0.900000E-01   1.00800           0
     16488 MEMB     137      POPC     H13Y     HAL2     0.900000E-01   1.00800           0
     16489 MEMB     137      POPC     C314     CTL2    -0.180000       12.0110           0
     16490 MEMB     137      POPC     H14X     HAL2     0.900000E-01   1.00800           0
     16491 MEMB     137      POPC     H14Y     HAL2     0.900000E-01   1.00800           0
     16492 MEMB     137      POPC     C315     CTL2    -0.180000       12.0110           0
     16493 MEMB     137      POPC     H15X     HAL2     0.900000E-01   1.00800           0
     16494 MEMB     137      POPC     H15Y     HAL2     0.900000E-01   1.00800           0
     16495 MEMB     137      POPC     C316     CTL3    -0.270000       12.0110           0
     16496 MEMB     137      POPC     H16X     HAL3     0.900000E-01   1.00800           0
     16497 MEMB     137      POPC     H16Y     HAL3     0.900000E-01   1.00800           0
     16498 MEMB     137      POPC     H16Z     HAL3     0.900000E-01   1.00800           0
     16499 MEMB     138      POPC     N        NTL     -0.600000       14.0070           0
     16500 MEMB     138      POPC     C12      CTL2    -0.100000       12.0110           0
     16501 MEMB     138      POPC     H12A     HL       0.250000       1.00800           0
     16502 MEMB     138      POPC     H12B     HL       0.250000       1.00800           0
     16503 MEMB     138      POPC     C13      CTL5    -0.350000       12.0110           0
     16504 MEMB     138      POPC     H13A     HL       0.250000       1.00800           0
     16505 MEMB     138      POPC     H13B     HL       0.250000       1.00800           0
     16506 MEMB     138      POPC     H13C     HL       0.250000       1.00800           0
     16507 MEMB     138      POPC     C14      CTL5    -0.350000       12.0110           0
     16508 MEMB     138      POPC     H14A     HL       0.250000       1.00800           0
     16509 MEMB     138      POPC     H14B     HL       0.250000       1.00800           0
     16510 MEMB     138      POPC     H14C     HL       0.250000       1.00800           0
     16511 MEMB     138      POPC     C15      CTL5    -0.350000       12.0110           0
     16512 MEMB     138      POPC     H15A     HL       0.250000       1.00800           0
     16513 MEMB     138      POPC     H15B     HL       0.250000       1.00800           0
     16514 MEMB     138      POPC     H15C     HL       0.250000       1.00800           0
     16515 MEMB     138      POPC     C11      CTL2    -0.800000E-01   12.0110           0
     16516 MEMB     138      POPC     H11A     HAL2     0.900000E-01   1.00800           0
     16517 MEMB     138      POPC     H11B     HAL2     0.900000E-01   1.00800           0
     16518 MEMB     138      POPC     P        PL        1.50000       30.9740           0
     16519 MEMB     138      POPC     O13      O2L     -0.780000       15.9994           0
     16520 MEMB     138      POPC     O14      O2L     -0.780000       15.9994           0
     16521 MEMB     138      POPC     O12      OSLP    -0.570000       15.9994           0
     16522 MEMB     138      POPC     O11      OSLP    -0.570000       15.9994           0
     16523 MEMB     138      POPC     C1       CTL2    -0.800000E-01   12.0110           0
     16524 MEMB     138      POPC     HA       HAL2     0.900000E-01   1.00800           0
     16525 MEMB     138      POPC     HB       HAL2     0.900000E-01   1.00800           0
     16526 MEMB     138      POPC     C2       CTL1     0.170000       12.0110           0
     16527 MEMB     138      POPC     HS       HAL1     0.900000E-01   1.00800           0
     16528 MEMB     138      POPC     O21      OSL     -0.490000       15.9994           0
     16529 MEMB     138      POPC     C21      CL       0.900000       12.0110           0
     16530 MEMB     138      POPC     O22      OBL     -0.630000       15.9994           0
     16531 MEMB     138      POPC     C22      CTL2    -0.220000       12.0110           0
     16532 MEMB     138      POPC     H2R      HAL2     0.900000E-01   1.00800           0
     16533 MEMB     138      POPC     H2S      HAL2     0.900000E-01   1.00800           0
     16534 MEMB     138      POPC     C3       CTL2     0.800000E-01   12.0110           0
     16535 MEMB     138      POPC     HX       HAL2     0.900000E-01   1.00800           0
     16536 MEMB     138      POPC     HY       HAL2     0.900000E-01   1.00800           0
     16537 MEMB     138      POPC     O31      OSL     -0.490000       15.9994           0
     16538 MEMB     138      POPC     C31      CL       0.900000       12.0110           0
     16539 MEMB     138      POPC     O32      OBL     -0.630000       15.9994           0
     16540 MEMB     138      POPC     C32      CTL2    -0.220000       12.0110           0
     16541 MEMB     138      POPC     H2X      HAL2     0.900000E-01   1.00800           0
     16542 MEMB     138      POPC     H2Y      HAL2     0.900000E-01   1.00800           0
     16543 MEMB     138      POPC     C23      CTL2    -0.180000       12.0110           0
     16544 MEMB     138      POPC     H3R      HAL2     0.900000E-01   1.00800           0
     16545 MEMB     138      POPC     H3S      HAL2     0.900000E-01   1.00800           0
     16546 MEMB     138      POPC     C24      CTL2    -0.180000       12.0110           0
     16547 MEMB     138      POPC     H4R      HAL2     0.900000E-01   1.00800           0
     16548 MEMB     138      POPC     H4S      HAL2     0.900000E-01   1.00800           0
     16549 MEMB     138      POPC     C25      CTL2    -0.180000       12.0110           0
     16550 MEMB     138      POPC     H5R      HAL2     0.900000E-01   1.00800           0
     16551 MEMB     138      POPC     H5S      HAL2     0.900000E-01   1.00800           0
     16552 MEMB     138      POPC     C26      CTL2    -0.180000       12.0110           0
     16553 MEMB     138      POPC     H6R      HAL2     0.900000E-01   1.00800           0
     16554 MEMB     138      POPC     H6S      HAL2     0.900000E-01   1.00800           0
     16555 MEMB     138      POPC     C27      CTL2    -0.180000       12.0110           0
     16556 MEMB     138      POPC     H7R      HAL2     0.900000E-01   1.00800           0
     16557 MEMB     138      POPC     H7S      HAL2     0.900000E-01   1.00800           0
     16558 MEMB     138      POPC     C28      CTL2    -0.180000       12.0110           0
     16559 MEMB     138      POPC     H8R      HAL2     0.900000E-01   1.00800           0
     16560 MEMB     138      POPC     H8S      HAL2     0.900000E-01   1.00800           0
     16561 MEMB     138      POPC     C29      CEL1    -0.150000       12.0110           0
     16562 MEMB     138      POPC     H91      HEL1     0.150000       1.00800           0
     16563 MEMB     138      POPC     C210     CEL1    -0.150000       12.0110           0
     16564 MEMB     138      POPC     H101     HEL1     0.150000       1.00800           0
     16565 MEMB     138      POPC     C211     CTL2    -0.180000       12.0110           0
     16566 MEMB     138      POPC     H11R     HAL2     0.900000E-01   1.00800           0
     16567 MEMB     138      POPC     H11S     HAL2     0.900000E-01   1.00800           0
     16568 MEMB     138      POPC     C212     CTL2    -0.180000       12.0110           0
     16569 MEMB     138      POPC     H12R     HAL2     0.900000E-01   1.00800           0
     16570 MEMB     138      POPC     H12S     HAL2     0.900000E-01   1.00800           0
     16571 MEMB     138      POPC     C213     CTL2    -0.180000       12.0110           0
     16572 MEMB     138      POPC     H13R     HAL2     0.900000E-01   1.00800           0
     16573 MEMB     138      POPC     H13S     HAL2     0.900000E-01   1.00800           0
     16574 MEMB     138      POPC     C214     CTL2    -0.180000       12.0110           0
     16575 MEMB     138      POPC     H14R     HAL2     0.900000E-01   1.00800           0
     16576 MEMB     138      POPC     H14S     HAL2     0.900000E-01   1.00800           0
     16577 MEMB     138      POPC     C215     CTL2    -0.180000       12.0110           0
     16578 MEMB     138      POPC     H15R     HAL2     0.900000E-01   1.00800           0
     16579 MEMB     138      POPC     H15S     HAL2     0.900000E-01   1.00800           0
     16580 MEMB     138      POPC     C216     CTL2    -0.180000       12.0110           0
     16581 MEMB     138      POPC     H16R     HAL2     0.900000E-01   1.00800           0
     16582 MEMB     138      POPC     H16S     HAL2     0.900000E-01   1.00800           0
     16583 MEMB     138      POPC     C217     CTL2    -0.180000       12.0110           0
     16584 MEMB     138      POPC     H17R     HAL2     0.900000E-01   1.00800           0
     16585 MEMB     138      POPC     H17S     HAL2     0.900000E-01   1.00800           0
     16586 MEMB     138      POPC     C218     CTL3    -0.270000       12.0110           0
     16587 MEMB     138      POPC     H18R     HAL3     0.900000E-01   1.00800           0
     16588 MEMB     138      POPC     H18S     HAL3     0.900000E-01   1.00800           0
     16589 MEMB     138      POPC     H18T     HAL3     0.900000E-01   1.00800           0
     16590 MEMB     138      POPC     C33      CTL2    -0.180000       12.0110           0
     16591 MEMB     138      POPC     H3X      HAL2     0.900000E-01   1.00800           0
     16592 MEMB     138      POPC     H3Y      HAL2     0.900000E-01   1.00800           0
     16593 MEMB     138      POPC     C34      CTL2    -0.180000       12.0110           0
     16594 MEMB     138      POPC     H4X      HAL2     0.900000E-01   1.00800           0
     16595 MEMB     138      POPC     H4Y      HAL2     0.900000E-01   1.00800           0
     16596 MEMB     138      POPC     C35      CTL2    -0.180000       12.0110           0
     16597 MEMB     138      POPC     H5X      HAL2     0.900000E-01   1.00800           0
     16598 MEMB     138      POPC     H5Y      HAL2     0.900000E-01   1.00800           0
     16599 MEMB     138      POPC     C36      CTL2    -0.180000       12.0110           0
     16600 MEMB     138      POPC     H6X      HAL2     0.900000E-01   1.00800           0
     16601 MEMB     138      POPC     H6Y      HAL2     0.900000E-01   1.00800           0
     16602 MEMB     138      POPC     C37      CTL2    -0.180000       12.0110           0
     16603 MEMB     138      POPC     H7X      HAL2     0.900000E-01   1.00800           0
     16604 MEMB     138      POPC     H7Y      HAL2     0.900000E-01   1.00800           0
     16605 MEMB     138      POPC     C38      CTL2    -0.180000       12.0110           0
     16606 MEMB     138      POPC     H8X      HAL2     0.900000E-01   1.00800           0
     16607 MEMB     138      POPC     H8Y      HAL2     0.900000E-01   1.00800           0
     16608 MEMB     138      POPC     C39      CTL2    -0.180000       12.0110           0
     16609 MEMB     138      POPC     H9X      HAL2     0.900000E-01   1.00800           0
     16610 MEMB     138      POPC     H9Y      HAL2     0.900000E-01   1.00800           0
     16611 MEMB     138      POPC     C310     CTL2    -0.180000       12.0110           0
     16612 MEMB     138      POPC     H10X     HAL2     0.900000E-01   1.00800           0
     16613 MEMB     138      POPC     H10Y     HAL2     0.900000E-01   1.00800           0
     16614 MEMB     138      POPC     C311     CTL2    -0.180000       12.0110           0
     16615 MEMB     138      POPC     H11X     HAL2     0.900000E-01   1.00800           0
     16616 MEMB     138      POPC     H11Y     HAL2     0.900000E-01   1.00800           0
     16617 MEMB     138      POPC     C312     CTL2    -0.180000       12.0110           0
     16618 MEMB     138      POPC     H12X     HAL2     0.900000E-01   1.00800           0
     16619 MEMB     138      POPC     H12Y     HAL2     0.900000E-01   1.00800           0
     16620 MEMB     138      POPC     C313     CTL2    -0.180000       12.0110           0
     16621 MEMB     138      POPC     H13X     HAL2     0.900000E-01   1.00800           0
     16622 MEMB     138      POPC     H13Y     HAL2     0.900000E-01   1.00800           0
     16623 MEMB     138      POPC     C314     CTL2    -0.180000       12.0110           0
     16624 MEMB     138      POPC     H14X     HAL2     0.900000E-01   1.00800           0
     16625 MEMB     138      POPC     H14Y     HAL2     0.900000E-01   1.00800           0
     16626 MEMB     138      POPC     C315     CTL2    -0.180000       12.0110           0
     16627 MEMB     138      POPC     H15X     HAL2     0.900000E-01   1.00800           0
     16628 MEMB     138      POPC     H15Y     HAL2     0.900000E-01   1.00800           0
     16629 MEMB     138      POPC     C316     CTL3    -0.270000       12.0110           0
     16630 MEMB     138      POPC     H16X     HAL3     0.900000E-01   1.00800           0
     16631 MEMB     138      POPC     H16Y     HAL3     0.900000E-01   1.00800           0
     16632 MEMB     138      POPC     H16Z     HAL3     0.900000E-01   1.00800           0
     16633 MEMB     139      POPC     N        NTL     -0.600000       14.0070           0
     16634 MEMB     139      POPC     C12      CTL2    -0.100000       12.0110           0
     16635 MEMB     139      POPC     H12A     HL       0.250000       1.00800           0
     16636 MEMB     139      POPC     H12B     HL       0.250000       1.00800           0
     16637 MEMB     139      POPC     C13      CTL5    -0.350000       12.0110           0
     16638 MEMB     139      POPC     H13A     HL       0.250000       1.00800           0
     16639 MEMB     139      POPC     H13B     HL       0.250000       1.00800           0
     16640 MEMB     139      POPC     H13C     HL       0.250000       1.00800           0
     16641 MEMB     139      POPC     C14      CTL5    -0.350000       12.0110           0
     16642 MEMB     139      POPC     H14A     HL       0.250000       1.00800           0
     16643 MEMB     139      POPC     H14B     HL       0.250000       1.00800           0
     16644 MEMB     139      POPC     H14C     HL       0.250000       1.00800           0
     16645 MEMB     139      POPC     C15      CTL5    -0.350000       12.0110           0
     16646 MEMB     139      POPC     H15A     HL       0.250000       1.00800           0
     16647 MEMB     139      POPC     H15B     HL       0.250000       1.00800           0
     16648 MEMB     139      POPC     H15C     HL       0.250000       1.00800           0
     16649 MEMB     139      POPC     C11      CTL2    -0.800000E-01   12.0110           0
     16650 MEMB     139      POPC     H11A     HAL2     0.900000E-01   1.00800           0
     16651 MEMB     139      POPC     H11B     HAL2     0.900000E-01   1.00800           0
     16652 MEMB     139      POPC     P        PL        1.50000       30.9740           0
     16653 MEMB     139      POPC     O13      O2L     -0.780000       15.9994           0
     16654 MEMB     139      POPC     O14      O2L     -0.780000       15.9994           0
     16655 MEMB     139      POPC     O12      OSLP    -0.570000       15.9994           0
     16656 MEMB     139      POPC     O11      OSLP    -0.570000       15.9994           0
     16657 MEMB     139      POPC     C1       CTL2    -0.800000E-01   12.0110           0
     16658 MEMB     139      POPC     HA       HAL2     0.900000E-01   1.00800           0
     16659 MEMB     139      POPC     HB       HAL2     0.900000E-01   1.00800           0
     16660 MEMB     139      POPC     C2       CTL1     0.170000       12.0110           0
     16661 MEMB     139      POPC     HS       HAL1     0.900000E-01   1.00800           0
     16662 MEMB     139      POPC     O21      OSL     -0.490000       15.9994           0
     16663 MEMB     139      POPC     C21      CL       0.900000       12.0110           0
     16664 MEMB     139      POPC     O22      OBL     -0.630000       15.9994           0
     16665 MEMB     139      POPC     C22      CTL2    -0.220000       12.0110           0
     16666 MEMB     139      POPC     H2R      HAL2     0.900000E-01   1.00800           0
     16667 MEMB     139      POPC     H2S      HAL2     0.900000E-01   1.00800           0
     16668 MEMB     139      POPC     C3       CTL2     0.800000E-01   12.0110           0
     16669 MEMB     139      POPC     HX       HAL2     0.900000E-01   1.00800           0
     16670 MEMB     139      POPC     HY       HAL2     0.900000E-01   1.00800           0
     16671 MEMB     139      POPC     O31      OSL     -0.490000       15.9994           0
     16672 MEMB     139      POPC     C31      CL       0.900000       12.0110           0
     16673 MEMB     139      POPC     O32      OBL     -0.630000       15.9994           0
     16674 MEMB     139      POPC     C32      CTL2    -0.220000       12.0110           0
     16675 MEMB     139      POPC     H2X      HAL2     0.900000E-01   1.00800           0
     16676 MEMB     139      POPC     H2Y      HAL2     0.900000E-01   1.00800           0
     16677 MEMB     139      POPC     C23      CTL2    -0.180000       12.0110           0
     16678 MEMB     139      POPC     H3R      HAL2     0.900000E-01   1.00800           0
     16679 MEMB     139      POPC     H3S      HAL2     0.900000E-01   1.00800           0
     16680 MEMB     139      POPC     C24      CTL2    -0.180000       12.0110           0
     16681 MEMB     139      POPC     H4R      HAL2     0.900000E-01   1.00800           0
     16682 MEMB     139      POPC     H4S      HAL2     0.900000E-01   1.00800           0
     16683 MEMB     139      POPC     C25      CTL2    -0.180000       12.0110           0
     16684 MEMB     139      POPC     H5R      HAL2     0.900000E-01   1.00800           0
     16685 MEMB     139      POPC     H5S      HAL2     0.900000E-01   1.00800           0
     16686 MEMB     139      POPC     C26      CTL2    -0.180000       12.0110           0
     16687 MEMB     139      POPC     H6R      HAL2     0.900000E-01   1.00800           0
     16688 MEMB     139      POPC     H6S      HAL2     0.900000E-01   1.00800           0
     16689 MEMB     139      POPC     C27      CTL2    -0.180000       12.0110           0
     16690 MEMB     139      POPC     H7R      HAL2     0.900000E-01   1.00800           0
     16691 MEMB     139      POPC     H7S      HAL2     0.900000E-01   1.00800           0
     16692 MEMB     139      POPC     C28      CTL2    -0.180000       12.0110           0
     16693 MEMB     139      POPC     H8R      HAL2     0.900000E-01   1.00800           0
     16694 MEMB     139      POPC     H8S      HAL2     0.900000E-01   1.00800           0
     16695 MEMB     139      POPC     C29      CEL1    -0.150000       12.0110           0
     16696 MEMB     139      POPC     H91      HEL1     0.150000       1.00800           0
     16697 MEMB     139      POPC     C210     CEL1    -0.150000       12.0110           0
     16698 MEMB     139      POPC     H101     HEL1     0.150000       1.00800           0
     16699 MEMB     139      POPC     C211     CTL2    -0.180000       12.0110           0
     16700 MEMB     139      POPC     H11R     HAL2     0.900000E-01   1.00800           0
     16701 MEMB     139      POPC     H11S     HAL2     0.900000E-01   1.00800           0
     16702 MEMB     139      POPC     C212     CTL2    -0.180000       12.0110           0
     16703 MEMB     139      POPC     H12R     HAL2     0.900000E-01   1.00800           0
     16704 MEMB     139      POPC     H12S     HAL2     0.900000E-01   1.00800           0
     16705 MEMB     139      POPC     C213     CTL2    -0.180000       12.0110           0
     16706 MEMB     139      POPC     H13R     HAL2     0.900000E-01   1.00800           0
     16707 MEMB     139      POPC     H13S     HAL2     0.900000E-01   1.00800           0
     16708 MEMB     139      POPC     C214     CTL2    -0.180000       12.0110           0
     16709 MEMB     139      POPC     H14R     HAL2     0.900000E-01   1.00800           0
     16710 MEMB     139      POPC     H14S     HAL2     0.900000E-01   1.00800           0
     16711 MEMB     139      POPC     C215     CTL2    -0.180000       12.0110           0
     16712 MEMB     139      POPC     H15R     HAL2     0.900000E-01   1.00800           0
     16713 MEMB     139      POPC     H15S     HAL2     0.900000E-01   1.00800           0
     16714 MEMB     139      POPC     C216     CTL2    -0.180000       12.0110           0
     16715 MEMB     139      POPC     H16R     HAL2     0.900000E-01   1.00800           0
     16716 MEMB     139      POPC     H16S     HAL2     0.900000E-01   1.00800           0
     16717 MEMB     139      POPC     C217     CTL2    -0.180000       12.0110           0
     16718 MEMB     139      POPC     H17R     HAL2     0.900000E-01   1.00800           0
     16719 MEMB     139      POPC     H17S     HAL2     0.900000E-01   1.00800           0
     16720 MEMB     139      POPC     C218     CTL3    -0.270000       12.0110           0
     16721 MEMB     139      POPC     H18R     HAL3     0.900000E-01   1.00800           0
     16722 MEMB     139      POPC     H18S     HAL3     0.900000E-01   1.00800           0
     16723 MEMB     139      POPC     H18T     HAL3     0.900000E-01   1.00800           0
     16724 MEMB     139      POPC     C33      CTL2    -0.180000       12.0110           0
     16725 MEMB     139      POPC     H3X      HAL2     0.900000E-01   1.00800           0
     16726 MEMB     139      POPC     H3Y      HAL2     0.900000E-01   1.00800           0
     16727 MEMB     139      POPC     C34      CTL2    -0.180000       12.0110           0
     16728 MEMB     139      POPC     H4X      HAL2     0.900000E-01   1.00800           0
     16729 MEMB     139      POPC     H4Y      HAL2     0.900000E-01   1.00800           0
     16730 MEMB     139      POPC     C35      CTL2    -0.180000       12.0110           0
     16731 MEMB     139      POPC     H5X      HAL2     0.900000E-01   1.00800           0
     16732 MEMB     139      POPC     H5Y      HAL2     0.900000E-01   1.00800           0
     16733 MEMB     139      POPC     C36      CTL2    -0.180000       12.0110           0
     16734 MEMB     139      POPC     H6X      HAL2     0.900000E-01   1.00800           0
     16735 MEMB     139      POPC     H6Y      HAL2     0.900000E-01   1.00800           0
     16736 MEMB     139      POPC     C37      CTL2    -0.180000       12.0110           0
     16737 MEMB     139      POPC     H7X      HAL2     0.900000E-01   1.00800           0
     16738 MEMB     139      POPC     H7Y      HAL2     0.900000E-01   1.00800           0
     16739 MEMB     139      POPC     C38      CTL2    -0.180000       12.0110           0
     16740 MEMB     139      POPC     H8X      HAL2     0.900000E-01   1.00800           0
     16741 MEMB     139      POPC     H8Y      HAL2     0.900000E-01   1.00800           0
     16742 MEMB     139      POPC     C39      CTL2    -0.180000       12.0110           0
     16743 MEMB     139      POPC     H9X      HAL2     0.900000E-01   1.00800           0
     16744 MEMB     139      POPC     H9Y      HAL2     0.900000E-01   1.00800           0
     16745 MEMB     139      POPC     C310     CTL2    -0.180000       12.0110           0
     16746 MEMB     139      POPC     H10X     HAL2     0.900000E-01   1.00800           0
     16747 MEMB     139      POPC     H10Y     HAL2     0.900000E-01   1.00800           0
     16748 MEMB     139      POPC     C311     CTL2    -0.180000       12.0110           0
     16749 MEMB     139      POPC     H11X     HAL2     0.900000E-01   1.00800           0
     16750 MEMB     139      POPC     H11Y     HAL2     0.900000E-01   1.00800           0
     16751 MEMB     139      POPC     C312     CTL2    -0.180000       12.0110           0
     16752 MEMB     139      POPC     H12X     HAL2     0.900000E-01   1.00800           0
     16753 MEMB     139      POPC     H12Y     HAL2     0.900000E-01   1.00800           0
     16754 MEMB     139      POPC     C313     CTL2    -0.180000       12.0110           0
     16755 MEMB     139      POPC     H13X     HAL2     0.900000E-01   1.00800           0
     16756 MEMB     139      POPC     H13Y     HAL2     0.900000E-01   1.00800           0
     16757 MEMB     139      POPC     C314     CTL2    -0.180000       12.0110           0
     16758 MEMB     139      POPC     H14X     HAL2     0.900000E-01   1.00800           0
     16759 MEMB     139      POPC     H14Y     HAL2     0.900000E-01   1.00800           0
     16760 MEMB     139      POPC     C315     CTL2    -0.180000       12.0110           0
     16761 MEMB     139      POPC     H15X     HAL2     0.900000E-01   1.00800           0
     16762 MEMB     139      POPC     H15Y     HAL2     0.900000E-01   1.00800           0
     16763 MEMB     139      POPC     C316     CTL3    -0.270000       12.0110           0
     16764 MEMB     139      POPC     H16X     HAL3     0.900000E-01   1.00800           0
     16765 MEMB     139      POPC     H16Y     HAL3     0.900000E-01   1.00800           0
     16766 MEMB     139      POPC     H16Z     HAL3     0.900000E-01   1.00800           0
     16767 MEMB     140      POPC     N        NTL     -0.600000       14.0070           0
     16768 MEMB     140      POPC     C12      CTL2    -0.100000       12.0110           0
     16769 MEMB     140      POPC     H12A     HL       0.250000       1.00800           0
     16770 MEMB     140      POPC     H12B     HL       0.250000       1.00800           0
     16771 MEMB     140      POPC     C13      CTL5    -0.350000       12.0110           0
     16772 MEMB     140      POPC     H13A     HL       0.250000       1.00800           0
     16773 MEMB     140      POPC     H13B     HL       0.250000       1.00800           0
     16774 MEMB     140      POPC     H13C     HL       0.250000       1.00800           0
     16775 MEMB     140      POPC     C14      CTL5    -0.350000       12.0110           0
     16776 MEMB     140      POPC     H14A     HL       0.250000       1.00800           0
     16777 MEMB     140      POPC     H14B     HL       0.250000       1.00800           0
     16778 MEMB     140      POPC     H14C     HL       0.250000       1.00800           0
     16779 MEMB     140      POPC     C15      CTL5    -0.350000       12.0110           0
     16780 MEMB     140      POPC     H15A     HL       0.250000       1.00800           0
     16781 MEMB     140      POPC     H15B     HL       0.250000       1.00800           0
     16782 MEMB     140      POPC     H15C     HL       0.250000       1.00800           0
     16783 MEMB     140      POPC     C11      CTL2    -0.800000E-01   12.0110           0
     16784 MEMB     140      POPC     H11A     HAL2     0.900000E-01   1.00800           0
     16785 MEMB     140      POPC     H11B     HAL2     0.900000E-01   1.00800           0
     16786 MEMB     140      POPC     P        PL        1.50000       30.9740           0
     16787 MEMB     140      POPC     O13      O2L     -0.780000       15.9994           0
     16788 MEMB     140      POPC     O14      O2L     -0.780000       15.9994           0
     16789 MEMB     140      POPC     O12      OSLP    -0.570000       15.9994           0
     16790 MEMB     140      POPC     O11      OSLP    -0.570000       15.9994           0
     16791 MEMB     140      POPC     C1       CTL2    -0.800000E-01   12.0110           0
     16792 MEMB     140      POPC     HA       HAL2     0.900000E-01   1.00800           0
     16793 MEMB     140      POPC     HB       HAL2     0.900000E-01   1.00800           0
     16794 MEMB     140      POPC     C2       CTL1     0.170000       12.0110           0
     16795 MEMB     140      POPC     HS       HAL1     0.900000E-01   1.00800           0
     16796 MEMB     140      POPC     O21      OSL     -0.490000       15.9994           0
     16797 MEMB     140      POPC     C21      CL       0.900000       12.0110           0
     16798 MEMB     140      POPC     O22      OBL     -0.630000       15.9994           0
     16799 MEMB     140      POPC     C22      CTL2    -0.220000       12.0110           0
     16800 MEMB     140      POPC     H2R      HAL2     0.900000E-01   1.00800           0
     16801 MEMB     140      POPC     H2S      HAL2     0.900000E-01   1.00800           0
     16802 MEMB     140      POPC     C3       CTL2     0.800000E-01   12.0110           0
     16803 MEMB     140      POPC     HX       HAL2     0.900000E-01   1.00800           0
     16804 MEMB     140      POPC     HY       HAL2     0.900000E-01   1.00800           0
     16805 MEMB     140      POPC     O31      OSL     -0.490000       15.9994           0
     16806 MEMB     140      POPC     C31      CL       0.900000       12.0110           0
     16807 MEMB     140      POPC     O32      OBL     -0.630000       15.9994           0
     16808 MEMB     140      POPC     C32      CTL2    -0.220000       12.0110           0
     16809 MEMB     140      POPC     H2X      HAL2     0.900000E-01   1.00800           0
     16810 MEMB     140      POPC     H2Y      HAL2     0.900000E-01   1.00800           0
     16811 MEMB     140      POPC     C23      CTL2    -0.180000       12.0110           0
     16812 MEMB     140      POPC     H3R      HAL2     0.900000E-01   1.00800           0
     16813 MEMB     140      POPC     H3S      HAL2     0.900000E-01   1.00800           0
     16814 MEMB     140      POPC     C24      CTL2    -0.180000       12.0110           0
     16815 MEMB     140      POPC     H4R      HAL2     0.900000E-01   1.00800           0
     16816 MEMB     140      POPC     H4S      HAL2     0.900000E-01   1.00800           0
     16817 MEMB     140      POPC     C25      CTL2    -0.180000       12.0110           0
     16818 MEMB     140      POPC     H5R      HAL2     0.900000E-01   1.00800           0
     16819 MEMB     140      POPC     H5S      HAL2     0.900000E-01   1.00800           0
     16820 MEMB     140      POPC     C26      CTL2    -0.180000       12.0110           0
     16821 MEMB     140      POPC     H6R      HAL2     0.900000E-01   1.00800           0
     16822 MEMB     140      POPC     H6S      HAL2     0.900000E-01   1.00800           0
     16823 MEMB     140      POPC     C27      CTL2    -0.180000       12.0110           0
     16824 MEMB     140      POPC     H7R      HAL2     0.900000E-01   1.00800           0
     16825 MEMB     140      POPC     H7S      HAL2     0.900000E-01   1.00800           0
     16826 MEMB     140      POPC     C28      CTL2    -0.180000       12.0110           0
     16827 MEMB     140      POPC     H8R      HAL2     0.900000E-01   1.00800           0
     16828 MEMB     140      POPC     H8S      HAL2     0.900000E-01   1.00800           0
     16829 MEMB     140      POPC     C29      CEL1    -0.150000       12.0110           0
     16830 MEMB     140      POPC     H91      HEL1     0.150000       1.00800           0
     16831 MEMB     140      POPC     C210     CEL1    -0.150000       12.0110           0
     16832 MEMB     140      POPC     H101     HEL1     0.150000       1.00800           0
     16833 MEMB     140      POPC     C211     CTL2    -0.180000       12.0110           0
     16834 MEMB     140      POPC     H11R     HAL2     0.900000E-01   1.00800           0
     16835 MEMB     140      POPC     H11S     HAL2     0.900000E-01   1.00800           0
     16836 MEMB     140      POPC     C212     CTL2    -0.180000       12.0110           0
     16837 MEMB     140      POPC     H12R     HAL2     0.900000E-01   1.00800           0
     16838 MEMB     140      POPC     H12S     HAL2     0.900000E-01   1.00800           0
     16839 MEMB     140      POPC     C213     CTL2    -0.180000       12.0110           0
     16840 MEMB     140      POPC     H13R     HAL2     0.900000E-01   1.00800           0
     16841 MEMB     140      POPC     H13S     HAL2     0.900000E-01   1.00800           0
     16842 MEMB     140      POPC     C214     CTL2    -0.180000       12.0110           0
     16843 MEMB     140      POPC     H14R     HAL2     0.900000E-01   1.00800           0
     16844 MEMB     140      POPC     H14S     HAL2     0.900000E-01   1.00800           0
     16845 MEMB     140      POPC     C215     CTL2    -0.180000       12.0110           0
     16846 MEMB     140      POPC     H15R     HAL2     0.900000E-01   1.00800           0
     16847 MEMB     140      POPC     H15S     HAL2     0.900000E-01   1.00800           0
     16848 MEMB     140      POPC     C216     CTL2    -0.180000       12.0110           0
     16849 MEMB     140      POPC     H16R     HAL2     0.900000E-01   1.00800           0
     16850 MEMB     140      POPC     H16S     HAL2     0.900000E-01   1.00800           0
     16851 MEMB     140      POPC     C217     CTL2    -0.180000       12.0110           0
     16852 MEMB     140      POPC     H17R     HAL2     0.900000E-01   1.00800           0
     16853 MEMB     140      POPC     H17S     HAL2     0.900000E-01   1.00800           0
     16854 MEMB     140      POPC     C218     CTL3    -0.270000       12.0110           0
     16855 MEMB     140      POPC     H18R     HAL3     0.900000E-01   1.00800           0
     16856 MEMB     140      POPC     H18S     HAL3     0.900000E-01   1.00800           0
     16857 MEMB     140      POPC     H18T     HAL3     0.900000E-01   1.00800           0
     16858 MEMB     140      POPC     C33      CTL2    -0.180000       12.0110           0
     16859 MEMB     140      POPC     H3X      HAL2     0.900000E-01   1.00800           0
     16860 MEMB     140      POPC     H3Y      HAL2     0.900000E-01   1.00800           0
     16861 MEMB     140      POPC     C34      CTL2    -0.180000       12.0110           0
     16862 MEMB     140      POPC     H4X      HAL2     0.900000E-01   1.00800           0
     16863 MEMB     140      POPC     H4Y      HAL2     0.900000E-01   1.00800           0
     16864 MEMB     140      POPC     C35      CTL2    -0.180000       12.0110           0
     16865 MEMB     140      POPC     H5X      HAL2     0.900000E-01   1.00800           0
     16866 MEMB     140      POPC     H5Y      HAL2     0.900000E-01   1.00800           0
     16867 MEMB     140      POPC     C36      CTL2    -0.180000       12.0110           0
     16868 MEMB     140      POPC     H6X      HAL2     0.900000E-01   1.00800           0
     16869 MEMB     140      POPC     H6Y      HAL2     0.900000E-01   1.00800           0
     16870 MEMB     140      POPC     C37      CTL2    -0.180000       12.0110           0
     16871 MEMB     140      POPC     H7X      HAL2     0.900000E-01   1.00800           0
     16872 MEMB     140      POPC     H7Y      HAL2     0.900000E-01   1.00800           0
     16873 MEMB     140      POPC     C38      CTL2    -0.180000       12.0110           0
     16874 MEMB     140      POPC     H8X      HAL2     0.900000E-01   1.00800           0
     16875 MEMB     140      POPC     H8Y      HAL2     0.900000E-01   1.00800           0
     16876 MEMB     140      POPC     C39      CTL2    -0.180000       12.0110           0
     16877 MEMB     140      POPC     H9X      HAL2     0.900000E-01   1.00800           0
     16878 MEMB     140      POPC     H9Y      HAL2     0.900000E-01   1.00800           0
     16879 MEMB     140      POPC     C310     CTL2    -0.180000       12.0110           0
     16880 MEMB     140      POPC     H10X     HAL2     0.900000E-01   1.00800           0
     16881 MEMB     140      POPC     H10Y     HAL2     0.900000E-01   1.00800           0
     16882 MEMB     140      POPC     C311     CTL2    -0.180000       12.0110           0
     16883 MEMB     140      POPC     H11X     HAL2     0.900000E-01   1.00800           0
     16884 MEMB     140      POPC     H11Y     HAL2     0.900000E-01   1.00800           0
     16885 MEMB     140      POPC     C312     CTL2    -0.180000       12.0110           0
     16886 MEMB     140      POPC     H12X     HAL2     0.900000E-01   1.00800           0
     16887 MEMB     140      POPC     H12Y     HAL2     0.900000E-01   1.00800           0
     16888 MEMB     140      POPC     C313     CTL2    -0.180000       12.0110           0
     16889 MEMB     140      POPC     H13X     HAL2     0.900000E-01   1.00800           0
     16890 MEMB     140      POPC     H13Y     HAL2     0.900000E-01   1.00800           0
     16891 MEMB     140      POPC     C314     CTL2    -0.180000       12.0110           0
     16892 MEMB     140      POPC     H14X     HAL2     0.900000E-01   1.00800           0
     16893 MEMB     140      POPC     H14Y     HAL2     0.900000E-01   1.00800           0
     16894 MEMB     140      POPC     C315     CTL2    -0.180000       12.0110           0
     16895 MEMB     140      POPC     H15X     HAL2     0.900000E-01   1.00800           0
     16896 MEMB     140      POPC     H15Y     HAL2     0.900000E-01   1.00800           0
     16897 MEMB     140      POPC     C316     CTL3    -0.270000       12.0110           0
     16898 MEMB     140      POPC     H16X     HAL3     0.900000E-01   1.00800           0
     16899 MEMB     140      POPC     H16Y     HAL3     0.900000E-01   1.00800           0
     16900 MEMB     140      POPC     H16Z     HAL3     0.900000E-01   1.00800           0
     16901 MEMB     141      POPC     N        NTL     -0.600000       14.0070           0
     16902 MEMB     141      POPC     C12      CTL2    -0.100000       12.0110           0
     16903 MEMB     141      POPC     H12A     HL       0.250000       1.00800           0
     16904 MEMB     141      POPC     H12B     HL       0.250000       1.00800           0
     16905 MEMB     141      POPC     C13      CTL5    -0.350000       12.0110           0
     16906 MEMB     141      POPC     H13A     HL       0.250000       1.00800           0
     16907 MEMB     141      POPC     H13B     HL       0.250000       1.00800           0
     16908 MEMB     141      POPC     H13C     HL       0.250000       1.00800           0
     16909 MEMB     141      POPC     C14      CTL5    -0.350000       12.0110           0
     16910 MEMB     141      POPC     H14A     HL       0.250000       1.00800           0
     16911 MEMB     141      POPC     H14B     HL       0.250000       1.00800           0
     16912 MEMB     141      POPC     H14C     HL       0.250000       1.00800           0
     16913 MEMB     141      POPC     C15      CTL5    -0.350000       12.0110           0
     16914 MEMB     141      POPC     H15A     HL       0.250000       1.00800           0
     16915 MEMB     141      POPC     H15B     HL       0.250000       1.00800           0
     16916 MEMB     141      POPC     H15C     HL       0.250000       1.00800           0
     16917 MEMB     141      POPC     C11      CTL2    -0.800000E-01   12.0110           0
     16918 MEMB     141      POPC     H11A     HAL2     0.900000E-01   1.00800           0
     16919 MEMB     141      POPC     H11B     HAL2     0.900000E-01   1.00800           0
     16920 MEMB     141      POPC     P        PL        1.50000       30.9740           0
     16921 MEMB     141      POPC     O13      O2L     -0.780000       15.9994           0
     16922 MEMB     141      POPC     O14      O2L     -0.780000       15.9994           0
     16923 MEMB     141      POPC     O12      OSLP    -0.570000       15.9994           0
     16924 MEMB     141      POPC     O11      OSLP    -0.570000       15.9994           0
     16925 MEMB     141      POPC     C1       CTL2    -0.800000E-01   12.0110           0
     16926 MEMB     141      POPC     HA       HAL2     0.900000E-01   1.00800           0
     16927 MEMB     141      POPC     HB       HAL2     0.900000E-01   1.00800           0
     16928 MEMB     141      POPC     C2       CTL1     0.170000       12.0110           0
     16929 MEMB     141      POPC     HS       HAL1     0.900000E-01   1.00800           0
     16930 MEMB     141      POPC     O21      OSL     -0.490000       15.9994           0
     16931 MEMB     141      POPC     C21      CL       0.900000       12.0110           0
     16932 MEMB     141      POPC     O22      OBL     -0.630000       15.9994           0
     16933 MEMB     141      POPC     C22      CTL2    -0.220000       12.0110           0
     16934 MEMB     141      POPC     H2R      HAL2     0.900000E-01   1.00800           0
     16935 MEMB     141      POPC     H2S      HAL2     0.900000E-01   1.00800           0
     16936 MEMB     141      POPC     C3       CTL2     0.800000E-01   12.0110           0
     16937 MEMB     141      POPC     HX       HAL2     0.900000E-01   1.00800           0
     16938 MEMB     141      POPC     HY       HAL2     0.900000E-01   1.00800           0
     16939 MEMB     141      POPC     O31      OSL     -0.490000       15.9994           0
     16940 MEMB     141      POPC     C31      CL       0.900000       12.0110           0
     16941 MEMB     141      POPC     O32      OBL     -0.630000       15.9994           0
     16942 MEMB     141      POPC     C32      CTL2    -0.220000       12.0110           0
     16943 MEMB     141      POPC     H2X      HAL2     0.900000E-01   1.00800           0
     16944 MEMB     141      POPC     H2Y      HAL2     0.900000E-01   1.00800           0
     16945 MEMB     141      POPC     C23      CTL2    -0.180000       12.0110           0
     16946 MEMB     141      POPC     H3R      HAL2     0.900000E-01   1.00800           0
     16947 MEMB     141      POPC     H3S      HAL2     0.900000E-01   1.00800           0
     16948 MEMB     141      POPC     C24      CTL2    -0.180000       12.0110           0
     16949 MEMB     141      POPC     H4R      HAL2     0.900000E-01   1.00800           0
     16950 MEMB     141      POPC     H4S      HAL2     0.900000E-01   1.00800           0
     16951 MEMB     141      POPC     C25      CTL2    -0.180000       12.0110           0
     16952 MEMB     141      POPC     H5R      HAL2     0.900000E-01   1.00800           0
     16953 MEMB     141      POPC     H5S      HAL2     0.900000E-01   1.00800           0
     16954 MEMB     141      POPC     C26      CTL2    -0.180000       12.0110           0
     16955 MEMB     141      POPC     H6R      HAL2     0.900000E-01   1.00800           0
     16956 MEMB     141      POPC     H6S      HAL2     0.900000E-01   1.00800           0
     16957 MEMB     141      POPC     C27      CTL2    -0.180000       12.0110           0
     16958 MEMB     141      POPC     H7R      HAL2     0.900000E-01   1.00800           0
     16959 MEMB     141      POPC     H7S      HAL2     0.900000E-01   1.00800           0
     16960 MEMB     141      POPC     C28      CTL2    -0.180000       12.0110           0
     16961 MEMB     141      POPC     H8R      HAL2     0.900000E-01   1.00800           0
     16962 MEMB     141      POPC     H8S      HAL2     0.900000E-01   1.00800           0
     16963 MEMB     141      POPC     C29      CEL1    -0.150000       12.0110           0
     16964 MEMB     141      POPC     H91      HEL1     0.150000       1.00800           0
     16965 MEMB     141      POPC     C210     CEL1    -0.150000       12.0110           0
     16966 MEMB     141      POPC     H101     HEL1     0.150000       1.00800           0
     16967 MEMB     141      POPC     C211     CTL2    -0.180000       12.0110           0
     16968 MEMB     141      POPC     H11R     HAL2     0.900000E-01   1.00800           0
     16969 MEMB     141      POPC     H11S     HAL2     0.900000E-01   1.00800           0
     16970 MEMB     141      POPC     C212     CTL2    -0.180000       12.0110           0
     16971 MEMB     141      POPC     H12R     HAL2     0.900000E-01   1.00800           0
     16972 MEMB     141      POPC     H12S     HAL2     0.900000E-01   1.00800           0
     16973 MEMB     141      POPC     C213     CTL2    -0.180000       12.0110           0
     16974 MEMB     141      POPC     H13R     HAL2     0.900000E-01   1.00800           0
     16975 MEMB     141      POPC     H13S     HAL2     0.900000E-01   1.00800           0
     16976 MEMB     141      POPC     C214     CTL2    -0.180000       12.0110           0
     16977 MEMB     141      POPC     H14R     HAL2     0.900000E-01   1.00800           0
     16978 MEMB     141      POPC     H14S     HAL2     0.900000E-01   1.00800           0
     16979 MEMB     141      POPC     C215     CTL2    -0.180000       12.0110           0
     16980 MEMB     141      POPC     H15R     HAL2     0.900000E-01   1.00800           0
     16981 MEMB     141      POPC     H15S     HAL2     0.900000E-01   1.00800           0
     16982 MEMB     141      POPC     C216     CTL2    -0.180000       12.0110           0
     16983 MEMB     141      POPC     H16R     HAL2     0.900000E-01   1.00800           0
     16984 MEMB     141      POPC     H16S     HAL2     0.900000E-01   1.00800           0
     16985 MEMB     141      POPC     C217     CTL2    -0.180000       12.0110           0
     16986 MEMB     141      POPC     H17R     HAL2     0.900000E-01   1.00800           0
     16987 MEMB     141      POPC     H17S     HAL2     0.900000E-01   1.00800           0
     16988 MEMB     141      POPC     C218     CTL3    -0.270000       12.0110           0
     16989 MEMB     141      POPC     H18R     HAL3     0.900000E-01   1.00800           0
     16990 MEMB     141      POPC     H18S     HAL3     0.900000E-01   1.00800           0
     16991 MEMB     141      POPC     H18T     HAL3     0.900000E-01   1.00800           0
     16992 MEMB     141      POPC     C33      CTL2    -0.180000       12.0110           0
     16993 MEMB     141      POPC     H3X      HAL2     0.900000E-01   1.00800           0
     16994 MEMB     141      POPC     H3Y      HAL2     0.900000E-01   1.00800           0
     16995 MEMB     141      POPC     C34      CTL2    -0.180000       12.0110           0
     16996 MEMB     141      POPC     H4X      HAL2     0.900000E-01   1.00800           0
     16997 MEMB     141      POPC     H4Y      HAL2     0.900000E-01   1.00800           0
     16998 MEMB     141      POPC     C35      CTL2    -0.180000       12.0110           0
     16999 MEMB     141      POPC     H5X      HAL2     0.900000E-01   1.00800           0
     17000 MEMB     141      POPC     H5Y      HAL2     0.900000E-01   1.00800           0
     17001 MEMB     141      POPC     C36      CTL2    -0.180000       12.0110           0
     17002 MEMB     141      POPC     H6X      HAL2     0.900000E-01   1.00800           0
     17003 MEMB     141      POPC     H6Y      HAL2     0.900000E-01   1.00800           0
     17004 MEMB     141      POPC     C37      CTL2    -0.180000       12.0110           0
     17005 MEMB     141      POPC     H7X      HAL2     0.900000E-01   1.00800           0
     17006 MEMB     141      POPC     H7Y      HAL2     0.900000E-01   1.00800           0
     17007 MEMB     141      POPC     C38      CTL2    -0.180000       12.0110           0
     17008 MEMB     141      POPC     H8X      HAL2     0.900000E-01   1.00800           0
     17009 MEMB     141      POPC     H8Y      HAL2     0.900000E-01   1.00800           0
     17010 MEMB     141      POPC     C39      CTL2    -0.180000       12.0110           0
     17011 MEMB     141      POPC     H9X      HAL2     0.900000E-01   1.00800           0
     17012 MEMB     141      POPC     H9Y      HAL2     0.900000E-01   1.00800           0
     17013 MEMB     141      POPC     C310     CTL2    -0.180000       12.0110           0
     17014 MEMB     141      POPC     H10X     HAL2     0.900000E-01   1.00800           0
     17015 MEMB     141      POPC     H10Y     HAL2     0.900000E-01   1.00800           0
     17016 MEMB     141      POPC     C311     CTL2    -0.180000       12.0110           0
     17017 MEMB     141      POPC     H11X     HAL2     0.900000E-01   1.00800           0
     17018 MEMB     141      POPC     H11Y     HAL2     0.900000E-01   1.00800           0
     17019 MEMB     141      POPC     C312     CTL2    -0.180000       12.0110           0
     17020 MEMB     141      POPC     H12X     HAL2     0.900000E-01   1.00800           0
     17021 MEMB     141      POPC     H12Y     HAL2     0.900000E-01   1.00800           0
     17022 MEMB     141      POPC     C313     CTL2    -0.180000       12.0110           0
     17023 MEMB     141      POPC     H13X     HAL2     0.900000E-01   1.00800           0
     17024 MEMB     141      POPC     H13Y     HAL2     0.900000E-01   1.00800           0
     17025 MEMB     141      POPC     C314     CTL2    -0.180000       12.0110           0
     17026 MEMB     141      POPC     H14X     HAL2     0.900000E-01   1.00800           0
     17027 MEMB     141      POPC     H14Y     HAL2     0.900000E-01   1.00800           0
     17028 MEMB     141      POPC     C315     CTL2    -0.180000       12.0110           0
     17029 MEMB     141      POPC     H15X     HAL2     0.900000E-01   1.00800           0
     17030 MEMB     141      POPC     H15Y     HAL2     0.900000E-01   1.00800           0
     17031 MEMB     141      POPC     C316     CTL3    -0.270000       12.0110           0
     17032 MEMB     141      POPC     H16X     HAL3     0.900000E-01   1.00800           0
     17033 MEMB     141      POPC     H16Y     HAL3     0.900000E-01   1.00800           0
     17034 MEMB     141      POPC     H16Z     HAL3     0.900000E-01   1.00800           0
     17035 MEMB     142      POPC     N        NTL     -0.600000       14.0070           0
     17036 MEMB     142      POPC     C12      CTL2    -0.100000       12.0110           0
     17037 MEMB     142      POPC     H12A     HL       0.250000       1.00800           0
     17038 MEMB     142      POPC     H12B     HL       0.250000       1.00800           0
     17039 MEMB     142      POPC     C13      CTL5    -0.350000       12.0110           0
     17040 MEMB     142      POPC     H13A     HL       0.250000       1.00800           0
     17041 MEMB     142      POPC     H13B     HL       0.250000       1.00800           0
     17042 MEMB     142      POPC     H13C     HL       0.250000       1.00800           0
     17043 MEMB     142      POPC     C14      CTL5    -0.350000       12.0110           0
     17044 MEMB     142      POPC     H14A     HL       0.250000       1.00800           0
     17045 MEMB     142      POPC     H14B     HL       0.250000       1.00800           0
     17046 MEMB     142      POPC     H14C     HL       0.250000       1.00800           0
     17047 MEMB     142      POPC     C15      CTL5    -0.350000       12.0110           0
     17048 MEMB     142      POPC     H15A     HL       0.250000       1.00800           0
     17049 MEMB     142      POPC     H15B     HL       0.250000       1.00800           0
     17050 MEMB     142      POPC     H15C     HL       0.250000       1.00800           0
     17051 MEMB     142      POPC     C11      CTL2    -0.800000E-01   12.0110           0
     17052 MEMB     142      POPC     H11A     HAL2     0.900000E-01   1.00800           0
     17053 MEMB     142      POPC     H11B     HAL2     0.900000E-01   1.00800           0
     17054 MEMB     142      POPC     P        PL        1.50000       30.9740           0
     17055 MEMB     142      POPC     O13      O2L     -0.780000       15.9994           0
     17056 MEMB     142      POPC     O14      O2L     -0.780000       15.9994           0
     17057 MEMB     142      POPC     O12      OSLP    -0.570000       15.9994           0
     17058 MEMB     142      POPC     O11      OSLP    -0.570000       15.9994           0
     17059 MEMB     142      POPC     C1       CTL2    -0.800000E-01   12.0110           0
     17060 MEMB     142      POPC     HA       HAL2     0.900000E-01   1.00800           0
     17061 MEMB     142      POPC     HB       HAL2     0.900000E-01   1.00800           0
     17062 MEMB     142      POPC     C2       CTL1     0.170000       12.0110           0
     17063 MEMB     142      POPC     HS       HAL1     0.900000E-01   1.00800           0
     17064 MEMB     142      POPC     O21      OSL     -0.490000       15.9994           0
     17065 MEMB     142      POPC     C21      CL       0.900000       12.0110           0
     17066 MEMB     142      POPC     O22      OBL     -0.630000       15.9994           0
     17067 MEMB     142      POPC     C22      CTL2    -0.220000       12.0110           0
     17068 MEMB     142      POPC     H2R      HAL2     0.900000E-01   1.00800           0
     17069 MEMB     142      POPC     H2S      HAL2     0.900000E-01   1.00800           0
     17070 MEMB     142      POPC     C3       CTL2     0.800000E-01   12.0110           0
     17071 MEMB     142      POPC     HX       HAL2     0.900000E-01   1.00800           0
     17072 MEMB     142      POPC     HY       HAL2     0.900000E-01   1.00800           0
     17073 MEMB     142      POPC     O31      OSL     -0.490000       15.9994           0
     17074 MEMB     142      POPC     C31      CL       0.900000       12.0110           0
     17075 MEMB     142      POPC     O32      OBL     -0.630000       15.9994           0
     17076 MEMB     142      POPC     C32      CTL2    -0.220000       12.0110           0
     17077 MEMB     142      POPC     H2X      HAL2     0.900000E-01   1.00800           0
     17078 MEMB     142      POPC     H2Y      HAL2     0.900000E-01   1.00800           0
     17079 MEMB     142      POPC     C23      CTL2    -0.180000       12.0110           0
     17080 MEMB     142      POPC     H3R      HAL2     0.900000E-01   1.00800           0
     17081 MEMB     142      POPC     H3S      HAL2     0.900000E-01   1.00800           0
     17082 MEMB     142      POPC     C24      CTL2    -0.180000       12.0110           0
     17083 MEMB     142      POPC     H4R      HAL2     0.900000E-01   1.00800           0
     17084 MEMB     142      POPC     H4S      HAL2     0.900000E-01   1.00800           0
     17085 MEMB     142      POPC     C25      CTL2    -0.180000       12.0110           0
     17086 MEMB     142      POPC     H5R      HAL2     0.900000E-01   1.00800           0
     17087 MEMB     142      POPC     H5S      HAL2     0.900000E-01   1.00800           0
     17088 MEMB     142      POPC     C26      CTL2    -0.180000       12.0110           0
     17089 MEMB     142      POPC     H6R      HAL2     0.900000E-01   1.00800           0
     17090 MEMB     142      POPC     H6S      HAL2     0.900000E-01   1.00800           0
     17091 MEMB     142      POPC     C27      CTL2    -0.180000       12.0110           0
     17092 MEMB     142      POPC     H7R      HAL2     0.900000E-01   1.00800           0
     17093 MEMB     142      POPC     H7S      HAL2     0.900000E-01   1.00800           0
     17094 MEMB     142      POPC     C28      CTL2    -0.180000       12.0110           0
     17095 MEMB     142      POPC     H8R      HAL2     0.900000E-01   1.00800           0
     17096 MEMB     142      POPC     H8S      HAL2     0.900000E-01   1.00800           0
     17097 MEMB     142      POPC     C29      CEL1    -0.150000       12.0110           0
     17098 MEMB     142      POPC     H91      HEL1     0.150000       1.00800           0
     17099 MEMB     142      POPC     C210     CEL1    -0.150000       12.0110           0
     17100 MEMB     142      POPC     H101     HEL1     0.150000       1.00800           0
     17101 MEMB     142      POPC     C211     CTL2    -0.180000       12.0110           0
     17102 MEMB     142      POPC     H11R     HAL2     0.900000E-01   1.00800           0
     17103 MEMB     142      POPC     H11S     HAL2     0.900000E-01   1.00800           0
     17104 MEMB     142      POPC     C212     CTL2    -0.180000       12.0110           0
     17105 MEMB     142      POPC     H12R     HAL2     0.900000E-01   1.00800           0
     17106 MEMB     142      POPC     H12S     HAL2     0.900000E-01   1.00800           0
     17107 MEMB     142      POPC     C213     CTL2    -0.180000       12.0110           0
     17108 MEMB     142      POPC     H13R     HAL2     0.900000E-01   1.00800           0
     17109 MEMB     142      POPC     H13S     HAL2     0.900000E-01   1.00800           0
     17110 MEMB     142      POPC     C214     CTL2    -0.180000       12.0110           0
     17111 MEMB     142      POPC     H14R     HAL2     0.900000E-01   1.00800           0
     17112 MEMB     142      POPC     H14S     HAL2     0.900000E-01   1.00800           0
     17113 MEMB     142      POPC     C215     CTL2    -0.180000       12.0110           0
     17114 MEMB     142      POPC     H15R     HAL2     0.900000E-01   1.00800           0
     17115 MEMB     142      POPC     H15S     HAL2     0.900000E-01   1.00800           0
     17116 MEMB     142      POPC     C216     CTL2    -0.180000       12.0110           0
     17117 MEMB     142      POPC     H16R     HAL2     0.900000E-01   1.00800           0
     17118 MEMB     142      POPC     H16S     HAL2     0.900000E-01   1.00800           0
     17119 MEMB     142      POPC     C217     CTL2    -0.180000       12.0110           0
     17120 MEMB     142      POPC     H17R     HAL2     0.900000E-01   1.00800           0
     17121 MEMB     142      POPC     H17S     HAL2     0.900000E-01   1.00800           0
     17122 MEMB     142      POPC     C218     CTL3    -0.270000       12.0110           0
     17123 MEMB     142      POPC     H18R     HAL3     0.900000E-01   1.00800           0
     17124 MEMB     142      POPC     H18S     HAL3     0.900000E-01   1.00800           0
     17125 MEMB     142      POPC     H18T     HAL3     0.900000E-01   1.00800           0
     17126 MEMB     142      POPC     C33      CTL2    -0.180000       12.0110           0
     17127 MEMB     142      POPC     H3X      HAL2     0.900000E-01   1.00800           0
     17128 MEMB     142      POPC     H3Y      HAL2     0.900000E-01   1.00800           0
     17129 MEMB     142      POPC     C34      CTL2    -0.180000       12.0110           0
     17130 MEMB     142      POPC     H4X      HAL2     0.900000E-01   1.00800           0
     17131 MEMB     142      POPC     H4Y      HAL2     0.900000E-01   1.00800           0
     17132 MEMB     142      POPC     C35      CTL2    -0.180000       12.0110           0
     17133 MEMB     142      POPC     H5X      HAL2     0.900000E-01   1.00800           0
     17134 MEMB     142      POPC     H5Y      HAL2     0.900000E-01   1.00800           0
     17135 MEMB     142      POPC     C36      CTL2    -0.180000       12.0110           0
     17136 MEMB     142      POPC     H6X      HAL2     0.900000E-01   1.00800           0
     17137 MEMB     142      POPC     H6Y      HAL2     0.900000E-01   1.00800           0
     17138 MEMB     142      POPC     C37      CTL2    -0.180000       12.0110           0
     17139 MEMB     142      POPC     H7X      HAL2     0.900000E-01   1.00800           0
     17140 MEMB     142      POPC     H7Y      HAL2     0.900000E-01   1.00800           0
     17141 MEMB     142      POPC     C38      CTL2    -0.180000       12.0110           0
     17142 MEMB     142      POPC     H8X      HAL2     0.900000E-01   1.00800           0
     17143 MEMB     142      POPC     H8Y      HAL2     0.900000E-01   1.00800           0
     17144 MEMB     142      POPC     C39      CTL2    -0.180000       12.0110           0
     17145 MEMB     142      POPC     H9X      HAL2     0.900000E-01   1.00800           0
     17146 MEMB     142      POPC     H9Y      HAL2     0.900000E-01   1.00800           0
     17147 MEMB     142      POPC     C310     CTL2    -0.180000       12.0110           0
     17148 MEMB     142      POPC     H10X     HAL2     0.900000E-01   1.00800           0
     17149 MEMB     142      POPC     H10Y     HAL2     0.900000E-01   1.00800           0
     17150 MEMB     142      POPC     C311     CTL2    -0.180000       12.0110           0
     17151 MEMB     142      POPC     H11X     HAL2     0.900000E-01   1.00800           0
     17152 MEMB     142      POPC     H11Y     HAL2     0.900000E-01   1.00800           0
     17153 MEMB     142      POPC     C312     CTL2    -0.180000       12.0110           0
     17154 MEMB     142      POPC     H12X     HAL2     0.900000E-01   1.00800           0
     17155 MEMB     142      POPC     H12Y     HAL2     0.900000E-01   1.00800           0
     17156 MEMB     142      POPC     C313     CTL2    -0.180000       12.0110           0
     17157 MEMB     142      POPC     H13X     HAL2     0.900000E-01   1.00800           0
     17158 MEMB     142      POPC     H13Y     HAL2     0.900000E-01   1.00800           0
     17159 MEMB     142      POPC     C314     CTL2    -0.180000       12.0110           0
     17160 MEMB     142      POPC     H14X     HAL2     0.900000E-01   1.00800           0
     17161 MEMB     142      POPC     H14Y     HAL2     0.900000E-01   1.00800           0
     17162 MEMB     142      POPC     C315     CTL2    -0.180000       12.0110           0
     17163 MEMB     142      POPC     H15X     HAL2     0.900000E-01   1.00800           0
     17164 MEMB     142      POPC     H15Y     HAL2     0.900000E-01   1.00800           0
     17165 MEMB     142      POPC     C316     CTL3    -0.270000       12.0110           0
     17166 MEMB     142      POPC     H16X     HAL3     0.900000E-01   1.00800           0
     17167 MEMB     142      POPC     H16Y     HAL3     0.900000E-01   1.00800           0
     17168 MEMB     142      POPC     H16Z     HAL3     0.900000E-01   1.00800           0
     17169 MEMB     143      POPC     N        NTL     -0.600000       14.0070           0
     17170 MEMB     143      POPC     C12      CTL2    -0.100000       12.0110           0
     17171 MEMB     143      POPC     H12A     HL       0.250000       1.00800           0
     17172 MEMB     143      POPC     H12B     HL       0.250000       1.00800           0
     17173 MEMB     143      POPC     C13      CTL5    -0.350000       12.0110           0
     17174 MEMB     143      POPC     H13A     HL       0.250000       1.00800           0
     17175 MEMB     143      POPC     H13B     HL       0.250000       1.00800           0
     17176 MEMB     143      POPC     H13C     HL       0.250000       1.00800           0
     17177 MEMB     143      POPC     C14      CTL5    -0.350000       12.0110           0
     17178 MEMB     143      POPC     H14A     HL       0.250000       1.00800           0
     17179 MEMB     143      POPC     H14B     HL       0.250000       1.00800           0
     17180 MEMB     143      POPC     H14C     HL       0.250000       1.00800           0
     17181 MEMB     143      POPC     C15      CTL5    -0.350000       12.0110           0
     17182 MEMB     143      POPC     H15A     HL       0.250000       1.00800           0
     17183 MEMB     143      POPC     H15B     HL       0.250000       1.00800           0
     17184 MEMB     143      POPC     H15C     HL       0.250000       1.00800           0
     17185 MEMB     143      POPC     C11      CTL2    -0.800000E-01   12.0110           0
     17186 MEMB     143      POPC     H11A     HAL2     0.900000E-01   1.00800           0
     17187 MEMB     143      POPC     H11B     HAL2     0.900000E-01   1.00800           0
     17188 MEMB     143      POPC     P        PL        1.50000       30.9740           0
     17189 MEMB     143      POPC     O13      O2L     -0.780000       15.9994           0
     17190 MEMB     143      POPC     O14      O2L     -0.780000       15.9994           0
     17191 MEMB     143      POPC     O12      OSLP    -0.570000       15.9994           0
     17192 MEMB     143      POPC     O11      OSLP    -0.570000       15.9994           0
     17193 MEMB     143      POPC     C1       CTL2    -0.800000E-01   12.0110           0
     17194 MEMB     143      POPC     HA       HAL2     0.900000E-01   1.00800           0
     17195 MEMB     143      POPC     HB       HAL2     0.900000E-01   1.00800           0
     17196 MEMB     143      POPC     C2       CTL1     0.170000       12.0110           0
     17197 MEMB     143      POPC     HS       HAL1     0.900000E-01   1.00800           0
     17198 MEMB     143      POPC     O21      OSL     -0.490000       15.9994           0
     17199 MEMB     143      POPC     C21      CL       0.900000       12.0110           0
     17200 MEMB     143      POPC     O22      OBL     -0.630000       15.9994           0
     17201 MEMB     143      POPC     C22      CTL2    -0.220000       12.0110           0
     17202 MEMB     143      POPC     H2R      HAL2     0.900000E-01   1.00800           0
     17203 MEMB     143      POPC     H2S      HAL2     0.900000E-01   1.00800           0
     17204 MEMB     143      POPC     C3       CTL2     0.800000E-01   12.0110           0
     17205 MEMB     143      POPC     HX       HAL2     0.900000E-01   1.00800           0
     17206 MEMB     143      POPC     HY       HAL2     0.900000E-01   1.00800           0
     17207 MEMB     143      POPC     O31      OSL     -0.490000       15.9994           0
     17208 MEMB     143      POPC     C31      CL       0.900000       12.0110           0
     17209 MEMB     143      POPC     O32      OBL     -0.630000       15.9994           0
     17210 MEMB     143      POPC     C32      CTL2    -0.220000       12.0110           0
     17211 MEMB     143      POPC     H2X      HAL2     0.900000E-01   1.00800           0
     17212 MEMB     143      POPC     H2Y      HAL2     0.900000E-01   1.00800           0
     17213 MEMB     143      POPC     C23      CTL2    -0.180000       12.0110           0
     17214 MEMB     143      POPC     H3R      HAL2     0.900000E-01   1.00800           0
     17215 MEMB     143      POPC     H3S      HAL2     0.900000E-01   1.00800           0
     17216 MEMB     143      POPC     C24      CTL2    -0.180000       12.0110           0
     17217 MEMB     143      POPC     H4R      HAL2     0.900000E-01   1.00800           0
     17218 MEMB     143      POPC     H4S      HAL2     0.900000E-01   1.00800           0
     17219 MEMB     143      POPC     C25      CTL2    -0.180000       12.0110           0
     17220 MEMB     143      POPC     H5R      HAL2     0.900000E-01   1.00800           0
     17221 MEMB     143      POPC     H5S      HAL2     0.900000E-01   1.00800           0
     17222 MEMB     143      POPC     C26      CTL2    -0.180000       12.0110           0
     17223 MEMB     143      POPC     H6R      HAL2     0.900000E-01   1.00800           0
     17224 MEMB     143      POPC     H6S      HAL2     0.900000E-01   1.00800           0
     17225 MEMB     143      POPC     C27      CTL2    -0.180000       12.0110           0
     17226 MEMB     143      POPC     H7R      HAL2     0.900000E-01   1.00800           0
     17227 MEMB     143      POPC     H7S      HAL2     0.900000E-01   1.00800           0
     17228 MEMB     143      POPC     C28      CTL2    -0.180000       12.0110           0
     17229 MEMB     143      POPC     H8R      HAL2     0.900000E-01   1.00800           0
     17230 MEMB     143      POPC     H8S      HAL2     0.900000E-01   1.00800           0
     17231 MEMB     143      POPC     C29      CEL1    -0.150000       12.0110           0
     17232 MEMB     143      POPC     H91      HEL1     0.150000       1.00800           0
     17233 MEMB     143      POPC     C210     CEL1    -0.150000       12.0110           0
     17234 MEMB     143      POPC     H101     HEL1     0.150000       1.00800           0
     17235 MEMB     143      POPC     C211     CTL2    -0.180000       12.0110           0
     17236 MEMB     143      POPC     H11R     HAL2     0.900000E-01   1.00800           0
     17237 MEMB     143      POPC     H11S     HAL2     0.900000E-01   1.00800           0
     17238 MEMB     143      POPC     C212     CTL2    -0.180000       12.0110           0
     17239 MEMB     143      POPC     H12R     HAL2     0.900000E-01   1.00800           0
     17240 MEMB     143      POPC     H12S     HAL2     0.900000E-01   1.00800           0
     17241 MEMB     143      POPC     C213     CTL2    -0.180000       12.0110           0
     17242 MEMB     143      POPC     H13R     HAL2     0.900000E-01   1.00800           0
     17243 MEMB     143      POPC     H13S     HAL2     0.900000E-01   1.00800           0
     17244 MEMB     143      POPC     C214     CTL2    -0.180000       12.0110           0
     17245 MEMB     143      POPC     H14R     HAL2     0.900000E-01   1.00800           0
     17246 MEMB     143      POPC     H14S     HAL2     0.900000E-01   1.00800           0
     17247 MEMB     143      POPC     C215     CTL2    -0.180000       12.0110           0
     17248 MEMB     143      POPC     H15R     HAL2     0.900000E-01   1.00800           0
     17249 MEMB     143      POPC     H15S     HAL2     0.900000E-01   1.00800           0
     17250 MEMB     143      POPC     C216     CTL2    -0.180000       12.0110           0
     17251 MEMB     143      POPC     H16R     HAL2     0.900000E-01   1.00800           0
     17252 MEMB     143      POPC     H16S     HAL2     0.900000E-01   1.00800           0
     17253 MEMB     143      POPC     C217     CTL2    -0.180000       12.0110           0
     17254 MEMB     143      POPC     H17R     HAL2     0.900000E-01   1.00800           0
     17255 MEMB     143      POPC     H17S     HAL2     0.900000E-01   1.00800           0
     17256 MEMB     143      POPC     C218     CTL3    -0.270000       12.0110           0
     17257 MEMB     143      POPC     H18R     HAL3     0.900000E-01   1.00800           0
     17258 MEMB     143      POPC     H18S     HAL3     0.900000E-01   1.00800           0
     17259 MEMB     143      POPC     H18T     HAL3     0.900000E-01   1.00800           0
     17260 MEMB     143      POPC     C33      CTL2    -0.180000       12.0110           0
     17261 MEMB     143      POPC     H3X      HAL2     0.900000E-01   1.00800           0
     17262 MEMB     143      POPC     H3Y      HAL2     0.900000E-01   1.00800           0
     17263 MEMB     143      POPC     C34      CTL2    -0.180000       12.0110           0
     17264 MEMB     143      POPC     H4X      HAL2     0.900000E-01   1.00800           0
     17265 MEMB     143      POPC     H4Y      HAL2     0.900000E-01   1.00800           0
     17266 MEMB     143      POPC     C35      CTL2    -0.180000       12.0110           0
     17267 MEMB     143      POPC     H5X      HAL2     0.900000E-01   1.00800           0
     17268 MEMB     143      POPC     H5Y      HAL2     0.900000E-01   1.00800           0
     17269 MEMB     143      POPC     C36      CTL2    -0.180000       12.0110           0
     17270 MEMB     143      POPC     H6X      HAL2     0.900000E-01   1.00800           0
     17271 MEMB     143      POPC     H6Y      HAL2     0.900000E-01   1.00800           0
     17272 MEMB     143      POPC     C37      CTL2    -0.180000       12.0110           0
     17273 MEMB     143      POPC     H7X      HAL2     0.900000E-01   1.00800           0
     17274 MEMB     143      POPC     H7Y      HAL2     0.900000E-01   1.00800           0
     17275 MEMB     143      POPC     C38      CTL2    -0.180000       12.0110           0
     17276 MEMB     143      POPC     H8X      HAL2     0.900000E-01   1.00800           0
     17277 MEMB     143      POPC     H8Y      HAL2     0.900000E-01   1.00800           0
     17278 MEMB     143      POPC     C39      CTL2    -0.180000       12.0110           0
     17279 MEMB     143      POPC     H9X      HAL2     0.900000E-01   1.00800           0
     17280 MEMB     143      POPC     H9Y      HAL2     0.900000E-01   1.00800           0
     17281 MEMB     143      POPC     C310     CTL2    -0.180000       12.0110           0
     17282 MEMB     143      POPC     H10X     HAL2     0.900000E-01   1.00800           0
     17283 MEMB     143      POPC     H10Y     HAL2     0.900000E-01   1.00800           0
     17284 MEMB     143      POPC     C311     CTL2    -0.180000       12.0110           0
     17285 MEMB     143      POPC     H11X     HAL2     0.900000E-01   1.00800           0
     17286 MEMB     143      POPC     H11Y     HAL2     0.900000E-01   1.00800           0
     17287 MEMB     143      POPC     C312     CTL2    -0.180000       12.0110           0
     17288 MEMB     143      POPC     H12X     HAL2     0.900000E-01   1.00800           0
     17289 MEMB     143      POPC     H12Y     HAL2     0.900000E-01   1.00800           0
     17290 MEMB     143      POPC     C313     CTL2    -0.180000       12.0110           0
     17291 MEMB     143      POPC     H13X     HAL2     0.900000E-01   1.00800           0
     17292 MEMB     143      POPC     H13Y     HAL2     0.900000E-01   1.00800           0
     17293 MEMB     143      POPC     C314     CTL2    -0.180000       12.0110           0
     17294 MEMB     143      POPC     H14X     HAL2     0.900000E-01   1.00800           0
     17295 MEMB     143      POPC     H14Y     HAL2     0.900000E-01   1.00800           0
     17296 MEMB     143      POPC     C315     CTL2    -0.180000       12.0110           0
     17297 MEMB     143      POPC     H15X     HAL2     0.900000E-01   1.00800           0
     17298 MEMB     143      POPC     H15Y     HAL2     0.900000E-01   1.00800           0
     17299 MEMB     143      POPC     C316     CTL3    -0.270000       12.0110           0
     17300 MEMB     143      POPC     H16X     HAL3     0.900000E-01   1.00800           0
     17301 MEMB     143      POPC     H16Y     HAL3     0.900000E-01   1.00800           0
     17302 MEMB     143      POPC     H16Z     HAL3     0.900000E-01   1.00800           0
     17303 MEMB     144      POPC     N        NTL     -0.600000       14.0070           0
     17304 MEMB     144      POPC     C12      CTL2    -0.100000       12.0110           0
     17305 MEMB     144      POPC     H12A     HL       0.250000       1.00800           0
     17306 MEMB     144      POPC     H12B     HL       0.250000       1.00800           0
     17307 MEMB     144      POPC     C13      CTL5    -0.350000       12.0110           0
     17308 MEMB     144      POPC     H13A     HL       0.250000       1.00800           0
     17309 MEMB     144      POPC     H13B     HL       0.250000       1.00800           0
     17310 MEMB     144      POPC     H13C     HL       0.250000       1.00800           0
     17311 MEMB     144      POPC     C14      CTL5    -0.350000       12.0110           0
     17312 MEMB     144      POPC     H14A     HL       0.250000       1.00800           0
     17313 MEMB     144      POPC     H14B     HL       0.250000       1.00800           0
     17314 MEMB     144      POPC     H14C     HL       0.250000       1.00800           0
     17315 MEMB     144      POPC     C15      CTL5    -0.350000       12.0110           0
     17316 MEMB     144      POPC     H15A     HL       0.250000       1.00800           0
     17317 MEMB     144      POPC     H15B     HL       0.250000       1.00800           0
     17318 MEMB     144      POPC     H15C     HL       0.250000       1.00800           0
     17319 MEMB     144      POPC     C11      CTL2    -0.800000E-01   12.0110           0
     17320 MEMB     144      POPC     H11A     HAL2     0.900000E-01   1.00800           0
     17321 MEMB     144      POPC     H11B     HAL2     0.900000E-01   1.00800           0
     17322 MEMB     144      POPC     P        PL        1.50000       30.9740           0
     17323 MEMB     144      POPC     O13      O2L     -0.780000       15.9994           0
     17324 MEMB     144      POPC     O14      O2L     -0.780000       15.9994           0
     17325 MEMB     144      POPC     O12      OSLP    -0.570000       15.9994           0
     17326 MEMB     144      POPC     O11      OSLP    -0.570000       15.9994           0
     17327 MEMB     144      POPC     C1       CTL2    -0.800000E-01   12.0110           0
     17328 MEMB     144      POPC     HA       HAL2     0.900000E-01   1.00800           0
     17329 MEMB     144      POPC     HB       HAL2     0.900000E-01   1.00800           0
     17330 MEMB     144      POPC     C2       CTL1     0.170000       12.0110           0
     17331 MEMB     144      POPC     HS       HAL1     0.900000E-01   1.00800           0
     17332 MEMB     144      POPC     O21      OSL     -0.490000       15.9994           0
     17333 MEMB     144      POPC     C21      CL       0.900000       12.0110           0
     17334 MEMB     144      POPC     O22      OBL     -0.630000       15.9994           0
     17335 MEMB     144      POPC     C22      CTL2    -0.220000       12.0110           0
     17336 MEMB     144      POPC     H2R      HAL2     0.900000E-01   1.00800           0
     17337 MEMB     144      POPC     H2S      HAL2     0.900000E-01   1.00800           0
     17338 MEMB     144      POPC     C3       CTL2     0.800000E-01   12.0110           0
     17339 MEMB     144      POPC     HX       HAL2     0.900000E-01   1.00800           0
     17340 MEMB     144      POPC     HY       HAL2     0.900000E-01   1.00800           0
     17341 MEMB     144      POPC     O31      OSL     -0.490000       15.9994           0
     17342 MEMB     144      POPC     C31      CL       0.900000       12.0110           0
     17343 MEMB     144      POPC     O32      OBL     -0.630000       15.9994           0
     17344 MEMB     144      POPC     C32      CTL2    -0.220000       12.0110           0
     17345 MEMB     144      POPC     H2X      HAL2     0.900000E-01   1.00800           0
     17346 MEMB     144      POPC     H2Y      HAL2     0.900000E-01   1.00800           0
     17347 MEMB     144      POPC     C23      CTL2    -0.180000       12.0110           0
     17348 MEMB     144      POPC     H3R      HAL2     0.900000E-01   1.00800           0
     17349 MEMB     144      POPC     H3S      HAL2     0.900000E-01   1.00800           0
     17350 MEMB     144      POPC     C24      CTL2    -0.180000       12.0110           0
     17351 MEMB     144      POPC     H4R      HAL2     0.900000E-01   1.00800           0
     17352 MEMB     144      POPC     H4S      HAL2     0.900000E-01   1.00800           0
     17353 MEMB     144      POPC     C25      CTL2    -0.180000       12.0110           0
     17354 MEMB     144      POPC     H5R      HAL2     0.900000E-01   1.00800           0
     17355 MEMB     144      POPC     H5S      HAL2     0.900000E-01   1.00800           0
     17356 MEMB     144      POPC     C26      CTL2    -0.180000       12.0110           0
     17357 MEMB     144      POPC     H6R      HAL2     0.900000E-01   1.00800           0
     17358 MEMB     144      POPC     H6S      HAL2     0.900000E-01   1.00800           0
     17359 MEMB     144      POPC     C27      CTL2    -0.180000       12.0110           0
     17360 MEMB     144      POPC     H7R      HAL2     0.900000E-01   1.00800           0
     17361 MEMB     144      POPC     H7S      HAL2     0.900000E-01   1.00800           0
     17362 MEMB     144      POPC     C28      CTL2    -0.180000       12.0110           0
     17363 MEMB     144      POPC     H8R      HAL2     0.900000E-01   1.00800           0
     17364 MEMB     144      POPC     H8S      HAL2     0.900000E-01   1.00800           0
     17365 MEMB     144      POPC     C29      CEL1    -0.150000       12.0110           0
     17366 MEMB     144      POPC     H91      HEL1     0.150000       1.00800           0
     17367 MEMB     144      POPC     C210     CEL1    -0.150000       12.0110           0
     17368 MEMB     144      POPC     H101     HEL1     0.150000       1.00800           0
     17369 MEMB     144      POPC     C211     CTL2    -0.180000       12.0110           0
     17370 MEMB     144      POPC     H11R     HAL2     0.900000E-01   1.00800           0
     17371 MEMB     144      POPC     H11S     HAL2     0.900000E-01   1.00800           0
     17372 MEMB     144      POPC     C212     CTL2    -0.180000       12.0110           0
     17373 MEMB     144      POPC     H12R     HAL2     0.900000E-01   1.00800           0
     17374 MEMB     144      POPC     H12S     HAL2     0.900000E-01   1.00800           0
     17375 MEMB     144      POPC     C213     CTL2    -0.180000       12.0110           0
     17376 MEMB     144      POPC     H13R     HAL2     0.900000E-01   1.00800           0
     17377 MEMB     144      POPC     H13S     HAL2     0.900000E-01   1.00800           0
     17378 MEMB     144      POPC     C214     CTL2    -0.180000       12.0110           0
     17379 MEMB     144      POPC     H14R     HAL2     0.900000E-01   1.00800           0
     17380 MEMB     144      POPC     H14S     HAL2     0.900000E-01   1.00800           0
     17381 MEMB     144      POPC     C215     CTL2    -0.180000       12.0110           0
     17382 MEMB     144      POPC     H15R     HAL2     0.900000E-01   1.00800           0
     17383 MEMB     144      POPC     H15S     HAL2     0.900000E-01   1.00800           0
     17384 MEMB     144      POPC     C216     CTL2    -0.180000       12.0110           0
     17385 MEMB     144      POPC     H16R     HAL2     0.900000E-01   1.00800           0
     17386 MEMB     144      POPC     H16S     HAL2     0.900000E-01   1.00800           0
     17387 MEMB     144      POPC     C217     CTL2    -0.180000       12.0110           0
     17388 MEMB     144      POPC     H17R     HAL2     0.900000E-01   1.00800           0
     17389 MEMB     144      POPC     H17S     HAL2     0.900000E-01   1.00800           0
     17390 MEMB     144      POPC     C218     CTL3    -0.270000       12.0110           0
     17391 MEMB     144      POPC     H18R     HAL3     0.900000E-01   1.00800           0
     17392 MEMB     144      POPC     H18S     HAL3     0.900000E-01   1.00800           0
     17393 MEMB     144      POPC     H18T     HAL3     0.900000E-01   1.00800           0
     17394 MEMB     144      POPC     C33      CTL2    -0.180000       12.0110           0
     17395 MEMB     144      POPC     H3X      HAL2     0.900000E-01   1.00800           0
     17396 MEMB     144      POPC     H3Y      HAL2     0.900000E-01   1.00800           0
     17397 MEMB     144      POPC     C34      CTL2    -0.180000       12.0110           0
     17398 MEMB     144      POPC     H4X      HAL2     0.900000E-01   1.00800           0
     17399 MEMB     144      POPC     H4Y      HAL2     0.900000E-01   1.00800           0
     17400 MEMB     144      POPC     C35      CTL2    -0.180000       12.0110           0
     17401 MEMB     144      POPC     H5X      HAL2     0.900000E-01   1.00800           0
     17402 MEMB     144      POPC     H5Y      HAL2     0.900000E-01   1.00800           0
     17403 MEMB     144      POPC     C36      CTL2    -0.180000       12.0110           0
     17404 MEMB     144      POPC     H6X      HAL2     0.900000E-01   1.00800           0
     17405 MEMB     144      POPC     H6Y      HAL2     0.900000E-01   1.00800           0
     17406 MEMB     144      POPC     C37      CTL2    -0.180000       12.0110           0
     17407 MEMB     144      POPC     H7X      HAL2     0.900000E-01   1.00800           0
     17408 MEMB     144      POPC     H7Y      HAL2     0.900000E-01   1.00800           0
     17409 MEMB     144      POPC     C38      CTL2    -0.180000       12.0110           0
     17410 MEMB     144      POPC     H8X      HAL2     0.900000E-01   1.00800           0
     17411 MEMB     144      POPC     H8Y      HAL2     0.900000E-01   1.00800           0
     17412 MEMB     144      POPC     C39      CTL2    -0.180000       12.0110           0
     17413 MEMB     144      POPC     H9X      HAL2     0.900000E-01   1.00800           0
     17414 MEMB     144      POPC     H9Y      HAL2     0.900000E-01   1.00800           0
     17415 MEMB     144      POPC     C310     CTL2    -0.180000       12.0110           0
     17416 MEMB     144      POPC     H10X     HAL2     0.900000E-01   1.00800           0
     17417 MEMB     144      POPC     H10Y     HAL2     0.900000E-01   1.00800           0
     17418 MEMB     144      POPC     C311     CTL2    -0.180000       12.0110           0
     17419 MEMB     144      POPC     H11X     HAL2     0.900000E-01   1.00800           0
     17420 MEMB     144      POPC     H11Y     HAL2     0.900000E-01   1.00800           0
     17421 MEMB     144      POPC     C312     CTL2    -0.180000       12.0110           0
     17422 MEMB     144      POPC     H12X     HAL2     0.900000E-01   1.00800           0
     17423 MEMB     144      POPC     H12Y     HAL2     0.900000E-01   1.00800           0
     17424 MEMB     144      POPC     C313     CTL2    -0.180000       12.0110           0
     17425 MEMB     144      POPC     H13X     HAL2     0.900000E-01   1.00800           0
     17426 MEMB     144      POPC     H13Y     HAL2     0.900000E-01   1.00800           0
     17427 MEMB     144      POPC     C314     CTL2    -0.180000       12.0110           0
     17428 MEMB     144      POPC     H14X     HAL2     0.900000E-01   1.00800           0
     17429 MEMB     144      POPC     H14Y     HAL2     0.900000E-01   1.00800           0
     17430 MEMB     144      POPC     C315     CTL2    -0.180000       12.0110           0
     17431 MEMB     144      POPC     H15X     HAL2     0.900000E-01   1.00800           0
     17432 MEMB     144      POPC     H15Y     HAL2     0.900000E-01   1.00800           0
     17433 MEMB     144      POPC     C316     CTL3    -0.270000       12.0110           0
     17434 MEMB     144      POPC     H16X     HAL3     0.900000E-01   1.00800           0
     17435 MEMB     144      POPC     H16Y     HAL3     0.900000E-01   1.00800           0
     17436 MEMB     144      POPC     H16Z     HAL3     0.900000E-01   1.00800           0
     17437 MEMB     145      POPC     N        NTL     -0.600000       14.0070           0
     17438 MEMB     145      POPC     C12      CTL2    -0.100000       12.0110           0
     17439 MEMB     145      POPC     H12A     HL       0.250000       1.00800           0
     17440 MEMB     145      POPC     H12B     HL       0.250000       1.00800           0
     17441 MEMB     145      POPC     C13      CTL5    -0.350000       12.0110           0
     17442 MEMB     145      POPC     H13A     HL       0.250000       1.00800           0
     17443 MEMB     145      POPC     H13B     HL       0.250000       1.00800           0
     17444 MEMB     145      POPC     H13C     HL       0.250000       1.00800           0
     17445 MEMB     145      POPC     C14      CTL5    -0.350000       12.0110           0
     17446 MEMB     145      POPC     H14A     HL       0.250000       1.00800           0
     17447 MEMB     145      POPC     H14B     HL       0.250000       1.00800           0
     17448 MEMB     145      POPC     H14C     HL       0.250000       1.00800           0
     17449 MEMB     145      POPC     C15      CTL5    -0.350000       12.0110           0
     17450 MEMB     145      POPC     H15A     HL       0.250000       1.00800           0
     17451 MEMB     145      POPC     H15B     HL       0.250000       1.00800           0
     17452 MEMB     145      POPC     H15C     HL       0.250000       1.00800           0
     17453 MEMB     145      POPC     C11      CTL2    -0.800000E-01   12.0110           0
     17454 MEMB     145      POPC     H11A     HAL2     0.900000E-01   1.00800           0
     17455 MEMB     145      POPC     H11B     HAL2     0.900000E-01   1.00800           0
     17456 MEMB     145      POPC     P        PL        1.50000       30.9740           0
     17457 MEMB     145      POPC     O13      O2L     -0.780000       15.9994           0
     17458 MEMB     145      POPC     O14      O2L     -0.780000       15.9994           0
     17459 MEMB     145      POPC     O12      OSLP    -0.570000       15.9994           0
     17460 MEMB     145      POPC     O11      OSLP    -0.570000       15.9994           0
     17461 MEMB     145      POPC     C1       CTL2    -0.800000E-01   12.0110           0
     17462 MEMB     145      POPC     HA       HAL2     0.900000E-01   1.00800           0
     17463 MEMB     145      POPC     HB       HAL2     0.900000E-01   1.00800           0
     17464 MEMB     145      POPC     C2       CTL1     0.170000       12.0110           0
     17465 MEMB     145      POPC     HS       HAL1     0.900000E-01   1.00800           0
     17466 MEMB     145      POPC     O21      OSL     -0.490000       15.9994           0
     17467 MEMB     145      POPC     C21      CL       0.900000       12.0110           0
     17468 MEMB     145      POPC     O22      OBL     -0.630000       15.9994           0
     17469 MEMB     145      POPC     C22      CTL2    -0.220000       12.0110           0
     17470 MEMB     145      POPC     H2R      HAL2     0.900000E-01   1.00800           0
     17471 MEMB     145      POPC     H2S      HAL2     0.900000E-01   1.00800           0
     17472 MEMB     145      POPC     C3       CTL2     0.800000E-01   12.0110           0
     17473 MEMB     145      POPC     HX       HAL2     0.900000E-01   1.00800           0
     17474 MEMB     145      POPC     HY       HAL2     0.900000E-01   1.00800           0
     17475 MEMB     145      POPC     O31      OSL     -0.490000       15.9994           0
     17476 MEMB     145      POPC     C31      CL       0.900000       12.0110           0
     17477 MEMB     145      POPC     O32      OBL     -0.630000       15.9994           0
     17478 MEMB     145      POPC     C32      CTL2    -0.220000       12.0110           0
     17479 MEMB     145      POPC     H2X      HAL2     0.900000E-01   1.00800           0
     17480 MEMB     145      POPC     H2Y      HAL2     0.900000E-01   1.00800           0
     17481 MEMB     145      POPC     C23      CTL2    -0.180000       12.0110           0
     17482 MEMB     145      POPC     H3R      HAL2     0.900000E-01   1.00800           0
     17483 MEMB     145      POPC     H3S      HAL2     0.900000E-01   1.00800           0
     17484 MEMB     145      POPC     C24      CTL2    -0.180000       12.0110           0
     17485 MEMB     145      POPC     H4R      HAL2     0.900000E-01   1.00800           0
     17486 MEMB     145      POPC     H4S      HAL2     0.900000E-01   1.00800           0
     17487 MEMB     145      POPC     C25      CTL2    -0.180000       12.0110           0
     17488 MEMB     145      POPC     H5R      HAL2     0.900000E-01   1.00800           0
     17489 MEMB     145      POPC     H5S      HAL2     0.900000E-01   1.00800           0
     17490 MEMB     145      POPC     C26      CTL2    -0.180000       12.0110           0
     17491 MEMB     145      POPC     H6R      HAL2     0.900000E-01   1.00800           0
     17492 MEMB     145      POPC     H6S      HAL2     0.900000E-01   1.00800           0
     17493 MEMB     145      POPC     C27      CTL2    -0.180000       12.0110           0
     17494 MEMB     145      POPC     H7R      HAL2     0.900000E-01   1.00800           0
     17495 MEMB     145      POPC     H7S      HAL2     0.900000E-01   1.00800           0
     17496 MEMB     145      POPC     C28      CTL2    -0.180000       12.0110           0
     17497 MEMB     145      POPC     H8R      HAL2     0.900000E-01   1.00800           0
     17498 MEMB     145      POPC     H8S      HAL2     0.900000E-01   1.00800           0
     17499 MEMB     145      POPC     C29      CEL1    -0.150000       12.0110           0
     17500 MEMB     145      POPC     H91      HEL1     0.150000       1.00800           0
     17501 MEMB     145      POPC     C210     CEL1    -0.150000       12.0110           0
     17502 MEMB     145      POPC     H101     HEL1     0.150000       1.00800           0
     17503 MEMB     145      POPC     C211     CTL2    -0.180000       12.0110           0
     17504 MEMB     145      POPC     H11R     HAL2     0.900000E-01   1.00800           0
     17505 MEMB     145      POPC     H11S     HAL2     0.900000E-01   1.00800           0
     17506 MEMB     145      POPC     C212     CTL2    -0.180000       12.0110           0
     17507 MEMB     145      POPC     H12R     HAL2     0.900000E-01   1.00800           0
     17508 MEMB     145      POPC     H12S     HAL2     0.900000E-01   1.00800           0
     17509 MEMB     145      POPC     C213     CTL2    -0.180000       12.0110           0
     17510 MEMB     145      POPC     H13R     HAL2     0.900000E-01   1.00800           0
     17511 MEMB     145      POPC     H13S     HAL2     0.900000E-01   1.00800           0
     17512 MEMB     145      POPC     C214     CTL2    -0.180000       12.0110           0
     17513 MEMB     145      POPC     H14R     HAL2     0.900000E-01   1.00800           0
     17514 MEMB     145      POPC     H14S     HAL2     0.900000E-01   1.00800           0
     17515 MEMB     145      POPC     C215     CTL2    -0.180000       12.0110           0
     17516 MEMB     145      POPC     H15R     HAL2     0.900000E-01   1.00800           0
     17517 MEMB     145      POPC     H15S     HAL2     0.900000E-01   1.00800           0
     17518 MEMB     145      POPC     C216     CTL2    -0.180000       12.0110           0
     17519 MEMB     145      POPC     H16R     HAL2     0.900000E-01   1.00800           0
     17520 MEMB     145      POPC     H16S     HAL2     0.900000E-01   1.00800           0
     17521 MEMB     145      POPC     C217     CTL2    -0.180000       12.0110           0
     17522 MEMB     145      POPC     H17R     HAL2     0.900000E-01   1.00800           0
     17523 MEMB     145      POPC     H17S     HAL2     0.900000E-01   1.00800           0
     17524 MEMB     145      POPC     C218     CTL3    -0.270000       12.0110           0
     17525 MEMB     145      POPC     H18R     HAL3     0.900000E-01   1.00800           0
     17526 MEMB     145      POPC     H18S     HAL3     0.900000E-01   1.00800           0
     17527 MEMB     145      POPC     H18T     HAL3     0.900000E-01   1.00800           0
     17528 MEMB     145      POPC     C33      CTL2    -0.180000       12.0110           0
     17529 MEMB     145      POPC     H3X      HAL2     0.900000E-01   1.00800           0
     17530 MEMB     145      POPC     H3Y      HAL2     0.900000E-01   1.00800           0
     17531 MEMB     145      POPC     C34      CTL2    -0.180000       12.0110           0
     17532 MEMB     145      POPC     H4X      HAL2     0.900000E-01   1.00800           0
     17533 MEMB     145      POPC     H4Y      HAL2     0.900000E-01   1.00800           0
     17534 MEMB     145      POPC     C35      CTL2    -0.180000       12.0110           0
     17535 MEMB     145      POPC     H5X      HAL2     0.900000E-01   1.00800           0
     17536 MEMB     145      POPC     H5Y      HAL2     0.900000E-01   1.00800           0
     17537 MEMB     145      POPC     C36      CTL2    -0.180000       12.0110           0
     17538 MEMB     145      POPC     H6X      HAL2     0.900000E-01   1.00800           0
     17539 MEMB     145      POPC     H6Y      HAL2     0.900000E-01   1.00800           0
     17540 MEMB     145      POPC     C37      CTL2    -0.180000       12.0110           0
     17541 MEMB     145      POPC     H7X      HAL2     0.900000E-01   1.00800           0
     17542 MEMB     145      POPC     H7Y      HAL2     0.900000E-01   1.00800           0
     17543 MEMB     145      POPC     C38      CTL2    -0.180000       12.0110           0
     17544 MEMB     145      POPC     H8X      HAL2     0.900000E-01   1.00800           0
     17545 MEMB     145      POPC     H8Y      HAL2     0.900000E-01   1.00800           0
     17546 MEMB     145      POPC     C39      CTL2    -0.180000       12.0110           0
     17547 MEMB     145      POPC     H9X      HAL2     0.900000E-01   1.00800           0
     17548 MEMB     145      POPC     H9Y      HAL2     0.900000E-01   1.00800           0
     17549 MEMB     145      POPC     C310     CTL2    -0.180000       12.0110           0
     17550 MEMB     145      POPC     H10X     HAL2     0.900000E-01   1.00800           0
     17551 MEMB     145      POPC     H10Y     HAL2     0.900000E-01   1.00800           0
     17552 MEMB     145      POPC     C311     CTL2    -0.180000       12.0110           0
     17553 MEMB     145      POPC     H11X     HAL2     0.900000E-01   1.00800           0
     17554 MEMB     145      POPC     H11Y     HAL2     0.900000E-01   1.00800           0
     17555 MEMB     145      POPC     C312     CTL2    -0.180000       12.0110           0
     17556 MEMB     145      POPC     H12X     HAL2     0.900000E-01   1.00800           0
     17557 MEMB     145      POPC     H12Y     HAL2     0.900000E-01   1.00800           0
     17558 MEMB     145      POPC     C313     CTL2    -0.180000       12.0110           0
     17559 MEMB     145      POPC     H13X     HAL2     0.900000E-01   1.00800           0
     17560 MEMB     145      POPC     H13Y     HAL2     0.900000E-01   1.00800           0
     17561 MEMB     145      POPC     C314     CTL2    -0.180000       12.0110           0
     17562 MEMB     145      POPC     H14X     HAL2     0.900000E-01   1.00800           0
     17563 MEMB     145      POPC     H14Y     HAL2     0.900000E-01   1.00800           0
     17564 MEMB     145      POPC     C315     CTL2    -0.180000       12.0110           0
     17565 MEMB     145      POPC     H15X     HAL2     0.900000E-01   1.00800           0
     17566 MEMB     145      POPC     H15Y     HAL2     0.900000E-01   1.00800           0
     17567 MEMB     145      POPC     C316     CTL3    -0.270000       12.0110           0
     17568 MEMB     145      POPC     H16X     HAL3     0.900000E-01   1.00800           0
     17569 MEMB     145      POPC     H16Y     HAL3     0.900000E-01   1.00800           0
     17570 MEMB     145      POPC     H16Z     HAL3     0.900000E-01   1.00800           0
     17571 MEMB     146      POPC     N        NTL     -0.600000       14.0070           0
     17572 MEMB     146      POPC     C12      CTL2    -0.100000       12.0110           0
     17573 MEMB     146      POPC     H12A     HL       0.250000       1.00800           0
     17574 MEMB     146      POPC     H12B     HL       0.250000       1.00800           0
     17575 MEMB     146      POPC     C13      CTL5    -0.350000       12.0110           0
     17576 MEMB     146      POPC     H13A     HL       0.250000       1.00800           0
     17577 MEMB     146      POPC     H13B     HL       0.250000       1.00800           0
     17578 MEMB     146      POPC     H13C     HL       0.250000       1.00800           0
     17579 MEMB     146      POPC     C14      CTL5    -0.350000       12.0110           0
     17580 MEMB     146      POPC     H14A     HL       0.250000       1.00800           0
     17581 MEMB     146      POPC     H14B     HL       0.250000       1.00800           0
     17582 MEMB     146      POPC     H14C     HL       0.250000       1.00800           0
     17583 MEMB     146      POPC     C15      CTL5    -0.350000       12.0110           0
     17584 MEMB     146      POPC     H15A     HL       0.250000       1.00800           0
     17585 MEMB     146      POPC     H15B     HL       0.250000       1.00800           0
     17586 MEMB     146      POPC     H15C     HL       0.250000       1.00800           0
     17587 MEMB     146      POPC     C11      CTL2    -0.800000E-01   12.0110           0
     17588 MEMB     146      POPC     H11A     HAL2     0.900000E-01   1.00800           0
     17589 MEMB     146      POPC     H11B     HAL2     0.900000E-01   1.00800           0
     17590 MEMB     146      POPC     P        PL        1.50000       30.9740           0
     17591 MEMB     146      POPC     O13      O2L     -0.780000       15.9994           0
     17592 MEMB     146      POPC     O14      O2L     -0.780000       15.9994           0
     17593 MEMB     146      POPC     O12      OSLP    -0.570000       15.9994           0
     17594 MEMB     146      POPC     O11      OSLP    -0.570000       15.9994           0
     17595 MEMB     146      POPC     C1       CTL2    -0.800000E-01   12.0110           0
     17596 MEMB     146      POPC     HA       HAL2     0.900000E-01   1.00800           0
     17597 MEMB     146      POPC     HB       HAL2     0.900000E-01   1.00800           0
     17598 MEMB     146      POPC     C2       CTL1     0.170000       12.0110           0
     17599 MEMB     146      POPC     HS       HAL1     0.900000E-01   1.00800           0
     17600 MEMB     146      POPC     O21      OSL     -0.490000       15.9994           0
     17601 MEMB     146      POPC     C21      CL       0.900000       12.0110           0
     17602 MEMB     146      POPC     O22      OBL     -0.630000       15.9994           0
     17603 MEMB     146      POPC     C22      CTL2    -0.220000       12.0110           0
     17604 MEMB     146      POPC     H2R      HAL2     0.900000E-01   1.00800           0
     17605 MEMB     146      POPC     H2S      HAL2     0.900000E-01   1.00800           0
     17606 MEMB     146      POPC     C3       CTL2     0.800000E-01   12.0110           0
     17607 MEMB     146      POPC     HX       HAL2     0.900000E-01   1.00800           0
     17608 MEMB     146      POPC     HY       HAL2     0.900000E-01   1.00800           0
     17609 MEMB     146      POPC     O31      OSL     -0.490000       15.9994           0
     17610 MEMB     146      POPC     C31      CL       0.900000       12.0110           0
     17611 MEMB     146      POPC     O32      OBL     -0.630000       15.9994           0
     17612 MEMB     146      POPC     C32      CTL2    -0.220000       12.0110           0
     17613 MEMB     146      POPC     H2X      HAL2     0.900000E-01   1.00800           0
     17614 MEMB     146      POPC     H2Y      HAL2     0.900000E-01   1.00800           0
     17615 MEMB     146      POPC     C23      CTL2    -0.180000       12.0110           0
     17616 MEMB     146      POPC     H3R      HAL2     0.900000E-01   1.00800           0
     17617 MEMB     146      POPC     H3S      HAL2     0.900000E-01   1.00800           0
     17618 MEMB     146      POPC     C24      CTL2    -0.180000       12.0110           0
     17619 MEMB     146      POPC     H4R      HAL2     0.900000E-01   1.00800           0
     17620 MEMB     146      POPC     H4S      HAL2     0.900000E-01   1.00800           0
     17621 MEMB     146      POPC     C25      CTL2    -0.180000       12.0110           0
     17622 MEMB     146      POPC     H5R      HAL2     0.900000E-01   1.00800           0
     17623 MEMB     146      POPC     H5S      HAL2     0.900000E-01   1.00800           0
     17624 MEMB     146      POPC     C26      CTL2    -0.180000       12.0110           0
     17625 MEMB     146      POPC     H6R      HAL2     0.900000E-01   1.00800           0
     17626 MEMB     146      POPC     H6S      HAL2     0.900000E-01   1.00800           0
     17627 MEMB     146      POPC     C27      CTL2    -0.180000       12.0110           0
     17628 MEMB     146      POPC     H7R      HAL2     0.900000E-01   1.00800           0
     17629 MEMB     146      POPC     H7S      HAL2     0.900000E-01   1.00800           0
     17630 MEMB     146      POPC     C28      CTL2    -0.180000       12.0110           0
     17631 MEMB     146      POPC     H8R      HAL2     0.900000E-01   1.00800           0
     17632 MEMB     146      POPC     H8S      HAL2     0.900000E-01   1.00800           0
     17633 MEMB     146      POPC     C29      CEL1    -0.150000       12.0110           0
     17634 MEMB     146      POPC     H91      HEL1     0.150000       1.00800           0
     17635 MEMB     146      POPC     C210     CEL1    -0.150000       12.0110           0
     17636 MEMB     146      POPC     H101     HEL1     0.150000       1.00800           0
     17637 MEMB     146      POPC     C211     CTL2    -0.180000       12.0110           0
     17638 MEMB     146      POPC     H11R     HAL2     0.900000E-01   1.00800           0
     17639 MEMB     146      POPC     H11S     HAL2     0.900000E-01   1.00800           0
     17640 MEMB     146      POPC     C212     CTL2    -0.180000       12.0110           0
     17641 MEMB     146      POPC     H12R     HAL2     0.900000E-01   1.00800           0
     17642 MEMB     146      POPC     H12S     HAL2     0.900000E-01   1.00800           0
     17643 MEMB     146      POPC     C213     CTL2    -0.180000       12.0110           0
     17644 MEMB     146      POPC     H13R     HAL2     0.900000E-01   1.00800           0
     17645 MEMB     146      POPC     H13S     HAL2     0.900000E-01   1.00800           0
     17646 MEMB     146      POPC     C214     CTL2    -0.180000       12.0110           0
     17647 MEMB     146      POPC     H14R     HAL2     0.900000E-01   1.00800           0
     17648 MEMB     146      POPC     H14S     HAL2     0.900000E-01   1.00800           0
     17649 MEMB     146      POPC     C215     CTL2    -0.180000       12.0110           0
     17650 MEMB     146      POPC     H15R     HAL2     0.900000E-01   1.00800           0
     17651 MEMB     146      POPC     H15S     HAL2     0.900000E-01   1.00800           0
     17652 MEMB     146      POPC     C216     CTL2    -0.180000       12.0110           0
     17653 MEMB     146      POPC     H16R     HAL2     0.900000E-01   1.00800           0
     17654 MEMB     146      POPC     H16S     HAL2     0.900000E-01   1.00800           0
     17655 MEMB     146      POPC     C217     CTL2    -0.180000       12.0110           0
     17656 MEMB     146      POPC     H17R     HAL2     0.900000E-01   1.00800           0
     17657 MEMB     146      POPC     H17S     HAL2     0.900000E-01   1.00800           0
     17658 MEMB     146      POPC     C218     CTL3    -0.270000       12.0110           0
     17659 MEMB     146      POPC     H18R     HAL3     0.900000E-01   1.00800           0
     17660 MEMB     146      POPC     H18S     HAL3     0.900000E-01   1.00800           0
     17661 MEMB     146      POPC     H18T     HAL3     0.900000E-01   1.00800           0
     17662 MEMB     146      POPC     C33      CTL2    -0.180000       12.0110           0
     17663 MEMB     146      POPC     H3X      HAL2     0.900000E-01   1.00800           0
     17664 MEMB     146      POPC     H3Y      HAL2     0.900000E-01   1.00800           0
     17665 MEMB     146      POPC     C34      CTL2    -0.180000       12.0110           0
     17666 MEMB     146      POPC     H4X      HAL2     0.900000E-01   1.00800           0
     17667 MEMB     146      POPC     H4Y      HAL2     0.900000E-01   1.00800           0
     17668 MEMB     146      POPC     C35      CTL2    -0.180000       12.0110           0
     17669 MEMB     146      POPC     H5X      HAL2     0.900000E-01   1.00800           0
     17670 MEMB     146      POPC     H5Y      HAL2     0.900000E-01   1.00800           0
     17671 MEMB     146      POPC     C36      CTL2    -0.180000       12.0110           0
     17672 MEMB     146      POPC     H6X      HAL2     0.900000E-01   1.00800           0
     17673 MEMB     146      POPC     H6Y      HAL2     0.900000E-01   1.00800           0
     17674 MEMB     146      POPC     C37      CTL2    -0.180000       12.0110           0
     17675 MEMB     146      POPC     H7X      HAL2     0.900000E-01   1.00800           0
     17676 MEMB     146      POPC     H7Y      HAL2     0.900000E-01   1.00800           0
     17677 MEMB     146      POPC     C38      CTL2    -0.180000       12.0110           0
     17678 MEMB     146      POPC     H8X      HAL2     0.900000E-01   1.00800           0
     17679 MEMB     146      POPC     H8Y      HAL2     0.900000E-01   1.00800           0
     17680 MEMB     146      POPC     C39      CTL2    -0.180000       12.0110           0
     17681 MEMB     146      POPC     H9X      HAL2     0.900000E-01   1.00800           0
     17682 MEMB     146      POPC     H9Y      HAL2     0.900000E-01   1.00800           0
     17683 MEMB     146      POPC     C310     CTL2    -0.180000       12.0110           0
     17684 MEMB     146      POPC     H10X     HAL2     0.900000E-01   1.00800           0
     17685 MEMB     146      POPC     H10Y     HAL2     0.900000E-01   1.00800           0
     17686 MEMB     146      POPC     C311     CTL2    -0.180000       12.0110           0
     17687 MEMB     146      POPC     H11X     HAL2     0.900000E-01   1.00800           0
     17688 MEMB     146      POPC     H11Y     HAL2     0.900000E-01   1.00800           0
     17689 MEMB     146      POPC     C312     CTL2    -0.180000       12.0110           0
     17690 MEMB     146      POPC     H12X     HAL2     0.900000E-01   1.00800           0
     17691 MEMB     146      POPC     H12Y     HAL2     0.900000E-01   1.00800           0
     17692 MEMB     146      POPC     C313     CTL2    -0.180000       12.0110           0
     17693 MEMB     146      POPC     H13X     HAL2     0.900000E-01   1.00800           0
     17694 MEMB     146      POPC     H13Y     HAL2     0.900000E-01   1.00800           0
     17695 MEMB     146      POPC     C314     CTL2    -0.180000       12.0110           0
     17696 MEMB     146      POPC     H14X     HAL2     0.900000E-01   1.00800           0
     17697 MEMB     146      POPC     H14Y     HAL2     0.900000E-01   1.00800           0
     17698 MEMB     146      POPC     C315     CTL2    -0.180000       12.0110           0
     17699 MEMB     146      POPC     H15X     HAL2     0.900000E-01   1.00800           0
     17700 MEMB     146      POPC     H15Y     HAL2     0.900000E-01   1.00800           0
     17701 MEMB     146      POPC     C316     CTL3    -0.270000       12.0110           0
     17702 MEMB     146      POPC     H16X     HAL3     0.900000E-01   1.00800           0
     17703 MEMB     146      POPC     H16Y     HAL3     0.900000E-01   1.00800           0
     17704 MEMB     146      POPC     H16Z     HAL3     0.900000E-01   1.00800           0
     17705 MEMB     147      POPC     N        NTL     -0.600000       14.0070           0
     17706 MEMB     147      POPC     C12      CTL2    -0.100000       12.0110           0
     17707 MEMB     147      POPC     H12A     HL       0.250000       1.00800           0
     17708 MEMB     147      POPC     H12B     HL       0.250000       1.00800           0
     17709 MEMB     147      POPC     C13      CTL5    -0.350000       12.0110           0
     17710 MEMB     147      POPC     H13A     HL       0.250000       1.00800           0
     17711 MEMB     147      POPC     H13B     HL       0.250000       1.00800           0
     17712 MEMB     147      POPC     H13C     HL       0.250000       1.00800           0
     17713 MEMB     147      POPC     C14      CTL5    -0.350000       12.0110           0
     17714 MEMB     147      POPC     H14A     HL       0.250000       1.00800           0
     17715 MEMB     147      POPC     H14B     HL       0.250000       1.00800           0
     17716 MEMB     147      POPC     H14C     HL       0.250000       1.00800           0
     17717 MEMB     147      POPC     C15      CTL5    -0.350000       12.0110           0
     17718 MEMB     147      POPC     H15A     HL       0.250000       1.00800           0
     17719 MEMB     147      POPC     H15B     HL       0.250000       1.00800           0
     17720 MEMB     147      POPC     H15C     HL       0.250000       1.00800           0
     17721 MEMB     147      POPC     C11      CTL2    -0.800000E-01   12.0110           0
     17722 MEMB     147      POPC     H11A     HAL2     0.900000E-01   1.00800           0
     17723 MEMB     147      POPC     H11B     HAL2     0.900000E-01   1.00800           0
     17724 MEMB     147      POPC     P        PL        1.50000       30.9740           0
     17725 MEMB     147      POPC     O13      O2L     -0.780000       15.9994           0
     17726 MEMB     147      POPC     O14      O2L     -0.780000       15.9994           0
     17727 MEMB     147      POPC     O12      OSLP    -0.570000       15.9994           0
     17728 MEMB     147      POPC     O11      OSLP    -0.570000       15.9994           0
     17729 MEMB     147      POPC     C1       CTL2    -0.800000E-01   12.0110           0
     17730 MEMB     147      POPC     HA       HAL2     0.900000E-01   1.00800           0
     17731 MEMB     147      POPC     HB       HAL2     0.900000E-01   1.00800           0
     17732 MEMB     147      POPC     C2       CTL1     0.170000       12.0110           0
     17733 MEMB     147      POPC     HS       HAL1     0.900000E-01   1.00800           0
     17734 MEMB     147      POPC     O21      OSL     -0.490000       15.9994           0
     17735 MEMB     147      POPC     C21      CL       0.900000       12.0110           0
     17736 MEMB     147      POPC     O22      OBL     -0.630000       15.9994           0
     17737 MEMB     147      POPC     C22      CTL2    -0.220000       12.0110           0
     17738 MEMB     147      POPC     H2R      HAL2     0.900000E-01   1.00800           0
     17739 MEMB     147      POPC     H2S      HAL2     0.900000E-01   1.00800           0
     17740 MEMB     147      POPC     C3       CTL2     0.800000E-01   12.0110           0
     17741 MEMB     147      POPC     HX       HAL2     0.900000E-01   1.00800           0
     17742 MEMB     147      POPC     HY       HAL2     0.900000E-01   1.00800           0
     17743 MEMB     147      POPC     O31      OSL     -0.490000       15.9994           0
     17744 MEMB     147      POPC     C31      CL       0.900000       12.0110           0
     17745 MEMB     147      POPC     O32      OBL     -0.630000       15.9994           0
     17746 MEMB     147      POPC     C32      CTL2    -0.220000       12.0110           0
     17747 MEMB     147      POPC     H2X      HAL2     0.900000E-01   1.00800           0
     17748 MEMB     147      POPC     H2Y      HAL2     0.900000E-01   1.00800           0
     17749 MEMB     147      POPC     C23      CTL2    -0.180000       12.0110           0
     17750 MEMB     147      POPC     H3R      HAL2     0.900000E-01   1.00800           0
     17751 MEMB     147      POPC     H3S      HAL2     0.900000E-01   1.00800           0
     17752 MEMB     147      POPC     C24      CTL2    -0.180000       12.0110           0
     17753 MEMB     147      POPC     H4R      HAL2     0.900000E-01   1.00800           0
     17754 MEMB     147      POPC     H4S      HAL2     0.900000E-01   1.00800           0
     17755 MEMB     147      POPC     C25      CTL2    -0.180000       12.0110           0
     17756 MEMB     147      POPC     H5R      HAL2     0.900000E-01   1.00800           0
     17757 MEMB     147      POPC     H5S      HAL2     0.900000E-01   1.00800           0
     17758 MEMB     147      POPC     C26      CTL2    -0.180000       12.0110           0
     17759 MEMB     147      POPC     H6R      HAL2     0.900000E-01   1.00800           0
     17760 MEMB     147      POPC     H6S      HAL2     0.900000E-01   1.00800           0
     17761 MEMB     147      POPC     C27      CTL2    -0.180000       12.0110           0
     17762 MEMB     147      POPC     H7R      HAL2     0.900000E-01   1.00800           0
     17763 MEMB     147      POPC     H7S      HAL2     0.900000E-01   1.00800           0
     17764 MEMB     147      POPC     C28      CTL2    -0.180000       12.0110           0
     17765 MEMB     147      POPC     H8R      HAL2     0.900000E-01   1.00800           0
     17766 MEMB     147      POPC     H8S      HAL2     0.900000E-01   1.00800           0
     17767 MEMB     147      POPC     C29      CEL1    -0.150000       12.0110           0
     17768 MEMB     147      POPC     H91      HEL1     0.150000       1.00800           0
     17769 MEMB     147      POPC     C210     CEL1    -0.150000       12.0110           0
     17770 MEMB     147      POPC     H101     HEL1     0.150000       1.00800           0
     17771 MEMB     147      POPC     C211     CTL2    -0.180000       12.0110           0
     17772 MEMB     147      POPC     H11R     HAL2     0.900000E-01   1.00800           0
     17773 MEMB     147      POPC     H11S     HAL2     0.900000E-01   1.00800           0
     17774 MEMB     147      POPC     C212     CTL2    -0.180000       12.0110           0
     17775 MEMB     147      POPC     H12R     HAL2     0.900000E-01   1.00800           0
     17776 MEMB     147      POPC     H12S     HAL2     0.900000E-01   1.00800           0
     17777 MEMB     147      POPC     C213     CTL2    -0.180000       12.0110           0
     17778 MEMB     147      POPC     H13R     HAL2     0.900000E-01   1.00800           0
     17779 MEMB     147      POPC     H13S     HAL2     0.900000E-01   1.00800           0
     17780 MEMB     147      POPC     C214     CTL2    -0.180000       12.0110           0
     17781 MEMB     147      POPC     H14R     HAL2     0.900000E-01   1.00800           0
     17782 MEMB     147      POPC     H14S     HAL2     0.900000E-01   1.00800           0
     17783 MEMB     147      POPC     C215     CTL2    -0.180000       12.0110           0
     17784 MEMB     147      POPC     H15R     HAL2     0.900000E-01   1.00800           0
     17785 MEMB     147      POPC     H15S     HAL2     0.900000E-01   1.00800           0
     17786 MEMB     147      POPC     C216     CTL2    -0.180000       12.0110           0
     17787 MEMB     147      POPC     H16R     HAL2     0.900000E-01   1.00800           0
     17788 MEMB     147      POPC     H16S     HAL2     0.900000E-01   1.00800           0
     17789 MEMB     147      POPC     C217     CTL2    -0.180000       12.0110           0
     17790 MEMB     147      POPC     H17R     HAL2     0.900000E-01   1.00800           0
     17791 MEMB     147      POPC     H17S     HAL2     0.900000E-01   1.00800           0
     17792 MEMB     147      POPC     C218     CTL3    -0.270000       12.0110           0
     17793 MEMB     147      POPC     H18R     HAL3     0.900000E-01   1.00800           0
     17794 MEMB     147      POPC     H18S     HAL3     0.900000E-01   1.00800           0
     17795 MEMB     147      POPC     H18T     HAL3     0.900000E-01   1.00800           0
     17796 MEMB     147      POPC     C33      CTL2    -0.180000       12.0110           0
     17797 MEMB     147      POPC     H3X      HAL2     0.900000E-01   1.00800           0
     17798 MEMB     147      POPC     H3Y      HAL2     0.900000E-01   1.00800           0
     17799 MEMB     147      POPC     C34      CTL2    -0.180000       12.0110           0
     17800 MEMB     147      POPC     H4X      HAL2     0.900000E-01   1.00800           0
     17801 MEMB     147      POPC     H4Y      HAL2     0.900000E-01   1.00800           0
     17802 MEMB     147      POPC     C35      CTL2    -0.180000       12.0110           0
     17803 MEMB     147      POPC     H5X      HAL2     0.900000E-01   1.00800           0
     17804 MEMB     147      POPC     H5Y      HAL2     0.900000E-01   1.00800           0
     17805 MEMB     147      POPC     C36      CTL2    -0.180000       12.0110           0
     17806 MEMB     147      POPC     H6X      HAL2     0.900000E-01   1.00800           0
     17807 MEMB     147      POPC     H6Y      HAL2     0.900000E-01   1.00800           0
     17808 MEMB     147      POPC     C37      CTL2    -0.180000       12.0110           0
     17809 MEMB     147      POPC     H7X      HAL2     0.900000E-01   1.00800           0
     17810 MEMB     147      POPC     H7Y      HAL2     0.900000E-01   1.00800           0
     17811 MEMB     147      POPC     C38      CTL2    -0.180000       12.0110           0
     17812 MEMB     147      POPC     H8X      HAL2     0.900000E-01   1.00800           0
     17813 MEMB     147      POPC     H8Y      HAL2     0.900000E-01   1.00800           0
     17814 MEMB     147      POPC     C39      CTL2    -0.180000       12.0110           0
     17815 MEMB     147      POPC     H9X      HAL2     0.900000E-01   1.00800           0
     17816 MEMB     147      POPC     H9Y      HAL2     0.900000E-01   1.00800           0
     17817 MEMB     147      POPC     C310     CTL2    -0.180000       12.0110           0
     17818 MEMB     147      POPC     H10X     HAL2     0.900000E-01   1.00800           0
     17819 MEMB     147      POPC     H10Y     HAL2     0.900000E-01   1.00800           0
     17820 MEMB     147      POPC     C311     CTL2    -0.180000       12.0110           0
     17821 MEMB     147      POPC     H11X     HAL2     0.900000E-01   1.00800           0
     17822 MEMB     147      POPC     H11Y     HAL2     0.900000E-01   1.00800           0
     17823 MEMB     147      POPC     C312     CTL2    -0.180000       12.0110           0
     17824 MEMB     147      POPC     H12X     HAL2     0.900000E-01   1.00800           0
     17825 MEMB     147      POPC     H12Y     HAL2     0.900000E-01   1.00800           0
     17826 MEMB     147      POPC     C313     CTL2    -0.180000       12.0110           0
     17827 MEMB     147      POPC     H13X     HAL2     0.900000E-01   1.00800           0
     17828 MEMB     147      POPC     H13Y     HAL2     0.900000E-01   1.00800           0
     17829 MEMB     147      POPC     C314     CTL2    -0.180000       12.0110           0
     17830 MEMB     147      POPC     H14X     HAL2     0.900000E-01   1.00800           0
     17831 MEMB     147      POPC     H14Y     HAL2     0.900000E-01   1.00800           0
     17832 MEMB     147      POPC     C315     CTL2    -0.180000       12.0110           0
     17833 MEMB     147      POPC     H15X     HAL2     0.900000E-01   1.00800           0
     17834 MEMB     147      POPC     H15Y     HAL2     0.900000E-01   1.00800           0
     17835 MEMB     147      POPC     C316     CTL3    -0.270000       12.0110           0
     17836 MEMB     147      POPC     H16X     HAL3     0.900000E-01   1.00800           0
     17837 MEMB     147      POPC     H16Y     HAL3     0.900000E-01   1.00800           0
     17838 MEMB     147      POPC     H16Z     HAL3     0.900000E-01   1.00800           0
     17839 MEMB     148      POPC     N        NTL     -0.600000       14.0070           0
     17840 MEMB     148      POPC     C12      CTL2    -0.100000       12.0110           0
     17841 MEMB     148      POPC     H12A     HL       0.250000       1.00800           0
     17842 MEMB     148      POPC     H12B     HL       0.250000       1.00800           0
     17843 MEMB     148      POPC     C13      CTL5    -0.350000       12.0110           0
     17844 MEMB     148      POPC     H13A     HL       0.250000       1.00800           0
     17845 MEMB     148      POPC     H13B     HL       0.250000       1.00800           0
     17846 MEMB     148      POPC     H13C     HL       0.250000       1.00800           0
     17847 MEMB     148      POPC     C14      CTL5    -0.350000       12.0110           0
     17848 MEMB     148      POPC     H14A     HL       0.250000       1.00800           0
     17849 MEMB     148      POPC     H14B     HL       0.250000       1.00800           0
     17850 MEMB     148      POPC     H14C     HL       0.250000       1.00800           0
     17851 MEMB     148      POPC     C15      CTL5    -0.350000       12.0110           0
     17852 MEMB     148      POPC     H15A     HL       0.250000       1.00800           0
     17853 MEMB     148      POPC     H15B     HL       0.250000       1.00800           0
     17854 MEMB     148      POPC     H15C     HL       0.250000       1.00800           0
     17855 MEMB     148      POPC     C11      CTL2    -0.800000E-01   12.0110           0
     17856 MEMB     148      POPC     H11A     HAL2     0.900000E-01   1.00800           0
     17857 MEMB     148      POPC     H11B     HAL2     0.900000E-01   1.00800           0
     17858 MEMB     148      POPC     P        PL        1.50000       30.9740           0
     17859 MEMB     148      POPC     O13      O2L     -0.780000       15.9994           0
     17860 MEMB     148      POPC     O14      O2L     -0.780000       15.9994           0
     17861 MEMB     148      POPC     O12      OSLP    -0.570000       15.9994           0
     17862 MEMB     148      POPC     O11      OSLP    -0.570000       15.9994           0
     17863 MEMB     148      POPC     C1       CTL2    -0.800000E-01   12.0110           0
     17864 MEMB     148      POPC     HA       HAL2     0.900000E-01   1.00800           0
     17865 MEMB     148      POPC     HB       HAL2     0.900000E-01   1.00800           0
     17866 MEMB     148      POPC     C2       CTL1     0.170000       12.0110           0
     17867 MEMB     148      POPC     HS       HAL1     0.900000E-01   1.00800           0
     17868 MEMB     148      POPC     O21      OSL     -0.490000       15.9994           0
     17869 MEMB     148      POPC     C21      CL       0.900000       12.0110           0
     17870 MEMB     148      POPC     O22      OBL     -0.630000       15.9994           0
     17871 MEMB     148      POPC     C22      CTL2    -0.220000       12.0110           0
     17872 MEMB     148      POPC     H2R      HAL2     0.900000E-01   1.00800           0
     17873 MEMB     148      POPC     H2S      HAL2     0.900000E-01   1.00800           0
     17874 MEMB     148      POPC     C3       CTL2     0.800000E-01   12.0110           0
     17875 MEMB     148      POPC     HX       HAL2     0.900000E-01   1.00800           0
     17876 MEMB     148      POPC     HY       HAL2     0.900000E-01   1.00800           0
     17877 MEMB     148      POPC     O31      OSL     -0.490000       15.9994           0
     17878 MEMB     148      POPC     C31      CL       0.900000       12.0110           0
     17879 MEMB     148      POPC     O32      OBL     -0.630000       15.9994           0
     17880 MEMB     148      POPC     C32      CTL2    -0.220000       12.0110           0
     17881 MEMB     148      POPC     H2X      HAL2     0.900000E-01   1.00800           0
     17882 MEMB     148      POPC     H2Y      HAL2     0.900000E-01   1.00800           0
     17883 MEMB     148      POPC     C23      CTL2    -0.180000       12.0110           0
     17884 MEMB     148      POPC     H3R      HAL2     0.900000E-01   1.00800           0
     17885 MEMB     148      POPC     H3S      HAL2     0.900000E-01   1.00800           0
     17886 MEMB     148      POPC     C24      CTL2    -0.180000       12.0110           0
     17887 MEMB     148      POPC     H4R      HAL2     0.900000E-01   1.00800           0
     17888 MEMB     148      POPC     H4S      HAL2     0.900000E-01   1.00800           0
     17889 MEMB     148      POPC     C25      CTL2    -0.180000       12.0110           0
     17890 MEMB     148      POPC     H5R      HAL2     0.900000E-01   1.00800           0
     17891 MEMB     148      POPC     H5S      HAL2     0.900000E-01   1.00800           0
     17892 MEMB     148      POPC     C26      CTL2    -0.180000       12.0110           0
     17893 MEMB     148      POPC     H6R      HAL2     0.900000E-01   1.00800           0
     17894 MEMB     148      POPC     H6S      HAL2     0.900000E-01   1.00800           0
     17895 MEMB     148      POPC     C27      CTL2    -0.180000       12.0110           0
     17896 MEMB     148      POPC     H7R      HAL2     0.900000E-01   1.00800           0
     17897 MEMB     148      POPC     H7S      HAL2     0.900000E-01   1.00800           0
     17898 MEMB     148      POPC     C28      CTL2    -0.180000       12.0110           0
     17899 MEMB     148      POPC     H8R      HAL2     0.900000E-01   1.00800           0
     17900 MEMB     148      POPC     H8S      HAL2     0.900000E-01   1.00800           0
     17901 MEMB     148      POPC     C29      CEL1    -0.150000       12.0110           0
     17902 MEMB     148      POPC     H91      HEL1     0.150000       1.00800           0
     17903 MEMB     148      POPC     C210     CEL1    -0.150000       12.0110           0
     17904 MEMB     148      POPC     H101     HEL1     0.150000       1.00800           0
     17905 MEMB     148      POPC     C211     CTL2    -0.180000       12.0110           0
     17906 MEMB     148      POPC     H11R     HAL2     0.900000E-01   1.00800           0
     17907 MEMB     148      POPC     H11S     HAL2     0.900000E-01   1.00800           0
     17908 MEMB     148      POPC     C212     CTL2    -0.180000       12.0110           0
     17909 MEMB     148      POPC     H12R     HAL2     0.900000E-01   1.00800           0
     17910 MEMB     148      POPC     H12S     HAL2     0.900000E-01   1.00800           0
     17911 MEMB     148      POPC     C213     CTL2    -0.180000       12.0110           0
     17912 MEMB     148      POPC     H13R     HAL2     0.900000E-01   1.00800           0
     17913 MEMB     148      POPC     H13S     HAL2     0.900000E-01   1.00800           0
     17914 MEMB     148      POPC     C214     CTL2    -0.180000       12.0110           0
     17915 MEMB     148      POPC     H14R     HAL2     0.900000E-01   1.00800           0
     17916 MEMB     148      POPC     H14S     HAL2     0.900000E-01   1.00800           0
     17917 MEMB     148      POPC     C215     CTL2    -0.180000       12.0110           0
     17918 MEMB     148      POPC     H15R     HAL2     0.900000E-01   1.00800           0
     17919 MEMB     148      POPC     H15S     HAL2     0.900000E-01   1.00800           0
     17920 MEMB     148      POPC     C216     CTL2    -0.180000       12.0110           0
     17921 MEMB     148      POPC     H16R     HAL2     0.900000E-01   1.00800           0
     17922 MEMB     148      POPC     H16S     HAL2     0.900000E-01   1.00800           0
     17923 MEMB     148      POPC     C217     CTL2    -0.180000       12.0110           0
     17924 MEMB     148      POPC     H17R     HAL2     0.900000E-01   1.00800           0
     17925 MEMB     148      POPC     H17S     HAL2     0.900000E-01   1.00800           0
     17926 MEMB     148      POPC     C218     CTL3    -0.270000       12.0110           0
     17927 MEMB     148      POPC     H18R     HAL3     0.900000E-01   1.00800           0
     17928 MEMB     148      POPC     H18S     HAL3     0.900000E-01   1.00800           0
     17929 MEMB     148      POPC     H18T     HAL3     0.900000E-01   1.00800           0
     17930 MEMB     148      POPC     C33      CTL2    -0.180000       12.0110           0
     17931 MEMB     148      POPC     H3X      HAL2     0.900000E-01   1.00800           0
     17932 MEMB     148      POPC     H3Y      HAL2     0.900000E-01   1.00800           0
     17933 MEMB     148      POPC     C34      CTL2    -0.180000       12.0110           0
     17934 MEMB     148      POPC     H4X      HAL2     0.900000E-01   1.00800           0
     17935 MEMB     148      POPC     H4Y      HAL2     0.900000E-01   1.00800           0
     17936 MEMB     148      POPC     C35      CTL2    -0.180000       12.0110           0
     17937 MEMB     148      POPC     H5X      HAL2     0.900000E-01   1.00800           0
     17938 MEMB     148      POPC     H5Y      HAL2     0.900000E-01   1.00800           0
     17939 MEMB     148      POPC     C36      CTL2    -0.180000       12.0110           0
     17940 MEMB     148      POPC     H6X      HAL2     0.900000E-01   1.00800           0
     17941 MEMB     148      POPC     H6Y      HAL2     0.900000E-01   1.00800           0
     17942 MEMB     148      POPC     C37      CTL2    -0.180000       12.0110           0
     17943 MEMB     148      POPC     H7X      HAL2     0.900000E-01   1.00800           0
     17944 MEMB     148      POPC     H7Y      HAL2     0.900000E-01   1.00800           0
     17945 MEMB     148      POPC     C38      CTL2    -0.180000       12.0110           0
     17946 MEMB     148      POPC     H8X      HAL2     0.900000E-01   1.00800           0
     17947 MEMB     148      POPC     H8Y      HAL2     0.900000E-01   1.00800           0
     17948 MEMB     148      POPC     C39      CTL2    -0.180000       12.0110           0
     17949 MEMB     148      POPC     H9X      HAL2     0.900000E-01   1.00800           0
     17950 MEMB     148      POPC     H9Y      HAL2     0.900000E-01   1.00800           0
     17951 MEMB     148      POPC     C310     CTL2    -0.180000       12.0110           0
     17952 MEMB     148      POPC     H10X     HAL2     0.900000E-01   1.00800           0
     17953 MEMB     148      POPC     H10Y     HAL2     0.900000E-01   1.00800           0
     17954 MEMB     148      POPC     C311     CTL2    -0.180000       12.0110           0
     17955 MEMB     148      POPC     H11X     HAL2     0.900000E-01   1.00800           0
     17956 MEMB     148      POPC     H11Y     HAL2     0.900000E-01   1.00800           0
     17957 MEMB     148      POPC     C312     CTL2    -0.180000       12.0110           0
     17958 MEMB     148      POPC     H12X     HAL2     0.900000E-01   1.00800           0
     17959 MEMB     148      POPC     H12Y     HAL2     0.900000E-01   1.00800           0
     17960 MEMB     148      POPC     C313     CTL2    -0.180000       12.0110           0
     17961 MEMB     148      POPC     H13X     HAL2     0.900000E-01   1.00800           0
     17962 MEMB     148      POPC     H13Y     HAL2     0.900000E-01   1.00800           0
     17963 MEMB     148      POPC     C314     CTL2    -0.180000       12.0110           0
     17964 MEMB     148      POPC     H14X     HAL2     0.900000E-01   1.00800           0
     17965 MEMB     148      POPC     H14Y     HAL2     0.900000E-01   1.00800           0
     17966 MEMB     148      POPC     C315     CTL2    -0.180000       12.0110           0
     17967 MEMB     148      POPC     H15X     HAL2     0.900000E-01   1.00800           0
     17968 MEMB     148      POPC     H15Y     HAL2     0.900000E-01   1.00800           0
     17969 MEMB     148      POPC     C316     CTL3    -0.270000       12.0110           0
     17970 MEMB     148      POPC     H16X     HAL3     0.900000E-01   1.00800           0
     17971 MEMB     148      POPC     H16Y     HAL3     0.900000E-01   1.00800           0
     17972 MEMB     148      POPC     H16Z     HAL3     0.900000E-01   1.00800           0
     17973 MEMB     149      POPC     N        NTL     -0.600000       14.0070           0
     17974 MEMB     149      POPC     C12      CTL2    -0.100000       12.0110           0
     17975 MEMB     149      POPC     H12A     HL       0.250000       1.00800           0
     17976 MEMB     149      POPC     H12B     HL       0.250000       1.00800           0
     17977 MEMB     149      POPC     C13      CTL5    -0.350000       12.0110           0
     17978 MEMB     149      POPC     H13A     HL       0.250000       1.00800           0
     17979 MEMB     149      POPC     H13B     HL       0.250000       1.00800           0
     17980 MEMB     149      POPC     H13C     HL       0.250000       1.00800           0
     17981 MEMB     149      POPC     C14      CTL5    -0.350000       12.0110           0
     17982 MEMB     149      POPC     H14A     HL       0.250000       1.00800           0
     17983 MEMB     149      POPC     H14B     HL       0.250000       1.00800           0
     17984 MEMB     149      POPC     H14C     HL       0.250000       1.00800           0
     17985 MEMB     149      POPC     C15      CTL5    -0.350000       12.0110           0
     17986 MEMB     149      POPC     H15A     HL       0.250000       1.00800           0
     17987 MEMB     149      POPC     H15B     HL       0.250000       1.00800           0
     17988 MEMB     149      POPC     H15C     HL       0.250000       1.00800           0
     17989 MEMB     149      POPC     C11      CTL2    -0.800000E-01   12.0110           0
     17990 MEMB     149      POPC     H11A     HAL2     0.900000E-01   1.00800           0
     17991 MEMB     149      POPC     H11B     HAL2     0.900000E-01   1.00800           0
     17992 MEMB     149      POPC     P        PL        1.50000       30.9740           0
     17993 MEMB     149      POPC     O13      O2L     -0.780000       15.9994           0
     17994 MEMB     149      POPC     O14      O2L     -0.780000       15.9994           0
     17995 MEMB     149      POPC     O12      OSLP    -0.570000       15.9994           0
     17996 MEMB     149      POPC     O11      OSLP    -0.570000       15.9994           0
     17997 MEMB     149      POPC     C1       CTL2    -0.800000E-01   12.0110           0
     17998 MEMB     149      POPC     HA       HAL2     0.900000E-01   1.00800           0
     17999 MEMB     149      POPC     HB       HAL2     0.900000E-01   1.00800           0
     18000 MEMB     149      POPC     C2       CTL1     0.170000       12.0110           0
     18001 MEMB     149      POPC     HS       HAL1     0.900000E-01   1.00800           0
     18002 MEMB     149      POPC     O21      OSL     -0.490000       15.9994           0
     18003 MEMB     149      POPC     C21      CL       0.900000       12.0110           0
     18004 MEMB     149      POPC     O22      OBL     -0.630000       15.9994           0
     18005 MEMB     149      POPC     C22      CTL2    -0.220000       12.0110           0
     18006 MEMB     149      POPC     H2R      HAL2     0.900000E-01   1.00800           0
     18007 MEMB     149      POPC     H2S      HAL2     0.900000E-01   1.00800           0
     18008 MEMB     149      POPC     C3       CTL2     0.800000E-01   12.0110           0
     18009 MEMB     149      POPC     HX       HAL2     0.900000E-01   1.00800           0
     18010 MEMB     149      POPC     HY       HAL2     0.900000E-01   1.00800           0
     18011 MEMB     149      POPC     O31      OSL     -0.490000       15.9994           0
     18012 MEMB     149      POPC     C31      CL       0.900000       12.0110           0
     18013 MEMB     149      POPC     O32      OBL     -0.630000       15.9994           0
     18014 MEMB     149      POPC     C32      CTL2    -0.220000       12.0110           0
     18015 MEMB     149      POPC     H2X      HAL2     0.900000E-01   1.00800           0
     18016 MEMB     149      POPC     H2Y      HAL2     0.900000E-01   1.00800           0
     18017 MEMB     149      POPC     C23      CTL2    -0.180000       12.0110           0
     18018 MEMB     149      POPC     H3R      HAL2     0.900000E-01   1.00800           0
     18019 MEMB     149      POPC     H3S      HAL2     0.900000E-01   1.00800           0
     18020 MEMB     149      POPC     C24      CTL2    -0.180000       12.0110           0
     18021 MEMB     149      POPC     H4R      HAL2     0.900000E-01   1.00800           0
     18022 MEMB     149      POPC     H4S      HAL2     0.900000E-01   1.00800           0
     18023 MEMB     149      POPC     C25      CTL2    -0.180000       12.0110           0
     18024 MEMB     149      POPC     H5R      HAL2     0.900000E-01   1.00800           0
     18025 MEMB     149      POPC     H5S      HAL2     0.900000E-01   1.00800           0
     18026 MEMB     149      POPC     C26      CTL2    -0.180000       12.0110           0
     18027 MEMB     149      POPC     H6R      HAL2     0.900000E-01   1.00800           0
     18028 MEMB     149      POPC     H6S      HAL2     0.900000E-01   1.00800           0
     18029 MEMB     149      POPC     C27      CTL2    -0.180000       12.0110           0
     18030 MEMB     149      POPC     H7R      HAL2     0.900000E-01   1.00800           0
     18031 MEMB     149      POPC     H7S      HAL2     0.900000E-01   1.00800           0
     18032 MEMB     149      POPC     C28      CTL2    -0.180000       12.0110           0
     18033 MEMB     149      POPC     H8R      HAL2     0.900000E-01   1.00800           0
     18034 MEMB     149      POPC     H8S      HAL2     0.900000E-01   1.00800           0
     18035 MEMB     149      POPC     C29      CEL1    -0.150000       12.0110           0
     18036 MEMB     149      POPC     H91      HEL1     0.150000       1.00800           0
     18037 MEMB     149      POPC     C210     CEL1    -0.150000       12.0110           0
     18038 MEMB     149      POPC     H101     HEL1     0.150000       1.00800           0
     18039 MEMB     149      POPC     C211     CTL2    -0.180000       12.0110           0
     18040 MEMB     149      POPC     H11R     HAL2     0.900000E-01   1.00800           0
     18041 MEMB     149      POPC     H11S     HAL2     0.900000E-01   1.00800           0
     18042 MEMB     149      POPC     C212     CTL2    -0.180000       12.0110           0
     18043 MEMB     149      POPC     H12R     HAL2     0.900000E-01   1.00800           0
     18044 MEMB     149      POPC     H12S     HAL2     0.900000E-01   1.00800           0
     18045 MEMB     149      POPC     C213     CTL2    -0.180000       12.0110           0
     18046 MEMB     149      POPC     H13R     HAL2     0.900000E-01   1.00800           0
     18047 MEMB     149      POPC     H13S     HAL2     0.900000E-01   1.00800           0
     18048 MEMB     149      POPC     C214     CTL2    -0.180000       12.0110           0
     18049 MEMB     149      POPC     H14R     HAL2     0.900000E-01   1.00800           0
     18050 MEMB     149      POPC     H14S     HAL2     0.900000E-01   1.00800           0
     18051 MEMB     149      POPC     C215     CTL2    -0.180000       12.0110           0
     18052 MEMB     149      POPC     H15R     HAL2     0.900000E-01   1.00800           0
     18053 MEMB     149      POPC     H15S     HAL2     0.900000E-01   1.00800           0
     18054 MEMB     149      POPC     C216     CTL2    -0.180000       12.0110           0
     18055 MEMB     149      POPC     H16R     HAL2     0.900000E-01   1.00800           0
     18056 MEMB     149      POPC     H16S     HAL2     0.900000E-01   1.00800           0
     18057 MEMB     149      POPC     C217     CTL2    -0.180000       12.0110           0
     18058 MEMB     149      POPC     H17R     HAL2     0.900000E-01   1.00800           0
     18059 MEMB     149      POPC     H17S     HAL2     0.900000E-01   1.00800           0
     18060 MEMB     149      POPC     C218     CTL3    -0.270000       12.0110           0
     18061 MEMB     149      POPC     H18R     HAL3     0.900000E-01   1.00800           0
     18062 MEMB     149      POPC     H18S     HAL3     0.900000E-01   1.00800           0
     18063 MEMB     149      POPC     H18T     HAL3     0.900000E-01   1.00800           0
     18064 MEMB     149      POPC     C33      CTL2    -0.180000       12.0110           0
     18065 MEMB     149      POPC     H3X      HAL2     0.900000E-01   1.00800           0
     18066 MEMB     149      POPC     H3Y      HAL2     0.900000E-01   1.00800           0
     18067 MEMB     149      POPC     C34      CTL2    -0.180000       12.0110           0
     18068 MEMB     149      POPC     H4X      HAL2     0.900000E-01   1.00800           0
     18069 MEMB     149      POPC     H4Y      HAL2     0.900000E-01   1.00800           0
     18070 MEMB     149      POPC     C35      CTL2    -0.180000       12.0110           0
     18071 MEMB     149      POPC     H5X      HAL2     0.900000E-01   1.00800           0
     18072 MEMB     149      POPC     H5Y      HAL2     0.900000E-01   1.00800           0
     18073 MEMB     149      POPC     C36      CTL2    -0.180000       12.0110           0
     18074 MEMB     149      POPC     H6X      HAL2     0.900000E-01   1.00800           0
     18075 MEMB     149      POPC     H6Y      HAL2     0.900000E-01   1.00800           0
     18076 MEMB     149      POPC     C37      CTL2    -0.180000       12.0110           0
     18077 MEMB     149      POPC     H7X      HAL2     0.900000E-01   1.00800           0
     18078 MEMB     149      POPC     H7Y      HAL2     0.900000E-01   1.00800           0
     18079 MEMB     149      POPC     C38      CTL2    -0.180000       12.0110           0
     18080 MEMB     149      POPC     H8X      HAL2     0.900000E-01   1.00800           0
     18081 MEMB     149      POPC     H8Y      HAL2     0.900000E-01   1.00800           0
     18082 MEMB     149      POPC     C39      CTL2    -0.180000       12.0110           0
     18083 MEMB     149      POPC     H9X      HAL2     0.900000E-01   1.00800           0
     18084 MEMB     149      POPC     H9Y      HAL2     0.900000E-01   1.00800           0
     18085 MEMB     149      POPC     C310     CTL2    -0.180000       12.0110           0
     18086 MEMB     149      POPC     H10X     HAL2     0.900000E-01   1.00800           0
     18087 MEMB     149      POPC     H10Y     HAL2     0.900000E-01   1.00800           0
     18088 MEMB     149      POPC     C311     CTL2    -0.180000       12.0110           0
     18089 MEMB     149      POPC     H11X     HAL2     0.900000E-01   1.00800           0
     18090 MEMB     149      POPC     H11Y     HAL2     0.900000E-01   1.00800           0
     18091 MEMB     149      POPC     C312     CTL2    -0.180000       12.0110           0
     18092 MEMB     149      POPC     H12X     HAL2     0.900000E-01   1.00800           0
     18093 MEMB     149      POPC     H12Y     HAL2     0.900000E-01   1.00800           0
     18094 MEMB     149      POPC     C313     CTL2    -0.180000       12.0110           0
     18095 MEMB     149      POPC     H13X     HAL2     0.900000E-01   1.00800           0
     18096 MEMB     149      POPC     H13Y     HAL2     0.900000E-01   1.00800           0
     18097 MEMB     149      POPC     C314     CTL2    -0.180000       12.0110           0
     18098 MEMB     149      POPC     H14X     HAL2     0.900000E-01   1.00800           0
     18099 MEMB     149      POPC     H14Y     HAL2     0.900000E-01   1.00800           0
     18100 MEMB     149      POPC     C315     CTL2    -0.180000       12.0110           0
     18101 MEMB     149      POPC     H15X     HAL2     0.900000E-01   1.00800           0
     18102 MEMB     149      POPC     H15Y     HAL2     0.900000E-01   1.00800           0
     18103 MEMB     149      POPC     C316     CTL3    -0.270000       12.0110           0
     18104 MEMB     149      POPC     H16X     HAL3     0.900000E-01   1.00800           0
     18105 MEMB     149      POPC     H16Y     HAL3     0.900000E-01   1.00800           0
     18106 MEMB     149      POPC     H16Z     HAL3     0.900000E-01   1.00800           0
     18107 MEMB     150      POPC     N        NTL     -0.600000       14.0070           0
     18108 MEMB     150      POPC     C12      CTL2    -0.100000       12.0110           0
     18109 MEMB     150      POPC     H12A     HL       0.250000       1.00800           0
     18110 MEMB     150      POPC     H12B     HL       0.250000       1.00800           0
     18111 MEMB     150      POPC     C13      CTL5    -0.350000       12.0110           0
     18112 MEMB     150      POPC     H13A     HL       0.250000       1.00800           0
     18113 MEMB     150      POPC     H13B     HL       0.250000       1.00800           0
     18114 MEMB     150      POPC     H13C     HL       0.250000       1.00800           0
     18115 MEMB     150      POPC     C14      CTL5    -0.350000       12.0110           0
     18116 MEMB     150      POPC     H14A     HL       0.250000       1.00800           0
     18117 MEMB     150      POPC     H14B     HL       0.250000       1.00800           0
     18118 MEMB     150      POPC     H14C     HL       0.250000       1.00800           0
     18119 MEMB     150      POPC     C15      CTL5    -0.350000       12.0110           0
     18120 MEMB     150      POPC     H15A     HL       0.250000       1.00800           0
     18121 MEMB     150      POPC     H15B     HL       0.250000       1.00800           0
     18122 MEMB     150      POPC     H15C     HL       0.250000       1.00800           0
     18123 MEMB     150      POPC     C11      CTL2    -0.800000E-01   12.0110           0
     18124 MEMB     150      POPC     H11A     HAL2     0.900000E-01   1.00800           0
     18125 MEMB     150      POPC     H11B     HAL2     0.900000E-01   1.00800           0
     18126 MEMB     150      POPC     P        PL        1.50000       30.9740           0
     18127 MEMB     150      POPC     O13      O2L     -0.780000       15.9994           0
     18128 MEMB     150      POPC     O14      O2L     -0.780000       15.9994           0
     18129 MEMB     150      POPC     O12      OSLP    -0.570000       15.9994           0
     18130 MEMB     150      POPC     O11      OSLP    -0.570000       15.9994           0
     18131 MEMB     150      POPC     C1       CTL2    -0.800000E-01   12.0110           0
     18132 MEMB     150      POPC     HA       HAL2     0.900000E-01   1.00800           0
     18133 MEMB     150      POPC     HB       HAL2     0.900000E-01   1.00800           0
     18134 MEMB     150      POPC     C2       CTL1     0.170000       12.0110           0
     18135 MEMB     150      POPC     HS       HAL1     0.900000E-01   1.00800           0
     18136 MEMB     150      POPC     O21      OSL     -0.490000       15.9994           0
     18137 MEMB     150      POPC     C21      CL       0.900000       12.0110           0
     18138 MEMB     150      POPC     O22      OBL     -0.630000       15.9994           0
     18139 MEMB     150      POPC     C22      CTL2    -0.220000       12.0110           0
     18140 MEMB     150      POPC     H2R      HAL2     0.900000E-01   1.00800           0
     18141 MEMB     150      POPC     H2S      HAL2     0.900000E-01   1.00800           0
     18142 MEMB     150      POPC     C3       CTL2     0.800000E-01   12.0110           0
     18143 MEMB     150      POPC     HX       HAL2     0.900000E-01   1.00800           0
     18144 MEMB     150      POPC     HY       HAL2     0.900000E-01   1.00800           0
     18145 MEMB     150      POPC     O31      OSL     -0.490000       15.9994           0
     18146 MEMB     150      POPC     C31      CL       0.900000       12.0110           0
     18147 MEMB     150      POPC     O32      OBL     -0.630000       15.9994           0
     18148 MEMB     150      POPC     C32      CTL2    -0.220000       12.0110           0
     18149 MEMB     150      POPC     H2X      HAL2     0.900000E-01   1.00800           0
     18150 MEMB     150      POPC     H2Y      HAL2     0.900000E-01   1.00800           0
     18151 MEMB     150      POPC     C23      CTL2    -0.180000       12.0110           0
     18152 MEMB     150      POPC     H3R      HAL2     0.900000E-01   1.00800           0
     18153 MEMB     150      POPC     H3S      HAL2     0.900000E-01   1.00800           0
     18154 MEMB     150      POPC     C24      CTL2    -0.180000       12.0110           0
     18155 MEMB     150      POPC     H4R      HAL2     0.900000E-01   1.00800           0
     18156 MEMB     150      POPC     H4S      HAL2     0.900000E-01   1.00800           0
     18157 MEMB     150      POPC     C25      CTL2    -0.180000       12.0110           0
     18158 MEMB     150      POPC     H5R      HAL2     0.900000E-01   1.00800           0
     18159 MEMB     150      POPC     H5S      HAL2     0.900000E-01   1.00800           0
     18160 MEMB     150      POPC     C26      CTL2    -0.180000       12.0110           0
     18161 MEMB     150      POPC     H6R      HAL2     0.900000E-01   1.00800           0
     18162 MEMB     150      POPC     H6S      HAL2     0.900000E-01   1.00800           0
     18163 MEMB     150      POPC     C27      CTL2    -0.180000       12.0110           0
     18164 MEMB     150      POPC     H7R      HAL2     0.900000E-01   1.00800           0
     18165 MEMB     150      POPC     H7S      HAL2     0.900000E-01   1.00800           0
     18166 MEMB     150      POPC     C28      CTL2    -0.180000       12.0110           0
     18167 MEMB     150      POPC     H8R      HAL2     0.900000E-01   1.00800           0
     18168 MEMB     150      POPC     H8S      HAL2     0.900000E-01   1.00800           0
     18169 MEMB     150      POPC     C29      CEL1    -0.150000       12.0110           0
     18170 MEMB     150      POPC     H91      HEL1     0.150000       1.00800           0
     18171 MEMB     150      POPC     C210     CEL1    -0.150000       12.0110           0
     18172 MEMB     150      POPC     H101     HEL1     0.150000       1.00800           0
     18173 MEMB     150      POPC     C211     CTL2    -0.180000       12.0110           0
     18174 MEMB     150      POPC     H11R     HAL2     0.900000E-01   1.00800           0
     18175 MEMB     150      POPC     H11S     HAL2     0.900000E-01   1.00800           0
     18176 MEMB     150      POPC     C212     CTL2    -0.180000       12.0110           0
     18177 MEMB     150      POPC     H12R     HAL2     0.900000E-01   1.00800           0
     18178 MEMB     150      POPC     H12S     HAL2     0.900000E-01   1.00800           0
     18179 MEMB     150      POPC     C213     CTL2    -0.180000       12.0110           0
     18180 MEMB     150      POPC     H13R     HAL2     0.900000E-01   1.00800           0
     18181 MEMB     150      POPC     H13S     HAL2     0.900000E-01   1.00800           0
     18182 MEMB     150      POPC     C214     CTL2    -0.180000       12.0110           0
     18183 MEMB     150      POPC     H14R     HAL2     0.900000E-01   1.00800           0
     18184 MEMB     150      POPC     H14S     HAL2     0.900000E-01   1.00800           0
     18185 MEMB     150      POPC     C215     CTL2    -0.180000       12.0110           0
     18186 MEMB     150      POPC     H15R     HAL2     0.900000E-01   1.00800           0
     18187 MEMB     150      POPC     H15S     HAL2     0.900000E-01   1.00800           0
     18188 MEMB     150      POPC     C216     CTL2    -0.180000       12.0110           0
     18189 MEMB     150      POPC     H16R     HAL2     0.900000E-01   1.00800           0
     18190 MEMB     150      POPC     H16S     HAL2     0.900000E-01   1.00800           0
     18191 MEMB     150      POPC     C217     CTL2    -0.180000       12.0110           0
     18192 MEMB     150      POPC     H17R     HAL2     0.900000E-01   1.00800           0
     18193 MEMB     150      POPC     H17S     HAL2     0.900000E-01   1.00800           0
     18194 MEMB     150      POPC     C218     CTL3    -0.270000       12.0110           0
     18195 MEMB     150      POPC     H18R     HAL3     0.900000E-01   1.00800           0
     18196 MEMB     150      POPC     H18S     HAL3     0.900000E-01   1.00800           0
     18197 MEMB     150      POPC     H18T     HAL3     0.900000E-01   1.00800           0
     18198 MEMB     150      POPC     C33      CTL2    -0.180000       12.0110           0
     18199 MEMB     150      POPC     H3X      HAL2     0.900000E-01   1.00800           0
     18200 MEMB     150      POPC     H3Y      HAL2     0.900000E-01   1.00800           0
     18201 MEMB     150      POPC     C34      CTL2    -0.180000       12.0110           0
     18202 MEMB     150      POPC     H4X      HAL2     0.900000E-01   1.00800           0
     18203 MEMB     150      POPC     H4Y      HAL2     0.900000E-01   1.00800           0
     18204 MEMB     150      POPC     C35      CTL2    -0.180000       12.0110           0
     18205 MEMB     150      POPC     H5X      HAL2     0.900000E-01   1.00800           0
     18206 MEMB     150      POPC     H5Y      HAL2     0.900000E-01   1.00800           0
     18207 MEMB     150      POPC     C36      CTL2    -0.180000       12.0110           0
     18208 MEMB     150      POPC     H6X      HAL2     0.900000E-01   1.00800           0
     18209 MEMB     150      POPC     H6Y      HAL2     0.900000E-01   1.00800           0
     18210 MEMB     150      POPC     C37      CTL2    -0.180000       12.0110           0
     18211 MEMB     150      POPC     H7X      HAL2     0.900000E-01   1.00800           0
     18212 MEMB     150      POPC     H7Y      HAL2     0.900000E-01   1.00800           0
     18213 MEMB     150      POPC     C38      CTL2    -0.180000       12.0110           0
     18214 MEMB     150      POPC     H8X      HAL2     0.900000E-01   1.00800           0
     18215 MEMB     150      POPC     H8Y      HAL2     0.900000E-01   1.00800           0
     18216 MEMB     150      POPC     C39      CTL2    -0.180000       12.0110           0
     18217 MEMB     150      POPC     H9X      HAL2     0.900000E-01   1.00800           0
     18218 MEMB     150      POPC     H9Y      HAL2     0.900000E-01   1.00800           0
     18219 MEMB     150      POPC     C310     CTL2    -0.180000       12.0110           0
     18220 MEMB     150      POPC     H10X     HAL2     0.900000E-01   1.00800           0
     18221 MEMB     150      POPC     H10Y     HAL2     0.900000E-01   1.00800           0
     18222 MEMB     150      POPC     C311     CTL2    -0.180000       12.0110           0
     18223 MEMB     150      POPC     H11X     HAL2     0.900000E-01   1.00800           0
     18224 MEMB     150      POPC     H11Y     HAL2     0.900000E-01   1.00800           0
     18225 MEMB     150      POPC     C312     CTL2    -0.180000       12.0110           0
     18226 MEMB     150      POPC     H12X     HAL2     0.900000E-01   1.00800           0
     18227 MEMB     150      POPC     H12Y     HAL2     0.900000E-01   1.00800           0
     18228 MEMB     150      POPC     C313     CTL2    -0.180000       12.0110           0
     18229 MEMB     150      POPC     H13X     HAL2     0.900000E-01   1.00800           0
     18230 MEMB     150      POPC     H13Y     HAL2     0.900000E-01   1.00800           0
     18231 MEMB     150      POPC     C314     CTL2    -0.180000       12.0110           0
     18232 MEMB     150      POPC     H14X     HAL2     0.900000E-01   1.00800           0
     18233 MEMB     150      POPC     H14Y     HAL2     0.900000E-01   1.00800           0
     18234 MEMB     150      POPC     C315     CTL2    -0.180000       12.0110           0
     18235 MEMB     150      POPC     H15X     HAL2     0.900000E-01   1.00800           0
     18236 MEMB     150      POPC     H15Y     HAL2     0.900000E-01   1.00800           0
     18237 MEMB     150      POPC     C316     CTL3    -0.270000       12.0110           0
     18238 MEMB     150      POPC     H16X     HAL3     0.900000E-01   1.00800           0
     18239 MEMB     150      POPC     H16Y     HAL3     0.900000E-01   1.00800           0
     18240 MEMB     150      POPC     H16Z     HAL3     0.900000E-01   1.00800           0
     18241 MEMB     151      POPC     N        NTL     -0.600000       14.0070           0
     18242 MEMB     151      POPC     C12      CTL2    -0.100000       12.0110           0
     18243 MEMB     151      POPC     H12A     HL       0.250000       1.00800           0
     18244 MEMB     151      POPC     H12B     HL       0.250000       1.00800           0
     18245 MEMB     151      POPC     C13      CTL5    -0.350000       12.0110           0
     18246 MEMB     151      POPC     H13A     HL       0.250000       1.00800           0
     18247 MEMB     151      POPC     H13B     HL       0.250000       1.00800           0
     18248 MEMB     151      POPC     H13C     HL       0.250000       1.00800           0
     18249 MEMB     151      POPC     C14      CTL5    -0.350000       12.0110           0
     18250 MEMB     151      POPC     H14A     HL       0.250000       1.00800           0
     18251 MEMB     151      POPC     H14B     HL       0.250000       1.00800           0
     18252 MEMB     151      POPC     H14C     HL       0.250000       1.00800           0
     18253 MEMB     151      POPC     C15      CTL5    -0.350000       12.0110           0
     18254 MEMB     151      POPC     H15A     HL       0.250000       1.00800           0
     18255 MEMB     151      POPC     H15B     HL       0.250000       1.00800           0
     18256 MEMB     151      POPC     H15C     HL       0.250000       1.00800           0
     18257 MEMB     151      POPC     C11      CTL2    -0.800000E-01   12.0110           0
     18258 MEMB     151      POPC     H11A     HAL2     0.900000E-01   1.00800           0
     18259 MEMB     151      POPC     H11B     HAL2     0.900000E-01   1.00800           0
     18260 MEMB     151      POPC     P        PL        1.50000       30.9740           0
     18261 MEMB     151      POPC     O13      O2L     -0.780000       15.9994           0
     18262 MEMB     151      POPC     O14      O2L     -0.780000       15.9994           0
     18263 MEMB     151      POPC     O12      OSLP    -0.570000       15.9994           0
     18264 MEMB     151      POPC     O11      OSLP    -0.570000       15.9994           0
     18265 MEMB     151      POPC     C1       CTL2    -0.800000E-01   12.0110           0
     18266 MEMB     151      POPC     HA       HAL2     0.900000E-01   1.00800           0
     18267 MEMB     151      POPC     HB       HAL2     0.900000E-01   1.00800           0
     18268 MEMB     151      POPC     C2       CTL1     0.170000       12.0110           0
     18269 MEMB     151      POPC     HS       HAL1     0.900000E-01   1.00800           0
     18270 MEMB     151      POPC     O21      OSL     -0.490000       15.9994           0
     18271 MEMB     151      POPC     C21      CL       0.900000       12.0110           0
     18272 MEMB     151      POPC     O22      OBL     -0.630000       15.9994           0
     18273 MEMB     151      POPC     C22      CTL2    -0.220000       12.0110           0
     18274 MEMB     151      POPC     H2R      HAL2     0.900000E-01   1.00800           0
     18275 MEMB     151      POPC     H2S      HAL2     0.900000E-01   1.00800           0
     18276 MEMB     151      POPC     C3       CTL2     0.800000E-01   12.0110           0
     18277 MEMB     151      POPC     HX       HAL2     0.900000E-01   1.00800           0
     18278 MEMB     151      POPC     HY       HAL2     0.900000E-01   1.00800           0
     18279 MEMB     151      POPC     O31      OSL     -0.490000       15.9994           0
     18280 MEMB     151      POPC     C31      CL       0.900000       12.0110           0
     18281 MEMB     151      POPC     O32      OBL     -0.630000       15.9994           0
     18282 MEMB     151      POPC     C32      CTL2    -0.220000       12.0110           0
     18283 MEMB     151      POPC     H2X      HAL2     0.900000E-01   1.00800           0
     18284 MEMB     151      POPC     H2Y      HAL2     0.900000E-01   1.00800           0
     18285 MEMB     151      POPC     C23      CTL2    -0.180000       12.0110           0
     18286 MEMB     151      POPC     H3R      HAL2     0.900000E-01   1.00800           0
     18287 MEMB     151      POPC     H3S      HAL2     0.900000E-01   1.00800           0
     18288 MEMB     151      POPC     C24      CTL2    -0.180000       12.0110           0
     18289 MEMB     151      POPC     H4R      HAL2     0.900000E-01   1.00800           0
     18290 MEMB     151      POPC     H4S      HAL2     0.900000E-01   1.00800           0
     18291 MEMB     151      POPC     C25      CTL2    -0.180000       12.0110           0
     18292 MEMB     151      POPC     H5R      HAL2     0.900000E-01   1.00800           0
     18293 MEMB     151      POPC     H5S      HAL2     0.900000E-01   1.00800           0
     18294 MEMB     151      POPC     C26      CTL2    -0.180000       12.0110           0
     18295 MEMB     151      POPC     H6R      HAL2     0.900000E-01   1.00800           0
     18296 MEMB     151      POPC     H6S      HAL2     0.900000E-01   1.00800           0
     18297 MEMB     151      POPC     C27      CTL2    -0.180000       12.0110           0
     18298 MEMB     151      POPC     H7R      HAL2     0.900000E-01   1.00800           0
     18299 MEMB     151      POPC     H7S      HAL2     0.900000E-01   1.00800           0
     18300 MEMB     151      POPC     C28      CTL2    -0.180000       12.0110           0
     18301 MEMB     151      POPC     H8R      HAL2     0.900000E-01   1.00800           0
     18302 MEMB     151      POPC     H8S      HAL2     0.900000E-01   1.00800           0
     18303 MEMB     151      POPC     C29      CEL1    -0.150000       12.0110           0
     18304 MEMB     151      POPC     H91      HEL1     0.150000       1.00800           0
     18305 MEMB     151      POPC     C210     CEL1    -0.150000       12.0110           0
     18306 MEMB     151      POPC     H101     HEL1     0.150000       1.00800           0
     18307 MEMB     151      POPC     C211     CTL2    -0.180000       12.0110           0
     18308 MEMB     151      POPC     H11R     HAL2     0.900000E-01   1.00800           0
     18309 MEMB     151      POPC     H11S     HAL2     0.900000E-01   1.00800           0
     18310 MEMB     151      POPC     C212     CTL2    -0.180000       12.0110           0
     18311 MEMB     151      POPC     H12R     HAL2     0.900000E-01   1.00800           0
     18312 MEMB     151      POPC     H12S     HAL2     0.900000E-01   1.00800           0
     18313 MEMB     151      POPC     C213     CTL2    -0.180000       12.0110           0
     18314 MEMB     151      POPC     H13R     HAL2     0.900000E-01   1.00800           0
     18315 MEMB     151      POPC     H13S     HAL2     0.900000E-01   1.00800           0
     18316 MEMB     151      POPC     C214     CTL2    -0.180000       12.0110           0
     18317 MEMB     151      POPC     H14R     HAL2     0.900000E-01   1.00800           0
     18318 MEMB     151      POPC     H14S     HAL2     0.900000E-01   1.00800           0
     18319 MEMB     151      POPC     C215     CTL2    -0.180000       12.0110           0
     18320 MEMB     151      POPC     H15R     HAL2     0.900000E-01   1.00800           0
     18321 MEMB     151      POPC     H15S     HAL2     0.900000E-01   1.00800           0
     18322 MEMB     151      POPC     C216     CTL2    -0.180000       12.0110           0
     18323 MEMB     151      POPC     H16R     HAL2     0.900000E-01   1.00800           0
     18324 MEMB     151      POPC     H16S     HAL2     0.900000E-01   1.00800           0
     18325 MEMB     151      POPC     C217     CTL2    -0.180000       12.0110           0
     18326 MEMB     151      POPC     H17R     HAL2     0.900000E-01   1.00800           0
     18327 MEMB     151      POPC     H17S     HAL2     0.900000E-01   1.00800           0
     18328 MEMB     151      POPC     C218     CTL3    -0.270000       12.0110           0
     18329 MEMB     151      POPC     H18R     HAL3     0.900000E-01   1.00800           0
     18330 MEMB     151      POPC     H18S     HAL3     0.900000E-01   1.00800           0
     18331 MEMB     151      POPC     H18T     HAL3     0.900000E-01   1.00800           0
     18332 MEMB     151      POPC     C33      CTL2    -0.180000       12.0110           0
     18333 MEMB     151      POPC     H3X      HAL2     0.900000E-01   1.00800           0
     18334 MEMB     151      POPC     H3Y      HAL2     0.900000E-01   1.00800           0
     18335 MEMB     151      POPC     C34      CTL2    -0.180000       12.0110           0
     18336 MEMB     151      POPC     H4X      HAL2     0.900000E-01   1.00800           0
     18337 MEMB     151      POPC     H4Y      HAL2     0.900000E-01   1.00800           0
     18338 MEMB     151      POPC     C35      CTL2    -0.180000       12.0110           0
     18339 MEMB     151      POPC     H5X      HAL2     0.900000E-01   1.00800           0
     18340 MEMB     151      POPC     H5Y      HAL2     0.900000E-01   1.00800           0
     18341 MEMB     151      POPC     C36      CTL2    -0.180000       12.0110           0
     18342 MEMB     151      POPC     H6X      HAL2     0.900000E-01   1.00800           0
     18343 MEMB     151      POPC     H6Y      HAL2     0.900000E-01   1.00800           0
     18344 MEMB     151      POPC     C37      CTL2    -0.180000       12.0110           0
     18345 MEMB     151      POPC     H7X      HAL2     0.900000E-01   1.00800           0
     18346 MEMB     151      POPC     H7Y      HAL2     0.900000E-01   1.00800           0
     18347 MEMB     151      POPC     C38      CTL2    -0.180000       12.0110           0
     18348 MEMB     151      POPC     H8X      HAL2     0.900000E-01   1.00800           0
     18349 MEMB     151      POPC     H8Y      HAL2     0.900000E-01   1.00800           0
     18350 MEMB     151      POPC     C39      CTL2    -0.180000       12.0110           0
     18351 MEMB     151      POPC     H9X      HAL2     0.900000E-01   1.00800           0
     18352 MEMB     151      POPC     H9Y      HAL2     0.900000E-01   1.00800           0
     18353 MEMB     151      POPC     C310     CTL2    -0.180000       12.0110           0
     18354 MEMB     151      POPC     H10X     HAL2     0.900000E-01   1.00800           0
     18355 MEMB     151      POPC     H10Y     HAL2     0.900000E-01   1.00800           0
     18356 MEMB     151      POPC     C311     CTL2    -0.180000       12.0110           0
     18357 MEMB     151      POPC     H11X     HAL2     0.900000E-01   1.00800           0
     18358 MEMB     151      POPC     H11Y     HAL2     0.900000E-01   1.00800           0
     18359 MEMB     151      POPC     C312     CTL2    -0.180000       12.0110           0
     18360 MEMB     151      POPC     H12X     HAL2     0.900000E-01   1.00800           0
     18361 MEMB     151      POPC     H12Y     HAL2     0.900000E-01   1.00800           0
     18362 MEMB     151      POPC     C313     CTL2    -0.180000       12.0110           0
     18363 MEMB     151      POPC     H13X     HAL2     0.900000E-01   1.00800           0
     18364 MEMB     151      POPC     H13Y     HAL2     0.900000E-01   1.00800           0
     18365 MEMB     151      POPC     C314     CTL2    -0.180000       12.0110           0
     18366 MEMB     151      POPC     H14X     HAL2     0.900000E-01   1.00800           0
     18367 MEMB     151      POPC     H14Y     HAL2     0.900000E-01   1.00800           0
     18368 MEMB     151      POPC     C315     CTL2    -0.180000       12.0110           0
     18369 MEMB     151      POPC     H15X     HAL2     0.900000E-01   1.00800           0
     18370 MEMB     151      POPC     H15Y     HAL2     0.900000E-01   1.00800           0
     18371 MEMB     151      POPC     C316     CTL3    -0.270000       12.0110           0
     18372 MEMB     151      POPC     H16X     HAL3     0.900000E-01   1.00800           0
     18373 MEMB     151      POPC     H16Y     HAL3     0.900000E-01   1.00800           0
     18374 MEMB     151      POPC     H16Z     HAL3     0.900000E-01   1.00800           0
     18375 MEMB     152      POPC     N        NTL     -0.600000       14.0070           0
     18376 MEMB     152      POPC     C12      CTL2    -0.100000       12.0110           0
     18377 MEMB     152      POPC     H12A     HL       0.250000       1.00800           0
     18378 MEMB     152      POPC     H12B     HL       0.250000       1.00800           0
     18379 MEMB     152      POPC     C13      CTL5    -0.350000       12.0110           0
     18380 MEMB     152      POPC     H13A     HL       0.250000       1.00800           0
     18381 MEMB     152      POPC     H13B     HL       0.250000       1.00800           0
     18382 MEMB     152      POPC     H13C     HL       0.250000       1.00800           0
     18383 MEMB     152      POPC     C14      CTL5    -0.350000       12.0110           0
     18384 MEMB     152      POPC     H14A     HL       0.250000       1.00800           0
     18385 MEMB     152      POPC     H14B     HL       0.250000       1.00800           0
     18386 MEMB     152      POPC     H14C     HL       0.250000       1.00800           0
     18387 MEMB     152      POPC     C15      CTL5    -0.350000       12.0110           0
     18388 MEMB     152      POPC     H15A     HL       0.250000       1.00800           0
     18389 MEMB     152      POPC     H15B     HL       0.250000       1.00800           0
     18390 MEMB     152      POPC     H15C     HL       0.250000       1.00800           0
     18391 MEMB     152      POPC     C11      CTL2    -0.800000E-01   12.0110           0
     18392 MEMB     152      POPC     H11A     HAL2     0.900000E-01   1.00800           0
     18393 MEMB     152      POPC     H11B     HAL2     0.900000E-01   1.00800           0
     18394 MEMB     152      POPC     P        PL        1.50000       30.9740           0
     18395 MEMB     152      POPC     O13      O2L     -0.780000       15.9994           0
     18396 MEMB     152      POPC     O14      O2L     -0.780000       15.9994           0
     18397 MEMB     152      POPC     O12      OSLP    -0.570000       15.9994           0
     18398 MEMB     152      POPC     O11      OSLP    -0.570000       15.9994           0
     18399 MEMB     152      POPC     C1       CTL2    -0.800000E-01   12.0110           0
     18400 MEMB     152      POPC     HA       HAL2     0.900000E-01   1.00800           0
     18401 MEMB     152      POPC     HB       HAL2     0.900000E-01   1.00800           0
     18402 MEMB     152      POPC     C2       CTL1     0.170000       12.0110           0
     18403 MEMB     152      POPC     HS       HAL1     0.900000E-01   1.00800           0
     18404 MEMB     152      POPC     O21      OSL     -0.490000       15.9994           0
     18405 MEMB     152      POPC     C21      CL       0.900000       12.0110           0
     18406 MEMB     152      POPC     O22      OBL     -0.630000       15.9994           0
     18407 MEMB     152      POPC     C22      CTL2    -0.220000       12.0110           0
     18408 MEMB     152      POPC     H2R      HAL2     0.900000E-01   1.00800           0
     18409 MEMB     152      POPC     H2S      HAL2     0.900000E-01   1.00800           0
     18410 MEMB     152      POPC     C3       CTL2     0.800000E-01   12.0110           0
     18411 MEMB     152      POPC     HX       HAL2     0.900000E-01   1.00800           0
     18412 MEMB     152      POPC     HY       HAL2     0.900000E-01   1.00800           0
     18413 MEMB     152      POPC     O31      OSL     -0.490000       15.9994           0
     18414 MEMB     152      POPC     C31      CL       0.900000       12.0110           0
     18415 MEMB     152      POPC     O32      OBL     -0.630000       15.9994           0
     18416 MEMB     152      POPC     C32      CTL2    -0.220000       12.0110           0
     18417 MEMB     152      POPC     H2X      HAL2     0.900000E-01   1.00800           0
     18418 MEMB     152      POPC     H2Y      HAL2     0.900000E-01   1.00800           0
     18419 MEMB     152      POPC     C23      CTL2    -0.180000       12.0110           0
     18420 MEMB     152      POPC     H3R      HAL2     0.900000E-01   1.00800           0
     18421 MEMB     152      POPC     H3S      HAL2     0.900000E-01   1.00800           0
     18422 MEMB     152      POPC     C24      CTL2    -0.180000       12.0110           0
     18423 MEMB     152      POPC     H4R      HAL2     0.900000E-01   1.00800           0
     18424 MEMB     152      POPC     H4S      HAL2     0.900000E-01   1.00800           0
     18425 MEMB     152      POPC     C25      CTL2    -0.180000       12.0110           0
     18426 MEMB     152      POPC     H5R      HAL2     0.900000E-01   1.00800           0
     18427 MEMB     152      POPC     H5S      HAL2     0.900000E-01   1.00800           0
     18428 MEMB     152      POPC     C26      CTL2    -0.180000       12.0110           0
     18429 MEMB     152      POPC     H6R      HAL2     0.900000E-01   1.00800           0
     18430 MEMB     152      POPC     H6S      HAL2     0.900000E-01   1.00800           0
     18431 MEMB     152      POPC     C27      CTL2    -0.180000       12.0110           0
     18432 MEMB     152      POPC     H7R      HAL2     0.900000E-01   1.00800           0
     18433 MEMB     152      POPC     H7S      HAL2     0.900000E-01   1.00800           0
     18434 MEMB     152      POPC     C28      CTL2    -0.180000       12.0110           0
     18435 MEMB     152      POPC     H8R      HAL2     0.900000E-01   1.00800           0
     18436 MEMB     152      POPC     H8S      HAL2     0.900000E-01   1.00800           0
     18437 MEMB     152      POPC     C29      CEL1    -0.150000       12.0110           0
     18438 MEMB     152      POPC     H91      HEL1     0.150000       1.00800           0
     18439 MEMB     152      POPC     C210     CEL1    -0.150000       12.0110           0
     18440 MEMB     152      POPC     H101     HEL1     0.150000       1.00800           0
     18441 MEMB     152      POPC     C211     CTL2    -0.180000       12.0110           0
     18442 MEMB     152      POPC     H11R     HAL2     0.900000E-01   1.00800           0
     18443 MEMB     152      POPC     H11S     HAL2     0.900000E-01   1.00800           0
     18444 MEMB     152      POPC     C212     CTL2    -0.180000       12.0110           0
     18445 MEMB     152      POPC     H12R     HAL2     0.900000E-01   1.00800           0
     18446 MEMB     152      POPC     H12S     HAL2     0.900000E-01   1.00800           0
     18447 MEMB     152      POPC     C213     CTL2    -0.180000       12.0110           0
     18448 MEMB     152      POPC     H13R     HAL2     0.900000E-01   1.00800           0
     18449 MEMB     152      POPC     H13S     HAL2     0.900000E-01   1.00800           0
     18450 MEMB     152      POPC     C214     CTL2    -0.180000       12.0110           0
     18451 MEMB     152      POPC     H14R     HAL2     0.900000E-01   1.00800           0
     18452 MEMB     152      POPC     H14S     HAL2     0.900000E-01   1.00800           0
     18453 MEMB     152      POPC     C215     CTL2    -0.180000       12.0110           0
     18454 MEMB     152      POPC     H15R     HAL2     0.900000E-01   1.00800           0
     18455 MEMB     152      POPC     H15S     HAL2     0.900000E-01   1.00800           0
     18456 MEMB     152      POPC     C216     CTL2    -0.180000       12.0110           0
     18457 MEMB     152      POPC     H16R     HAL2     0.900000E-01   1.00800           0
     18458 MEMB     152      POPC     H16S     HAL2     0.900000E-01   1.00800           0
     18459 MEMB     152      POPC     C217     CTL2    -0.180000       12.0110           0
     18460 MEMB     152      POPC     H17R     HAL2     0.900000E-01   1.00800           0
     18461 MEMB     152      POPC     H17S     HAL2     0.900000E-01   1.00800           0
     18462 MEMB     152      POPC     C218     CTL3    -0.270000       12.0110           0
     18463 MEMB     152      POPC     H18R     HAL3     0.900000E-01   1.00800           0
     18464 MEMB     152      POPC     H18S     HAL3     0.900000E-01   1.00800           0
     18465 MEMB     152      POPC     H18T     HAL3     0.900000E-01   1.00800           0
     18466 MEMB     152      POPC     C33      CTL2    -0.180000       12.0110           0
     18467 MEMB     152      POPC     H3X      HAL2     0.900000E-01   1.00800           0
     18468 MEMB     152      POPC     H3Y      HAL2     0.900000E-01   1.00800           0
     18469 MEMB     152      POPC     C34      CTL2    -0.180000       12.0110           0
     18470 MEMB     152      POPC     H4X      HAL2     0.900000E-01   1.00800           0
     18471 MEMB     152      POPC     H4Y      HAL2     0.900000E-01   1.00800           0
     18472 MEMB     152      POPC     C35      CTL2    -0.180000       12.0110           0
     18473 MEMB     152      POPC     H5X      HAL2     0.900000E-01   1.00800           0
     18474 MEMB     152      POPC     H5Y      HAL2     0.900000E-01   1.00800           0
     18475 MEMB     152      POPC     C36      CTL2    -0.180000       12.0110           0
     18476 MEMB     152      POPC     H6X      HAL2     0.900000E-01   1.00800           0
     18477 MEMB     152      POPC     H6Y      HAL2     0.900000E-01   1.00800           0
     18478 MEMB     152      POPC     C37      CTL2    -0.180000       12.0110           0
     18479 MEMB     152      POPC     H7X      HAL2     0.900000E-01   1.00800           0
     18480 MEMB     152      POPC     H7Y      HAL2     0.900000E-01   1.00800           0
     18481 MEMB     152      POPC     C38      CTL2    -0.180000       12.0110           0
     18482 MEMB     152      POPC     H8X      HAL2     0.900000E-01   1.00800           0
     18483 MEMB     152      POPC     H8Y      HAL2     0.900000E-01   1.00800           0
     18484 MEMB     152      POPC     C39      CTL2    -0.180000       12.0110           0
     18485 MEMB     152      POPC     H9X      HAL2     0.900000E-01   1.00800           0
     18486 MEMB     152      POPC     H9Y      HAL2     0.900000E-01   1.00800           0
     18487 MEMB     152      POPC     C310     CTL2    -0.180000       12.0110           0
     18488 MEMB     152      POPC     H10X     HAL2     0.900000E-01   1.00800           0
     18489 MEMB     152      POPC     H10Y     HAL2     0.900000E-01   1.00800           0
     18490 MEMB     152      POPC     C311     CTL2    -0.180000       12.0110           0
     18491 MEMB     152      POPC     H11X     HAL2     0.900000E-01   1.00800           0
     18492 MEMB     152      POPC     H11Y     HAL2     0.900000E-01   1.00800           0
     18493 MEMB     152      POPC     C312     CTL2    -0.180000       12.0110           0
     18494 MEMB     152      POPC     H12X     HAL2     0.900000E-01   1.00800           0
     18495 MEMB     152      POPC     H12Y     HAL2     0.900000E-01   1.00800           0
     18496 MEMB     152      POPC     C313     CTL2    -0.180000       12.0110           0
     18497 MEMB     152      POPC     H13X     HAL2     0.900000E-01   1.00800           0
     18498 MEMB     152      POPC     H13Y     HAL2     0.900000E-01   1.00800           0
     18499 MEMB     152      POPC     C314     CTL2    -0.180000       12.0110           0
     18500 MEMB     152      POPC     H14X     HAL2     0.900000E-01   1.00800           0
     18501 MEMB     152      POPC     H14Y     HAL2     0.900000E-01   1.00800           0
     18502 MEMB     152      POPC     C315     CTL2    -0.180000       12.0110           0
     18503 MEMB     152      POPC     H15X     HAL2     0.900000E-01   1.00800           0
     18504 MEMB     152      POPC     H15Y     HAL2     0.900000E-01   1.00800           0
     18505 MEMB     152      POPC     C316     CTL3    -0.270000       12.0110           0
     18506 MEMB     152      POPC     H16X     HAL3     0.900000E-01   1.00800           0
     18507 MEMB     152      POPC     H16Y     HAL3     0.900000E-01   1.00800           0
     18508 MEMB     152      POPC     H16Z     HAL3     0.900000E-01   1.00800           0
     18509 MEMB     153      POPC     N        NTL     -0.600000       14.0070           0
     18510 MEMB     153      POPC     C12      CTL2    -0.100000       12.0110           0
     18511 MEMB     153      POPC     H12A     HL       0.250000       1.00800           0
     18512 MEMB     153      POPC     H12B     HL       0.250000       1.00800           0
     18513 MEMB     153      POPC     C13      CTL5    -0.350000       12.0110           0
     18514 MEMB     153      POPC     H13A     HL       0.250000       1.00800           0
     18515 MEMB     153      POPC     H13B     HL       0.250000       1.00800           0
     18516 MEMB     153      POPC     H13C     HL       0.250000       1.00800           0
     18517 MEMB     153      POPC     C14      CTL5    -0.350000       12.0110           0
     18518 MEMB     153      POPC     H14A     HL       0.250000       1.00800           0
     18519 MEMB     153      POPC     H14B     HL       0.250000       1.00800           0
     18520 MEMB     153      POPC     H14C     HL       0.250000       1.00800           0
     18521 MEMB     153      POPC     C15      CTL5    -0.350000       12.0110           0
     18522 MEMB     153      POPC     H15A     HL       0.250000       1.00800           0
     18523 MEMB     153      POPC     H15B     HL       0.250000       1.00800           0
     18524 MEMB     153      POPC     H15C     HL       0.250000       1.00800           0
     18525 MEMB     153      POPC     C11      CTL2    -0.800000E-01   12.0110           0
     18526 MEMB     153      POPC     H11A     HAL2     0.900000E-01   1.00800           0
     18527 MEMB     153      POPC     H11B     HAL2     0.900000E-01   1.00800           0
     18528 MEMB     153      POPC     P        PL        1.50000       30.9740           0
     18529 MEMB     153      POPC     O13      O2L     -0.780000       15.9994           0
     18530 MEMB     153      POPC     O14      O2L     -0.780000       15.9994           0
     18531 MEMB     153      POPC     O12      OSLP    -0.570000       15.9994           0
     18532 MEMB     153      POPC     O11      OSLP    -0.570000       15.9994           0
     18533 MEMB     153      POPC     C1       CTL2    -0.800000E-01   12.0110           0
     18534 MEMB     153      POPC     HA       HAL2     0.900000E-01   1.00800           0
     18535 MEMB     153      POPC     HB       HAL2     0.900000E-01   1.00800           0
     18536 MEMB     153      POPC     C2       CTL1     0.170000       12.0110           0
     18537 MEMB     153      POPC     HS       HAL1     0.900000E-01   1.00800           0
     18538 MEMB     153      POPC     O21      OSL     -0.490000       15.9994           0
     18539 MEMB     153      POPC     C21      CL       0.900000       12.0110           0
     18540 MEMB     153      POPC     O22      OBL     -0.630000       15.9994           0
     18541 MEMB     153      POPC     C22      CTL2    -0.220000       12.0110           0
     18542 MEMB     153      POPC     H2R      HAL2     0.900000E-01   1.00800           0
     18543 MEMB     153      POPC     H2S      HAL2     0.900000E-01   1.00800           0
     18544 MEMB     153      POPC     C3       CTL2     0.800000E-01   12.0110           0
     18545 MEMB     153      POPC     HX       HAL2     0.900000E-01   1.00800           0
     18546 MEMB     153      POPC     HY       HAL2     0.900000E-01   1.00800           0
     18547 MEMB     153      POPC     O31      OSL     -0.490000       15.9994           0
     18548 MEMB     153      POPC     C31      CL       0.900000       12.0110           0
     18549 MEMB     153      POPC     O32      OBL     -0.630000       15.9994           0
     18550 MEMB     153      POPC     C32      CTL2    -0.220000       12.0110           0
     18551 MEMB     153      POPC     H2X      HAL2     0.900000E-01   1.00800           0
     18552 MEMB     153      POPC     H2Y      HAL2     0.900000E-01   1.00800           0
     18553 MEMB     153      POPC     C23      CTL2    -0.180000       12.0110           0
     18554 MEMB     153      POPC     H3R      HAL2     0.900000E-01   1.00800           0
     18555 MEMB     153      POPC     H3S      HAL2     0.900000E-01   1.00800           0
     18556 MEMB     153      POPC     C24      CTL2    -0.180000       12.0110           0
     18557 MEMB     153      POPC     H4R      HAL2     0.900000E-01   1.00800           0
     18558 MEMB     153      POPC     H4S      HAL2     0.900000E-01   1.00800           0
     18559 MEMB     153      POPC     C25      CTL2    -0.180000       12.0110           0
     18560 MEMB     153      POPC     H5R      HAL2     0.900000E-01   1.00800           0
     18561 MEMB     153      POPC     H5S      HAL2     0.900000E-01   1.00800           0
     18562 MEMB     153      POPC     C26      CTL2    -0.180000       12.0110           0
     18563 MEMB     153      POPC     H6R      HAL2     0.900000E-01   1.00800           0
     18564 MEMB     153      POPC     H6S      HAL2     0.900000E-01   1.00800           0
     18565 MEMB     153      POPC     C27      CTL2    -0.180000       12.0110           0
     18566 MEMB     153      POPC     H7R      HAL2     0.900000E-01   1.00800           0
     18567 MEMB     153      POPC     H7S      HAL2     0.900000E-01   1.00800           0
     18568 MEMB     153      POPC     C28      CTL2    -0.180000       12.0110           0
     18569 MEMB     153      POPC     H8R      HAL2     0.900000E-01   1.00800           0
     18570 MEMB     153      POPC     H8S      HAL2     0.900000E-01   1.00800           0
     18571 MEMB     153      POPC     C29      CEL1    -0.150000       12.0110           0
     18572 MEMB     153      POPC     H91      HEL1     0.150000       1.00800           0
     18573 MEMB     153      POPC     C210     CEL1    -0.150000       12.0110           0
     18574 MEMB     153      POPC     H101     HEL1     0.150000       1.00800           0
     18575 MEMB     153      POPC     C211     CTL2    -0.180000       12.0110           0
     18576 MEMB     153      POPC     H11R     HAL2     0.900000E-01   1.00800           0
     18577 MEMB     153      POPC     H11S     HAL2     0.900000E-01   1.00800           0
     18578 MEMB     153      POPC     C212     CTL2    -0.180000       12.0110           0
     18579 MEMB     153      POPC     H12R     HAL2     0.900000E-01   1.00800           0
     18580 MEMB     153      POPC     H12S     HAL2     0.900000E-01   1.00800           0
     18581 MEMB     153      POPC     C213     CTL2    -0.180000       12.0110           0
     18582 MEMB     153      POPC     H13R     HAL2     0.900000E-01   1.00800           0
     18583 MEMB     153      POPC     H13S     HAL2     0.900000E-01   1.00800           0
     18584 MEMB     153      POPC     C214     CTL2    -0.180000       12.0110           0
     18585 MEMB     153      POPC     H14R     HAL2     0.900000E-01   1.00800           0
     18586 MEMB     153      POPC     H14S     HAL2     0.900000E-01   1.00800           0
     18587 MEMB     153      POPC     C215     CTL2    -0.180000       12.0110           0
     18588 MEMB     153      POPC     H15R     HAL2     0.900000E-01   1.00800           0
     18589 MEMB     153      POPC     H15S     HAL2     0.900000E-01   1.00800           0
     18590 MEMB     153      POPC     C216     CTL2    -0.180000       12.0110           0
     18591 MEMB     153      POPC     H16R     HAL2     0.900000E-01   1.00800           0
     18592 MEMB     153      POPC     H16S     HAL2     0.900000E-01   1.00800           0
     18593 MEMB     153      POPC     C217     CTL2    -0.180000       12.0110           0
     18594 MEMB     153      POPC     H17R     HAL2     0.900000E-01   1.00800           0
     18595 MEMB     153      POPC     H17S     HAL2     0.900000E-01   1.00800           0
     18596 MEMB     153      POPC     C218     CTL3    -0.270000       12.0110           0
     18597 MEMB     153      POPC     H18R     HAL3     0.900000E-01   1.00800           0
     18598 MEMB     153      POPC     H18S     HAL3     0.900000E-01   1.00800           0
     18599 MEMB     153      POPC     H18T     HAL3     0.900000E-01   1.00800           0
     18600 MEMB     153      POPC     C33      CTL2    -0.180000       12.0110           0
     18601 MEMB     153      POPC     H3X      HAL2     0.900000E-01   1.00800           0
     18602 MEMB     153      POPC     H3Y      HAL2     0.900000E-01   1.00800           0
     18603 MEMB     153      POPC     C34      CTL2    -0.180000       12.0110           0
     18604 MEMB     153      POPC     H4X      HAL2     0.900000E-01   1.00800           0
     18605 MEMB     153      POPC     H4Y      HAL2     0.900000E-01   1.00800           0
     18606 MEMB     153      POPC     C35      CTL2    -0.180000       12.0110           0
     18607 MEMB     153      POPC     H5X      HAL2     0.900000E-01   1.00800           0
     18608 MEMB     153      POPC     H5Y      HAL2     0.900000E-01   1.00800           0
     18609 MEMB     153      POPC     C36      CTL2    -0.180000       12.0110           0
     18610 MEMB     153      POPC     H6X      HAL2     0.900000E-01   1.00800           0
     18611 MEMB     153      POPC     H6Y      HAL2     0.900000E-01   1.00800           0
     18612 MEMB     153      POPC     C37      CTL2    -0.180000       12.0110           0
     18613 MEMB     153      POPC     H7X      HAL2     0.900000E-01   1.00800           0
     18614 MEMB     153      POPC     H7Y      HAL2     0.900000E-01   1.00800           0
     18615 MEMB     153      POPC     C38      CTL2    -0.180000       12.0110           0
     18616 MEMB     153      POPC     H8X      HAL2     0.900000E-01   1.00800           0
     18617 MEMB     153      POPC     H8Y      HAL2     0.900000E-01   1.00800           0
     18618 MEMB     153      POPC     C39      CTL2    -0.180000       12.0110           0
     18619 MEMB     153      POPC     H9X      HAL2     0.900000E-01   1.00800           0
     18620 MEMB     153      POPC     H9Y      HAL2     0.900000E-01   1.00800           0
     18621 MEMB     153      POPC     C310     CTL2    -0.180000       12.0110           0
     18622 MEMB     153      POPC     H10X     HAL2     0.900000E-01   1.00800           0
     18623 MEMB     153      POPC     H10Y     HAL2     0.900000E-01   1.00800           0
     18624 MEMB     153      POPC     C311     CTL2    -0.180000       12.0110           0
     18625 MEMB     153      POPC     H11X     HAL2     0.900000E-01   1.00800           0
     18626 MEMB     153      POPC     H11Y     HAL2     0.900000E-01   1.00800           0
     18627 MEMB     153      POPC     C312     CTL2    -0.180000       12.0110           0
     18628 MEMB     153      POPC     H12X     HAL2     0.900000E-01   1.00800           0
     18629 MEMB     153      POPC     H12Y     HAL2     0.900000E-01   1.00800           0
     18630 MEMB     153      POPC     C313     CTL2    -0.180000       12.0110           0
     18631 MEMB     153      POPC     H13X     HAL2     0.900000E-01   1.00800           0
     18632 MEMB     153      POPC     H13Y     HAL2     0.900000E-01   1.00800           0
     18633 MEMB     153      POPC     C314     CTL2    -0.180000       12.0110           0
     18634 MEMB     153      POPC     H14X     HAL2     0.900000E-01   1.00800           0
     18635 MEMB     153      POPC     H14Y     HAL2     0.900000E-01   1.00800           0
     18636 MEMB     153      POPC     C315     CTL2    -0.180000       12.0110           0
     18637 MEMB     153      POPC     H15X     HAL2     0.900000E-01   1.00800           0
     18638 MEMB     153      POPC     H15Y     HAL2     0.900000E-01   1.00800           0
     18639 MEMB     153      POPC     C316     CTL3    -0.270000       12.0110           0
     18640 MEMB     153      POPC     H16X     HAL3     0.900000E-01   1.00800           0
     18641 MEMB     153      POPC     H16Y     HAL3     0.900000E-01   1.00800           0
     18642 MEMB     153      POPC     H16Z     HAL3     0.900000E-01   1.00800           0
     18643 MEMB     154      POPC     N        NTL     -0.600000       14.0070           0
     18644 MEMB     154      POPC     C12      CTL2    -0.100000       12.0110           0
     18645 MEMB     154      POPC     H12A     HL       0.250000       1.00800           0
     18646 MEMB     154      POPC     H12B     HL       0.250000       1.00800           0
     18647 MEMB     154      POPC     C13      CTL5    -0.350000       12.0110           0
     18648 MEMB     154      POPC     H13A     HL       0.250000       1.00800           0
     18649 MEMB     154      POPC     H13B     HL       0.250000       1.00800           0
     18650 MEMB     154      POPC     H13C     HL       0.250000       1.00800           0
     18651 MEMB     154      POPC     C14      CTL5    -0.350000       12.0110           0
     18652 MEMB     154      POPC     H14A     HL       0.250000       1.00800           0
     18653 MEMB     154      POPC     H14B     HL       0.250000       1.00800           0
     18654 MEMB     154      POPC     H14C     HL       0.250000       1.00800           0
     18655 MEMB     154      POPC     C15      CTL5    -0.350000       12.0110           0
     18656 MEMB     154      POPC     H15A     HL       0.250000       1.00800           0
     18657 MEMB     154      POPC     H15B     HL       0.250000       1.00800           0
     18658 MEMB     154      POPC     H15C     HL       0.250000       1.00800           0
     18659 MEMB     154      POPC     C11      CTL2    -0.800000E-01   12.0110           0
     18660 MEMB     154      POPC     H11A     HAL2     0.900000E-01   1.00800           0
     18661 MEMB     154      POPC     H11B     HAL2     0.900000E-01   1.00800           0
     18662 MEMB     154      POPC     P        PL        1.50000       30.9740           0
     18663 MEMB     154      POPC     O13      O2L     -0.780000       15.9994           0
     18664 MEMB     154      POPC     O14      O2L     -0.780000       15.9994           0
     18665 MEMB     154      POPC     O12      OSLP    -0.570000       15.9994           0
     18666 MEMB     154      POPC     O11      OSLP    -0.570000       15.9994           0
     18667 MEMB     154      POPC     C1       CTL2    -0.800000E-01   12.0110           0
     18668 MEMB     154      POPC     HA       HAL2     0.900000E-01   1.00800           0
     18669 MEMB     154      POPC     HB       HAL2     0.900000E-01   1.00800           0
     18670 MEMB     154      POPC     C2       CTL1     0.170000       12.0110           0
     18671 MEMB     154      POPC     HS       HAL1     0.900000E-01   1.00800           0
     18672 MEMB     154      POPC     O21      OSL     -0.490000       15.9994           0
     18673 MEMB     154      POPC     C21      CL       0.900000       12.0110           0
     18674 MEMB     154      POPC     O22      OBL     -0.630000       15.9994           0
     18675 MEMB     154      POPC     C22      CTL2    -0.220000       12.0110           0
     18676 MEMB     154      POPC     H2R      HAL2     0.900000E-01   1.00800           0
     18677 MEMB     154      POPC     H2S      HAL2     0.900000E-01   1.00800           0
     18678 MEMB     154      POPC     C3       CTL2     0.800000E-01   12.0110           0
     18679 MEMB     154      POPC     HX       HAL2     0.900000E-01   1.00800           0
     18680 MEMB     154      POPC     HY       HAL2     0.900000E-01   1.00800           0
     18681 MEMB     154      POPC     O31      OSL     -0.490000       15.9994           0
     18682 MEMB     154      POPC     C31      CL       0.900000       12.0110           0
     18683 MEMB     154      POPC     O32      OBL     -0.630000       15.9994           0
     18684 MEMB     154      POPC     C32      CTL2    -0.220000       12.0110           0
     18685 MEMB     154      POPC     H2X      HAL2     0.900000E-01   1.00800           0
     18686 MEMB     154      POPC     H2Y      HAL2     0.900000E-01   1.00800           0
     18687 MEMB     154      POPC     C23      CTL2    -0.180000       12.0110           0
     18688 MEMB     154      POPC     H3R      HAL2     0.900000E-01   1.00800           0
     18689 MEMB     154      POPC     H3S      HAL2     0.900000E-01   1.00800           0
     18690 MEMB     154      POPC     C24      CTL2    -0.180000       12.0110           0
     18691 MEMB     154      POPC     H4R      HAL2     0.900000E-01   1.00800           0
     18692 MEMB     154      POPC     H4S      HAL2     0.900000E-01   1.00800           0
     18693 MEMB     154      POPC     C25      CTL2    -0.180000       12.0110           0
     18694 MEMB     154      POPC     H5R      HAL2     0.900000E-01   1.00800           0
     18695 MEMB     154      POPC     H5S      HAL2     0.900000E-01   1.00800           0
     18696 MEMB     154      POPC     C26      CTL2    -0.180000       12.0110           0
     18697 MEMB     154      POPC     H6R      HAL2     0.900000E-01   1.00800           0
     18698 MEMB     154      POPC     H6S      HAL2     0.900000E-01   1.00800           0
     18699 MEMB     154      POPC     C27      CTL2    -0.180000       12.0110           0
     18700 MEMB     154      POPC     H7R      HAL2     0.900000E-01   1.00800           0
     18701 MEMB     154      POPC     H7S      HAL2     0.900000E-01   1.00800           0
     18702 MEMB     154      POPC     C28      CTL2    -0.180000       12.0110           0
     18703 MEMB     154      POPC     H8R      HAL2     0.900000E-01   1.00800           0
     18704 MEMB     154      POPC     H8S      HAL2     0.900000E-01   1.00800           0
     18705 MEMB     154      POPC     C29      CEL1    -0.150000       12.0110           0
     18706 MEMB     154      POPC     H91      HEL1     0.150000       1.00800           0
     18707 MEMB     154      POPC     C210     CEL1    -0.150000       12.0110           0
     18708 MEMB     154      POPC     H101     HEL1     0.150000       1.00800           0
     18709 MEMB     154      POPC     C211     CTL2    -0.180000       12.0110           0
     18710 MEMB     154      POPC     H11R     HAL2     0.900000E-01   1.00800           0
     18711 MEMB     154      POPC     H11S     HAL2     0.900000E-01   1.00800           0
     18712 MEMB     154      POPC     C212     CTL2    -0.180000       12.0110           0
     18713 MEMB     154      POPC     H12R     HAL2     0.900000E-01   1.00800           0
     18714 MEMB     154      POPC     H12S     HAL2     0.900000E-01   1.00800           0
     18715 MEMB     154      POPC     C213     CTL2    -0.180000       12.0110           0
     18716 MEMB     154      POPC     H13R     HAL2     0.900000E-01   1.00800           0
     18717 MEMB     154      POPC     H13S     HAL2     0.900000E-01   1.00800           0
     18718 MEMB     154      POPC     C214     CTL2    -0.180000       12.0110           0
     18719 MEMB     154      POPC     H14R     HAL2     0.900000E-01   1.00800           0
     18720 MEMB     154      POPC     H14S     HAL2     0.900000E-01   1.00800           0
     18721 MEMB     154      POPC     C215     CTL2    -0.180000       12.0110           0
     18722 MEMB     154      POPC     H15R     HAL2     0.900000E-01   1.00800           0
     18723 MEMB     154      POPC     H15S     HAL2     0.900000E-01   1.00800           0
     18724 MEMB     154      POPC     C216     CTL2    -0.180000       12.0110           0
     18725 MEMB     154      POPC     H16R     HAL2     0.900000E-01   1.00800           0
     18726 MEMB     154      POPC     H16S     HAL2     0.900000E-01   1.00800           0
     18727 MEMB     154      POPC     C217     CTL2    -0.180000       12.0110           0
     18728 MEMB     154      POPC     H17R     HAL2     0.900000E-01   1.00800           0
     18729 MEMB     154      POPC     H17S     HAL2     0.900000E-01   1.00800           0
     18730 MEMB     154      POPC     C218     CTL3    -0.270000       12.0110           0
     18731 MEMB     154      POPC     H18R     HAL3     0.900000E-01   1.00800           0
     18732 MEMB     154      POPC     H18S     HAL3     0.900000E-01   1.00800           0
     18733 MEMB     154      POPC     H18T     HAL3     0.900000E-01   1.00800           0
     18734 MEMB     154      POPC     C33      CTL2    -0.180000       12.0110           0
     18735 MEMB     154      POPC     H3X      HAL2     0.900000E-01   1.00800           0
     18736 MEMB     154      POPC     H3Y      HAL2     0.900000E-01   1.00800           0
     18737 MEMB     154      POPC     C34      CTL2    -0.180000       12.0110           0
     18738 MEMB     154      POPC     H4X      HAL2     0.900000E-01   1.00800           0
     18739 MEMB     154      POPC     H4Y      HAL2     0.900000E-01   1.00800           0
     18740 MEMB     154      POPC     C35      CTL2    -0.180000       12.0110           0
     18741 MEMB     154      POPC     H5X      HAL2     0.900000E-01   1.00800           0
     18742 MEMB     154      POPC     H5Y      HAL2     0.900000E-01   1.00800           0
     18743 MEMB     154      POPC     C36      CTL2    -0.180000       12.0110           0
     18744 MEMB     154      POPC     H6X      HAL2     0.900000E-01   1.00800           0
     18745 MEMB     154      POPC     H6Y      HAL2     0.900000E-01   1.00800           0
     18746 MEMB     154      POPC     C37      CTL2    -0.180000       12.0110           0
     18747 MEMB     154      POPC     H7X      HAL2     0.900000E-01   1.00800           0
     18748 MEMB     154      POPC     H7Y      HAL2     0.900000E-01   1.00800           0
     18749 MEMB     154      POPC     C38      CTL2    -0.180000       12.0110           0
     18750 MEMB     154      POPC     H8X      HAL2     0.900000E-01   1.00800           0
     18751 MEMB     154      POPC     H8Y      HAL2     0.900000E-01   1.00800           0
     18752 MEMB     154      POPC     C39      CTL2    -0.180000       12.0110           0
     18753 MEMB     154      POPC     H9X      HAL2     0.900000E-01   1.00800           0
     18754 MEMB     154      POPC     H9Y      HAL2     0.900000E-01   1.00800           0
     18755 MEMB     154      POPC     C310     CTL2    -0.180000       12.0110           0
     18756 MEMB     154      POPC     H10X     HAL2     0.900000E-01   1.00800           0
     18757 MEMB     154      POPC     H10Y     HAL2     0.900000E-01   1.00800           0
     18758 MEMB     154      POPC     C311     CTL2    -0.180000       12.0110           0
     18759 MEMB     154      POPC     H11X     HAL2     0.900000E-01   1.00800           0
     18760 MEMB     154      POPC     H11Y     HAL2     0.900000E-01   1.00800           0
     18761 MEMB     154      POPC     C312     CTL2    -0.180000       12.0110           0
     18762 MEMB     154      POPC     H12X     HAL2     0.900000E-01   1.00800           0
     18763 MEMB     154      POPC     H12Y     HAL2     0.900000E-01   1.00800           0
     18764 MEMB     154      POPC     C313     CTL2    -0.180000       12.0110           0
     18765 MEMB     154      POPC     H13X     HAL2     0.900000E-01   1.00800           0
     18766 MEMB     154      POPC     H13Y     HAL2     0.900000E-01   1.00800           0
     18767 MEMB     154      POPC     C314     CTL2    -0.180000       12.0110           0
     18768 MEMB     154      POPC     H14X     HAL2     0.900000E-01   1.00800           0
     18769 MEMB     154      POPC     H14Y     HAL2     0.900000E-01   1.00800           0
     18770 MEMB     154      POPC     C315     CTL2    -0.180000       12.0110           0
     18771 MEMB     154      POPC     H15X     HAL2     0.900000E-01   1.00800           0
     18772 MEMB     154      POPC     H15Y     HAL2     0.900000E-01   1.00800           0
     18773 MEMB     154      POPC     C316     CTL3    -0.270000       12.0110           0
     18774 MEMB     154      POPC     H16X     HAL3     0.900000E-01   1.00800           0
     18775 MEMB     154      POPC     H16Y     HAL3     0.900000E-01   1.00800           0
     18776 MEMB     154      POPC     H16Z     HAL3     0.900000E-01   1.00800           0
     18777 MEMB     155      CHL1     C3       CRL1     0.140000       12.0110           0
     18778 MEMB     155      CHL1     H3       HGA1     0.900000E-01   1.00800           0
     18779 MEMB     155      CHL1     O3       OHL     -0.660000       15.9994           0
     18780 MEMB     155      CHL1     H3'      HOL      0.430000       1.00800           0
     18781 MEMB     155      CHL1     C4       CRL2    -0.180000       12.0110           0
     18782 MEMB     155      CHL1     H4A      HGA2     0.900000E-01   1.00800           0
     18783 MEMB     155      CHL1     H4B      HGA2     0.900000E-01   1.00800           0
     18784 MEMB     155      CHL1     C5       CEL1      0.00000       12.0110           0
     18785 MEMB     155      CHL1     C6       CEL1    -0.150000       12.0110           0
     18786 MEMB     155      CHL1     H6       HEL1     0.150000       1.00800           0
     18787 MEMB     155      CHL1     C7       CRL2    -0.180000       12.0110           0
     18788 MEMB     155      CHL1     H7A      HGA2     0.900000E-01   1.00800           0
     18789 MEMB     155      CHL1     H7B      HGA2     0.900000E-01   1.00800           0
     18790 MEMB     155      CHL1     C8       CRL1    -0.900000E-01   12.0110           0
     18791 MEMB     155      CHL1     H8       HGA1     0.900000E-01   1.00800           0
     18792 MEMB     155      CHL1     C14      CRL1    -0.900000E-01   12.0110           0
     18793 MEMB     155      CHL1     H14      HGA1     0.900000E-01   1.00800           0
     18794 MEMB     155      CHL1     C15      CRL2    -0.180000       12.0110           0
     18795 MEMB     155      CHL1     H15A     HGA2     0.900000E-01   1.00800           0
     18796 MEMB     155      CHL1     H15B     HGA2     0.900000E-01   1.00800           0
     18797 MEMB     155      CHL1     C16      CRL2    -0.180000       12.0110           0
     18798 MEMB     155      CHL1     H16A     HGA2     0.900000E-01   1.00800           0
     18799 MEMB     155      CHL1     H16B     HGA2     0.900000E-01   1.00800           0
     18800 MEMB     155      CHL1     C17      CRL1    -0.900000E-01   12.0110           0
     18801 MEMB     155      CHL1     H17      HGA1     0.900000E-01   1.00800           0
     18802 MEMB     155      CHL1     C13      CRL1      0.00000       12.0110           0
     18803 MEMB     155      CHL1     C18      CTL3    -0.270000       12.0110           0
     18804 MEMB     155      CHL1     H18A     HAL3     0.900000E-01   1.00800           0
     18805 MEMB     155      CHL1     H18B     HAL3     0.900000E-01   1.00800           0
     18806 MEMB     155      CHL1     H18C     HAL3     0.900000E-01   1.00800           0
     18807 MEMB     155      CHL1     C12      CRL2    -0.180000       12.0110           0
     18808 MEMB     155      CHL1     H12A     HGA2     0.900000E-01   1.00800           0
     18809 MEMB     155      CHL1     H12B     HGA2     0.900000E-01   1.00800           0
     18810 MEMB     155      CHL1     C11      CRL2    -0.180000       12.0110           0
     18811 MEMB     155      CHL1     H11A     HGA2     0.900000E-01   1.00800           0
     18812 MEMB     155      CHL1     H11B     HGA2     0.900000E-01   1.00800           0
     18813 MEMB     155      CHL1     C9       CRL1    -0.900000E-01   12.0110           0
     18814 MEMB     155      CHL1     H9       HGA1     0.900000E-01   1.00800           0
     18815 MEMB     155      CHL1     C10      CRL1      0.00000       12.0110           0
     18816 MEMB     155      CHL1     C19      CTL3    -0.270000       12.0110           0
     18817 MEMB     155      CHL1     H19A     HAL3     0.900000E-01   1.00800           0
     18818 MEMB     155      CHL1     H19B     HAL3     0.900000E-01   1.00800           0
     18819 MEMB     155      CHL1     H19C     HAL3     0.900000E-01   1.00800           0
     18820 MEMB     155      CHL1     C1       CRL2    -0.180000       12.0110           0
     18821 MEMB     155      CHL1     H1A      HGA2     0.900000E-01   1.00800           0
     18822 MEMB     155      CHL1     H1B      HGA2     0.900000E-01   1.00800           0
     18823 MEMB     155      CHL1     C2       CRL2    -0.180000       12.0110           0
     18824 MEMB     155      CHL1     H2A      HGA2     0.900000E-01   1.00800           0
     18825 MEMB     155      CHL1     H2B      HGA2     0.900000E-01   1.00800           0
     18826 MEMB     155      CHL1     C20      CTL1    -0.900000E-01   12.0110           0
     18827 MEMB     155      CHL1     H20      HAL1     0.900000E-01   1.00800           0
     18828 MEMB     155      CHL1     C21      CTL3    -0.270000       12.0110           0
     18829 MEMB     155      CHL1     H21A     HAL3     0.900000E-01   1.00800           0
     18830 MEMB     155      CHL1     H21B     HAL3     0.900000E-01   1.00800           0
     18831 MEMB     155      CHL1     H21C     HAL3     0.900000E-01   1.00800           0
     18832 MEMB     155      CHL1     C22      CTL2    -0.180000       12.0110           0
     18833 MEMB     155      CHL1     H22A     HAL2     0.900000E-01   1.00800           0
     18834 MEMB     155      CHL1     H22B     HAL2     0.900000E-01   1.00800           0
     18835 MEMB     155      CHL1     C23      CTL2    -0.180000       12.0110           0
     18836 MEMB     155      CHL1     H23A     HAL2     0.900000E-01   1.00800           0
     18837 MEMB     155      CHL1     H23B     HAL2     0.900000E-01   1.00800           0
     18838 MEMB     155      CHL1     C24      CTL2    -0.180000       12.0110           0
     18839 MEMB     155      CHL1     H24A     HAL2     0.900000E-01   1.00800           0
     18840 MEMB     155      CHL1     H24B     HAL2     0.900000E-01   1.00800           0
     18841 MEMB     155      CHL1     C25      CTL1    -0.900000E-01   12.0110           0
     18842 MEMB     155      CHL1     H25      HAL1     0.900000E-01   1.00800           0
     18843 MEMB     155      CHL1     C26      CTL3    -0.270000       12.0110           0
     18844 MEMB     155      CHL1     H26A     HAL3     0.900000E-01   1.00800           0
     18845 MEMB     155      CHL1     H26B     HAL3     0.900000E-01   1.00800           0
     18846 MEMB     155      CHL1     H26C     HAL3     0.900000E-01   1.00800           0
     18847 MEMB     155      CHL1     C27      CTL3    -0.270000       12.0110           0
     18848 MEMB     155      CHL1     H27A     HAL3     0.900000E-01   1.00800           0
     18849 MEMB     155      CHL1     H27B     HAL3     0.900000E-01   1.00800           0
     18850 MEMB     155      CHL1     H27C     HAL3     0.900000E-01   1.00800           0
     18851 MEMB     156      CHL1     C3       CRL1     0.140000       12.0110           0
     18852 MEMB     156      CHL1     H3       HGA1     0.900000E-01   1.00800           0
     18853 MEMB     156      CHL1     O3       OHL     -0.660000       15.9994           0
     18854 MEMB     156      CHL1     H3'      HOL      0.430000       1.00800           0
     18855 MEMB     156      CHL1     C4       CRL2    -0.180000       12.0110           0
     18856 MEMB     156      CHL1     H4A      HGA2     0.900000E-01   1.00800           0
     18857 MEMB     156      CHL1     H4B      HGA2     0.900000E-01   1.00800           0
     18858 MEMB     156      CHL1     C5       CEL1      0.00000       12.0110           0
     18859 MEMB     156      CHL1     C6       CEL1    -0.150000       12.0110           0
     18860 MEMB     156      CHL1     H6       HEL1     0.150000       1.00800           0
     18861 MEMB     156      CHL1     C7       CRL2    -0.180000       12.0110           0
     18862 MEMB     156      CHL1     H7A      HGA2     0.900000E-01   1.00800           0
     18863 MEMB     156      CHL1     H7B      HGA2     0.900000E-01   1.00800           0
     18864 MEMB     156      CHL1     C8       CRL1    -0.900000E-01   12.0110           0
     18865 MEMB     156      CHL1     H8       HGA1     0.900000E-01   1.00800           0
     18866 MEMB     156      CHL1     C14      CRL1    -0.900000E-01   12.0110           0
     18867 MEMB     156      CHL1     H14      HGA1     0.900000E-01   1.00800           0
     18868 MEMB     156      CHL1     C15      CRL2    -0.180000       12.0110           0
     18869 MEMB     156      CHL1     H15A     HGA2     0.900000E-01   1.00800           0
     18870 MEMB     156      CHL1     H15B     HGA2     0.900000E-01   1.00800           0
     18871 MEMB     156      CHL1     C16      CRL2    -0.180000       12.0110           0
     18872 MEMB     156      CHL1     H16A     HGA2     0.900000E-01   1.00800           0
     18873 MEMB     156      CHL1     H16B     HGA2     0.900000E-01   1.00800           0
     18874 MEMB     156      CHL1     C17      CRL1    -0.900000E-01   12.0110           0
     18875 MEMB     156      CHL1     H17      HGA1     0.900000E-01   1.00800           0
     18876 MEMB     156      CHL1     C13      CRL1      0.00000       12.0110           0
     18877 MEMB     156      CHL1     C18      CTL3    -0.270000       12.0110           0
     18878 MEMB     156      CHL1     H18A     HAL3     0.900000E-01   1.00800           0
     18879 MEMB     156      CHL1     H18B     HAL3     0.900000E-01   1.00800           0
     18880 MEMB     156      CHL1     H18C     HAL3     0.900000E-01   1.00800           0
     18881 MEMB     156      CHL1     C12      CRL2    -0.180000       12.0110           0
     18882 MEMB     156      CHL1     H12A     HGA2     0.900000E-01   1.00800           0
     18883 MEMB     156      CHL1     H12B     HGA2     0.900000E-01   1.00800           0
     18884 MEMB     156      CHL1     C11      CRL2    -0.180000       12.0110           0
     18885 MEMB     156      CHL1     H11A     HGA2     0.900000E-01   1.00800           0
     18886 MEMB     156      CHL1     H11B     HGA2     0.900000E-01   1.00800           0
     18887 MEMB     156      CHL1     C9       CRL1    -0.900000E-01   12.0110           0
     18888 MEMB     156      CHL1     H9       HGA1     0.900000E-01   1.00800           0
     18889 MEMB     156      CHL1     C10      CRL1      0.00000       12.0110           0
     18890 MEMB     156      CHL1     C19      CTL3    -0.270000       12.0110           0
     18891 MEMB     156      CHL1     H19A     HAL3     0.900000E-01   1.00800           0
     18892 MEMB     156      CHL1     H19B     HAL3     0.900000E-01   1.00800           0
     18893 MEMB     156      CHL1     H19C     HAL3     0.900000E-01   1.00800           0
     18894 MEMB     156      CHL1     C1       CRL2    -0.180000       12.0110           0
     18895 MEMB     156      CHL1     H1A      HGA2     0.900000E-01   1.00800           0
     18896 MEMB     156      CHL1     H1B      HGA2     0.900000E-01   1.00800           0
     18897 MEMB     156      CHL1     C2       CRL2    -0.180000       12.0110           0
     18898 MEMB     156      CHL1     H2A      HGA2     0.900000E-01   1.00800           0
     18899 MEMB     156      CHL1     H2B      HGA2     0.900000E-01   1.00800           0
     18900 MEMB     156      CHL1     C20      CTL1    -0.900000E-01   12.0110           0
     18901 MEMB     156      CHL1     H20      HAL1     0.900000E-01   1.00800           0
     18902 MEMB     156      CHL1     C21      CTL3    -0.270000       12.0110           0
     18903 MEMB     156      CHL1     H21A     HAL3     0.900000E-01   1.00800           0
     18904 MEMB     156      CHL1     H21B     HAL3     0.900000E-01   1.00800           0
     18905 MEMB     156      CHL1     H21C     HAL3     0.900000E-01   1.00800           0
     18906 MEMB     156      CHL1     C22      CTL2    -0.180000       12.0110           0
     18907 MEMB     156      CHL1     H22A     HAL2     0.900000E-01   1.00800           0
     18908 MEMB     156      CHL1     H22B     HAL2     0.900000E-01   1.00800           0
     18909 MEMB     156      CHL1     C23      CTL2    -0.180000       12.0110           0
     18910 MEMB     156      CHL1     H23A     HAL2     0.900000E-01   1.00800           0
     18911 MEMB     156      CHL1     H23B     HAL2     0.900000E-01   1.00800           0
     18912 MEMB     156      CHL1     C24      CTL2    -0.180000       12.0110           0
     18913 MEMB     156      CHL1     H24A     HAL2     0.900000E-01   1.00800           0
     18914 MEMB     156      CHL1     H24B     HAL2     0.900000E-01   1.00800           0
     18915 MEMB     156      CHL1     C25      CTL1    -0.900000E-01   12.0110           0
     18916 MEMB     156      CHL1     H25      HAL1     0.900000E-01   1.00800           0
     18917 MEMB     156      CHL1     C26      CTL3    -0.270000       12.0110           0
     18918 MEMB     156      CHL1     H26A     HAL3     0.900000E-01   1.00800           0
     18919 MEMB     156      CHL1     H26B     HAL3     0.900000E-01   1.00800           0
     18920 MEMB     156      CHL1     H26C     HAL3     0.900000E-01   1.00800           0
     18921 MEMB     156      CHL1     C27      CTL3    -0.270000       12.0110           0
     18922 MEMB     156      CHL1     H27A     HAL3     0.900000E-01   1.00800           0
     18923 MEMB     156      CHL1     H27B     HAL3     0.900000E-01   1.00800           0
     18924 MEMB     156      CHL1     H27C     HAL3     0.900000E-01   1.00800           0
     18925 MEMB     157      CHL1     C3       CRL1     0.140000       12.0110           0
     18926 MEMB     157      CHL1     H3       HGA1     0.900000E-01   1.00800           0
     18927 MEMB     157      CHL1     O3       OHL     -0.660000       15.9994           0
     18928 MEMB     157      CHL1     H3'      HOL      0.430000       1.00800           0
     18929 MEMB     157      CHL1     C4       CRL2    -0.180000       12.0110           0
     18930 MEMB     157      CHL1     H4A      HGA2     0.900000E-01   1.00800           0
     18931 MEMB     157      CHL1     H4B      HGA2     0.900000E-01   1.00800           0
     18932 MEMB     157      CHL1     C5       CEL1      0.00000       12.0110           0
     18933 MEMB     157      CHL1     C6       CEL1    -0.150000       12.0110           0
     18934 MEMB     157      CHL1     H6       HEL1     0.150000       1.00800           0
     18935 MEMB     157      CHL1     C7       CRL2    -0.180000       12.0110           0
     18936 MEMB     157      CHL1     H7A      HGA2     0.900000E-01   1.00800           0
     18937 MEMB     157      CHL1     H7B      HGA2     0.900000E-01   1.00800           0
     18938 MEMB     157      CHL1     C8       CRL1    -0.900000E-01   12.0110           0
     18939 MEMB     157      CHL1     H8       HGA1     0.900000E-01   1.00800           0
     18940 MEMB     157      CHL1     C14      CRL1    -0.900000E-01   12.0110           0
     18941 MEMB     157      CHL1     H14      HGA1     0.900000E-01   1.00800           0
     18942 MEMB     157      CHL1     C15      CRL2    -0.180000       12.0110           0
     18943 MEMB     157      CHL1     H15A     HGA2     0.900000E-01   1.00800           0
     18944 MEMB     157      CHL1     H15B     HGA2     0.900000E-01   1.00800           0
     18945 MEMB     157      CHL1     C16      CRL2    -0.180000       12.0110           0
     18946 MEMB     157      CHL1     H16A     HGA2     0.900000E-01   1.00800           0
     18947 MEMB     157      CHL1     H16B     HGA2     0.900000E-01   1.00800           0
     18948 MEMB     157      CHL1     C17      CRL1    -0.900000E-01   12.0110           0
     18949 MEMB     157      CHL1     H17      HGA1     0.900000E-01   1.00800           0
     18950 MEMB     157      CHL1     C13      CRL1      0.00000       12.0110           0
     18951 MEMB     157      CHL1     C18      CTL3    -0.270000       12.0110           0
     18952 MEMB     157      CHL1     H18A     HAL3     0.900000E-01   1.00800           0
     18953 MEMB     157      CHL1     H18B     HAL3     0.900000E-01   1.00800           0
     18954 MEMB     157      CHL1     H18C     HAL3     0.900000E-01   1.00800           0
     18955 MEMB     157      CHL1     C12      CRL2    -0.180000       12.0110           0
     18956 MEMB     157      CHL1     H12A     HGA2     0.900000E-01   1.00800           0
     18957 MEMB     157      CHL1     H12B     HGA2     0.900000E-01   1.00800           0
     18958 MEMB     157      CHL1     C11      CRL2    -0.180000       12.0110           0
     18959 MEMB     157      CHL1     H11A     HGA2     0.900000E-01   1.00800           0
     18960 MEMB     157      CHL1     H11B     HGA2     0.900000E-01   1.00800           0
     18961 MEMB     157      CHL1     C9       CRL1    -0.900000E-01   12.0110           0
     18962 MEMB     157      CHL1     H9       HGA1     0.900000E-01   1.00800           0
     18963 MEMB     157      CHL1     C10      CRL1      0.00000       12.0110           0
     18964 MEMB     157      CHL1     C19      CTL3    -0.270000       12.0110           0
     18965 MEMB     157      CHL1     H19A     HAL3     0.900000E-01   1.00800           0
     18966 MEMB     157      CHL1     H19B     HAL3     0.900000E-01   1.00800           0
     18967 MEMB     157      CHL1     H19C     HAL3     0.900000E-01   1.00800           0
     18968 MEMB     157      CHL1     C1       CRL2    -0.180000       12.0110           0
     18969 MEMB     157      CHL1     H1A      HGA2     0.900000E-01   1.00800           0
     18970 MEMB     157      CHL1     H1B      HGA2     0.900000E-01   1.00800           0
     18971 MEMB     157      CHL1     C2       CRL2    -0.180000       12.0110           0
     18972 MEMB     157      CHL1     H2A      HGA2     0.900000E-01   1.00800           0
     18973 MEMB     157      CHL1     H2B      HGA2     0.900000E-01   1.00800           0
     18974 MEMB     157      CHL1     C20      CTL1    -0.900000E-01   12.0110           0
     18975 MEMB     157      CHL1     H20      HAL1     0.900000E-01   1.00800           0
     18976 MEMB     157      CHL1     C21      CTL3    -0.270000       12.0110           0
     18977 MEMB     157      CHL1     H21A     HAL3     0.900000E-01   1.00800           0
     18978 MEMB     157      CHL1     H21B     HAL3     0.900000E-01   1.00800           0
     18979 MEMB     157      CHL1     H21C     HAL3     0.900000E-01   1.00800           0
     18980 MEMB     157      CHL1     C22      CTL2    -0.180000       12.0110           0
     18981 MEMB     157      CHL1     H22A     HAL2     0.900000E-01   1.00800           0
     18982 MEMB     157      CHL1     H22B     HAL2     0.900000E-01   1.00800           0
     18983 MEMB     157      CHL1     C23      CTL2    -0.180000       12.0110           0
     18984 MEMB     157      CHL1     H23A     HAL2     0.900000E-01   1.00800           0
     18985 MEMB     157      CHL1     H23B     HAL2     0.900000E-01   1.00800           0
     18986 MEMB     157      CHL1     C24      CTL2    -0.180000       12.0110           0
     18987 MEMB     157      CHL1     H24A     HAL2     0.900000E-01   1.00800           0
     18988 MEMB     157      CHL1     H24B     HAL2     0.900000E-01   1.00800           0
     18989 MEMB     157      CHL1     C25      CTL1    -0.900000E-01   12.0110           0
     18990 MEMB     157      CHL1     H25      HAL1     0.900000E-01   1.00800           0
     18991 MEMB     157      CHL1     C26      CTL3    -0.270000       12.0110           0
     18992 MEMB     157      CHL1     H26A     HAL3     0.900000E-01   1.00800           0
     18993 MEMB     157      CHL1     H26B     HAL3     0.900000E-01   1.00800           0
     18994 MEMB     157      CHL1     H26C     HAL3     0.900000E-01   1.00800           0
     18995 MEMB     157      CHL1     C27      CTL3    -0.270000       12.0110           0
     18996 MEMB     157      CHL1     H27A     HAL3     0.900000E-01   1.00800           0
     18997 MEMB     157      CHL1     H27B     HAL3     0.900000E-01   1.00800           0
     18998 MEMB     157      CHL1     H27C     HAL3     0.900000E-01   1.00800           0
     18999 MEMB     158      CHL1     C3       CRL1     0.140000       12.0110           0
     19000 MEMB     158      CHL1     H3       HGA1     0.900000E-01   1.00800           0
     19001 MEMB     158      CHL1     O3       OHL     -0.660000       15.9994           0
     19002 MEMB     158      CHL1     H3'      HOL      0.430000       1.00800           0
     19003 MEMB     158      CHL1     C4       CRL2    -0.180000       12.0110           0
     19004 MEMB     158      CHL1     H4A      HGA2     0.900000E-01   1.00800           0
     19005 MEMB     158      CHL1     H4B      HGA2     0.900000E-01   1.00800           0
     19006 MEMB     158      CHL1     C5       CEL1      0.00000       12.0110           0
     19007 MEMB     158      CHL1     C6       CEL1    -0.150000       12.0110           0
     19008 MEMB     158      CHL1     H6       HEL1     0.150000       1.00800           0
     19009 MEMB     158      CHL1     C7       CRL2    -0.180000       12.0110           0
     19010 MEMB     158      CHL1     H7A      HGA2     0.900000E-01   1.00800           0
     19011 MEMB     158      CHL1     H7B      HGA2     0.900000E-01   1.00800           0
     19012 MEMB     158      CHL1     C8       CRL1    -0.900000E-01   12.0110           0
     19013 MEMB     158      CHL1     H8       HGA1     0.900000E-01   1.00800           0
     19014 MEMB     158      CHL1     C14      CRL1    -0.900000E-01   12.0110           0
     19015 MEMB     158      CHL1     H14      HGA1     0.900000E-01   1.00800           0
     19016 MEMB     158      CHL1     C15      CRL2    -0.180000       12.0110           0
     19017 MEMB     158      CHL1     H15A     HGA2     0.900000E-01   1.00800           0
     19018 MEMB     158      CHL1     H15B     HGA2     0.900000E-01   1.00800           0
     19019 MEMB     158      CHL1     C16      CRL2    -0.180000       12.0110           0
     19020 MEMB     158      CHL1     H16A     HGA2     0.900000E-01   1.00800           0
     19021 MEMB     158      CHL1     H16B     HGA2     0.900000E-01   1.00800           0
     19022 MEMB     158      CHL1     C17      CRL1    -0.900000E-01   12.0110           0
     19023 MEMB     158      CHL1     H17      HGA1     0.900000E-01   1.00800           0
     19024 MEMB     158      CHL1     C13      CRL1      0.00000       12.0110           0
     19025 MEMB     158      CHL1     C18      CTL3    -0.270000       12.0110           0
     19026 MEMB     158      CHL1     H18A     HAL3     0.900000E-01   1.00800           0
     19027 MEMB     158      CHL1     H18B     HAL3     0.900000E-01   1.00800           0
     19028 MEMB     158      CHL1     H18C     HAL3     0.900000E-01   1.00800           0
     19029 MEMB     158      CHL1     C12      CRL2    -0.180000       12.0110           0
     19030 MEMB     158      CHL1     H12A     HGA2     0.900000E-01   1.00800           0
     19031 MEMB     158      CHL1     H12B     HGA2     0.900000E-01   1.00800           0
     19032 MEMB     158      CHL1     C11      CRL2    -0.180000       12.0110           0
     19033 MEMB     158      CHL1     H11A     HGA2     0.900000E-01   1.00800           0
     19034 MEMB     158      CHL1     H11B     HGA2     0.900000E-01   1.00800           0
     19035 MEMB     158      CHL1     C9       CRL1    -0.900000E-01   12.0110           0
     19036 MEMB     158      CHL1     H9       HGA1     0.900000E-01   1.00800           0
     19037 MEMB     158      CHL1     C10      CRL1      0.00000       12.0110           0
     19038 MEMB     158      CHL1     C19      CTL3    -0.270000       12.0110           0
     19039 MEMB     158      CHL1     H19A     HAL3     0.900000E-01   1.00800           0
     19040 MEMB     158      CHL1     H19B     HAL3     0.900000E-01   1.00800           0
     19041 MEMB     158      CHL1     H19C     HAL3     0.900000E-01   1.00800           0
     19042 MEMB     158      CHL1     C1       CRL2    -0.180000       12.0110           0
     19043 MEMB     158      CHL1     H1A      HGA2     0.900000E-01   1.00800           0
     19044 MEMB     158      CHL1     H1B      HGA2     0.900000E-01   1.00800           0
     19045 MEMB     158      CHL1     C2       CRL2    -0.180000       12.0110           0
     19046 MEMB     158      CHL1     H2A      HGA2     0.900000E-01   1.00800           0
     19047 MEMB     158      CHL1     H2B      HGA2     0.900000E-01   1.00800           0
     19048 MEMB     158      CHL1     C20      CTL1    -0.900000E-01   12.0110           0
     19049 MEMB     158      CHL1     H20      HAL1     0.900000E-01   1.00800           0
     19050 MEMB     158      CHL1     C21      CTL3    -0.270000       12.0110           0
     19051 MEMB     158      CHL1     H21A     HAL3     0.900000E-01   1.00800           0
     19052 MEMB     158      CHL1     H21B     HAL3     0.900000E-01   1.00800           0
     19053 MEMB     158      CHL1     H21C     HAL3     0.900000E-01   1.00800           0
     19054 MEMB     158      CHL1     C22      CTL2    -0.180000       12.0110           0
     19055 MEMB     158      CHL1     H22A     HAL2     0.900000E-01   1.00800           0
     19056 MEMB     158      CHL1     H22B     HAL2     0.900000E-01   1.00800           0
     19057 MEMB     158      CHL1     C23      CTL2    -0.180000       12.0110           0
     19058 MEMB     158      CHL1     H23A     HAL2     0.900000E-01   1.00800           0
     19059 MEMB     158      CHL1     H23B     HAL2     0.900000E-01   1.00800           0
     19060 MEMB     158      CHL1     C24      CTL2    -0.180000       12.0110           0
     19061 MEMB     158      CHL1     H24A     HAL2     0.900000E-01   1.00800           0
     19062 MEMB     158      CHL1     H24B     HAL2     0.900000E-01   1.00800           0
     19063 MEMB     158      CHL1     C25      CTL1    -0.900000E-01   12.0110           0
     19064 MEMB     158      CHL1     H25      HAL1     0.900000E-01   1.00800           0
     19065 MEMB     158      CHL1     C26      CTL3    -0.270000       12.0110           0
     19066 MEMB     158      CHL1     H26A     HAL3     0.900000E-01   1.00800           0
     19067 MEMB     158      CHL1     H26B     HAL3     0.900000E-01   1.00800           0
     19068 MEMB     158      CHL1     H26C     HAL3     0.900000E-01   1.00800           0
     19069 MEMB     158      CHL1     C27      CTL3    -0.270000       12.0110           0
     19070 MEMB     158      CHL1     H27A     HAL3     0.900000E-01   1.00800           0
     19071 MEMB     158      CHL1     H27B     HAL3     0.900000E-01   1.00800           0
     19072 MEMB     158      CHL1     H27C     HAL3     0.900000E-01   1.00800           0
     19073 MEMB     159      CHL1     C3       CRL1     0.140000       12.0110           0
     19074 MEMB     159      CHL1     H3       HGA1     0.900000E-01   1.00800           0
     19075 MEMB     159      CHL1     O3       OHL     -0.660000       15.9994           0
     19076 MEMB     159      CHL1     H3'      HOL      0.430000       1.00800           0
     19077 MEMB     159      CHL1     C4       CRL2    -0.180000       12.0110           0
     19078 MEMB     159      CHL1     H4A      HGA2     0.900000E-01   1.00800           0
     19079 MEMB     159      CHL1     H4B      HGA2     0.900000E-01   1.00800           0
     19080 MEMB     159      CHL1     C5       CEL1      0.00000       12.0110           0
     19081 MEMB     159      CHL1     C6       CEL1    -0.150000       12.0110           0
     19082 MEMB     159      CHL1     H6       HEL1     0.150000       1.00800           0
     19083 MEMB     159      CHL1     C7       CRL2    -0.180000       12.0110           0
     19084 MEMB     159      CHL1     H7A      HGA2     0.900000E-01   1.00800           0
     19085 MEMB     159      CHL1     H7B      HGA2     0.900000E-01   1.00800           0
     19086 MEMB     159      CHL1     C8       CRL1    -0.900000E-01   12.0110           0
     19087 MEMB     159      CHL1     H8       HGA1     0.900000E-01   1.00800           0
     19088 MEMB     159      CHL1     C14      CRL1    -0.900000E-01   12.0110           0
     19089 MEMB     159      CHL1     H14      HGA1     0.900000E-01   1.00800           0
     19090 MEMB     159      CHL1     C15      CRL2    -0.180000       12.0110           0
     19091 MEMB     159      CHL1     H15A     HGA2     0.900000E-01   1.00800           0
     19092 MEMB     159      CHL1     H15B     HGA2     0.900000E-01   1.00800           0
     19093 MEMB     159      CHL1     C16      CRL2    -0.180000       12.0110           0
     19094 MEMB     159      CHL1     H16A     HGA2     0.900000E-01   1.00800           0
     19095 MEMB     159      CHL1     H16B     HGA2     0.900000E-01   1.00800           0
     19096 MEMB     159      CHL1     C17      CRL1    -0.900000E-01   12.0110           0
     19097 MEMB     159      CHL1     H17      HGA1     0.900000E-01   1.00800           0
     19098 MEMB     159      CHL1     C13      CRL1      0.00000       12.0110           0
     19099 MEMB     159      CHL1     C18      CTL3    -0.270000       12.0110           0
     19100 MEMB     159      CHL1     H18A     HAL3     0.900000E-01   1.00800           0
     19101 MEMB     159      CHL1     H18B     HAL3     0.900000E-01   1.00800           0
     19102 MEMB     159      CHL1     H18C     HAL3     0.900000E-01   1.00800           0
     19103 MEMB     159      CHL1     C12      CRL2    -0.180000       12.0110           0
     19104 MEMB     159      CHL1     H12A     HGA2     0.900000E-01   1.00800           0
     19105 MEMB     159      CHL1     H12B     HGA2     0.900000E-01   1.00800           0
     19106 MEMB     159      CHL1     C11      CRL2    -0.180000       12.0110           0
     19107 MEMB     159      CHL1     H11A     HGA2     0.900000E-01   1.00800           0
     19108 MEMB     159      CHL1     H11B     HGA2     0.900000E-01   1.00800           0
     19109 MEMB     159      CHL1     C9       CRL1    -0.900000E-01   12.0110           0
     19110 MEMB     159      CHL1     H9       HGA1     0.900000E-01   1.00800           0
     19111 MEMB     159      CHL1     C10      CRL1      0.00000       12.0110           0
     19112 MEMB     159      CHL1     C19      CTL3    -0.270000       12.0110           0
     19113 MEMB     159      CHL1     H19A     HAL3     0.900000E-01   1.00800           0
     19114 MEMB     159      CHL1     H19B     HAL3     0.900000E-01   1.00800           0
     19115 MEMB     159      CHL1     H19C     HAL3     0.900000E-01   1.00800           0
     19116 MEMB     159      CHL1     C1       CRL2    -0.180000       12.0110           0
     19117 MEMB     159      CHL1     H1A      HGA2     0.900000E-01   1.00800           0
     19118 MEMB     159      CHL1     H1B      HGA2     0.900000E-01   1.00800           0
     19119 MEMB     159      CHL1     C2       CRL2    -0.180000       12.0110           0
     19120 MEMB     159      CHL1     H2A      HGA2     0.900000E-01   1.00800           0
     19121 MEMB     159      CHL1     H2B      HGA2     0.900000E-01   1.00800           0
     19122 MEMB     159      CHL1     C20      CTL1    -0.900000E-01   12.0110           0
     19123 MEMB     159      CHL1     H20      HAL1     0.900000E-01   1.00800           0
     19124 MEMB     159      CHL1     C21      CTL3    -0.270000       12.0110           0
     19125 MEMB     159      CHL1     H21A     HAL3     0.900000E-01   1.00800           0
     19126 MEMB     159      CHL1     H21B     HAL3     0.900000E-01   1.00800           0
     19127 MEMB     159      CHL1     H21C     HAL3     0.900000E-01   1.00800           0
     19128 MEMB     159      CHL1     C22      CTL2    -0.180000       12.0110           0
     19129 MEMB     159      CHL1     H22A     HAL2     0.900000E-01   1.00800           0
     19130 MEMB     159      CHL1     H22B     HAL2     0.900000E-01   1.00800           0
     19131 MEMB     159      CHL1     C23      CTL2    -0.180000       12.0110           0
     19132 MEMB     159      CHL1     H23A     HAL2     0.900000E-01   1.00800           0
     19133 MEMB     159      CHL1     H23B     HAL2     0.900000E-01   1.00800           0
     19134 MEMB     159      CHL1     C24      CTL2    -0.180000       12.0110           0
     19135 MEMB     159      CHL1     H24A     HAL2     0.900000E-01   1.00800           0
     19136 MEMB     159      CHL1     H24B     HAL2     0.900000E-01   1.00800           0
     19137 MEMB     159      CHL1     C25      CTL1    -0.900000E-01   12.0110           0
     19138 MEMB     159      CHL1     H25      HAL1     0.900000E-01   1.00800           0
     19139 MEMB     159      CHL1     C26      CTL3    -0.270000       12.0110           0
     19140 MEMB     159      CHL1     H26A     HAL3     0.900000E-01   1.00800           0
     19141 MEMB     159      CHL1     H26B     HAL3     0.900000E-01   1.00800           0
     19142 MEMB     159      CHL1     H26C     HAL3     0.900000E-01   1.00800           0
     19143 MEMB     159      CHL1     C27      CTL3    -0.270000       12.0110           0
     19144 MEMB     159      CHL1     H27A     HAL3     0.900000E-01   1.00800           0
     19145 MEMB     159      CHL1     H27B     HAL3     0.900000E-01   1.00800           0
     19146 MEMB     159      CHL1     H27C     HAL3     0.900000E-01   1.00800           0
     19147 MEMB     160      CHL1     C3       CRL1     0.140000       12.0110           0
     19148 MEMB     160      CHL1     H3       HGA1     0.900000E-01   1.00800           0
     19149 MEMB     160      CHL1     O3       OHL     -0.660000       15.9994           0
     19150 MEMB     160      CHL1     H3'      HOL      0.430000       1.00800           0
     19151 MEMB     160      CHL1     C4       CRL2    -0.180000       12.0110           0
     19152 MEMB     160      CHL1     H4A      HGA2     0.900000E-01   1.00800           0
     19153 MEMB     160      CHL1     H4B      HGA2     0.900000E-01   1.00800           0
     19154 MEMB     160      CHL1     C5       CEL1      0.00000       12.0110           0
     19155 MEMB     160      CHL1     C6       CEL1    -0.150000       12.0110           0
     19156 MEMB     160      CHL1     H6       HEL1     0.150000       1.00800           0
     19157 MEMB     160      CHL1     C7       CRL2    -0.180000       12.0110           0
     19158 MEMB     160      CHL1     H7A      HGA2     0.900000E-01   1.00800           0
     19159 MEMB     160      CHL1     H7B      HGA2     0.900000E-01   1.00800           0
     19160 MEMB     160      CHL1     C8       CRL1    -0.900000E-01   12.0110           0
     19161 MEMB     160      CHL1     H8       HGA1     0.900000E-01   1.00800           0
     19162 MEMB     160      CHL1     C14      CRL1    -0.900000E-01   12.0110           0
     19163 MEMB     160      CHL1     H14      HGA1     0.900000E-01   1.00800           0
     19164 MEMB     160      CHL1     C15      CRL2    -0.180000       12.0110           0
     19165 MEMB     160      CHL1     H15A     HGA2     0.900000E-01   1.00800           0
     19166 MEMB     160      CHL1     H15B     HGA2     0.900000E-01   1.00800           0
     19167 MEMB     160      CHL1     C16      CRL2    -0.180000       12.0110           0
     19168 MEMB     160      CHL1     H16A     HGA2     0.900000E-01   1.00800           0
     19169 MEMB     160      CHL1     H16B     HGA2     0.900000E-01   1.00800           0
     19170 MEMB     160      CHL1     C17      CRL1    -0.900000E-01   12.0110           0
     19171 MEMB     160      CHL1     H17      HGA1     0.900000E-01   1.00800           0
     19172 MEMB     160      CHL1     C13      CRL1      0.00000       12.0110           0
     19173 MEMB     160      CHL1     C18      CTL3    -0.270000       12.0110           0
     19174 MEMB     160      CHL1     H18A     HAL3     0.900000E-01   1.00800           0
     19175 MEMB     160      CHL1     H18B     HAL3     0.900000E-01   1.00800           0
     19176 MEMB     160      CHL1     H18C     HAL3     0.900000E-01   1.00800           0
     19177 MEMB     160      CHL1     C12      CRL2    -0.180000       12.0110           0
     19178 MEMB     160      CHL1     H12A     HGA2     0.900000E-01   1.00800           0
     19179 MEMB     160      CHL1     H12B     HGA2     0.900000E-01   1.00800           0
     19180 MEMB     160      CHL1     C11      CRL2    -0.180000       12.0110           0
     19181 MEMB     160      CHL1     H11A     HGA2     0.900000E-01   1.00800           0
     19182 MEMB     160      CHL1     H11B     HGA2     0.900000E-01   1.00800           0
     19183 MEMB     160      CHL1     C9       CRL1    -0.900000E-01   12.0110           0
     19184 MEMB     160      CHL1     H9       HGA1     0.900000E-01   1.00800           0
     19185 MEMB     160      CHL1     C10      CRL1      0.00000       12.0110           0
     19186 MEMB     160      CHL1     C19      CTL3    -0.270000       12.0110           0
     19187 MEMB     160      CHL1     H19A     HAL3     0.900000E-01   1.00800           0
     19188 MEMB     160      CHL1     H19B     HAL3     0.900000E-01   1.00800           0
     19189 MEMB     160      CHL1     H19C     HAL3     0.900000E-01   1.00800           0
     19190 MEMB     160      CHL1     C1       CRL2    -0.180000       12.0110           0
     19191 MEMB     160      CHL1     H1A      HGA2     0.900000E-01   1.00800           0
     19192 MEMB     160      CHL1     H1B      HGA2     0.900000E-01   1.00800           0
     19193 MEMB     160      CHL1     C2       CRL2    -0.180000       12.0110           0
     19194 MEMB     160      CHL1     H2A      HGA2     0.900000E-01   1.00800           0
     19195 MEMB     160      CHL1     H2B      HGA2     0.900000E-01   1.00800           0
     19196 MEMB     160      CHL1     C20      CTL1    -0.900000E-01   12.0110           0
     19197 MEMB     160      CHL1     H20      HAL1     0.900000E-01   1.00800           0
     19198 MEMB     160      CHL1     C21      CTL3    -0.270000       12.0110           0
     19199 MEMB     160      CHL1     H21A     HAL3     0.900000E-01   1.00800           0
     19200 MEMB     160      CHL1     H21B     HAL3     0.900000E-01   1.00800           0
     19201 MEMB     160      CHL1     H21C     HAL3     0.900000E-01   1.00800           0
     19202 MEMB     160      CHL1     C22      CTL2    -0.180000       12.0110           0
     19203 MEMB     160      CHL1     H22A     HAL2     0.900000E-01   1.00800           0
     19204 MEMB     160      CHL1     H22B     HAL2     0.900000E-01   1.00800           0
     19205 MEMB     160      CHL1     C23      CTL2    -0.180000       12.0110           0
     19206 MEMB     160      CHL1     H23A     HAL2     0.900000E-01   1.00800           0
     19207 MEMB     160      CHL1     H23B     HAL2     0.900000E-01   1.00800           0
     19208 MEMB     160      CHL1     C24      CTL2    -0.180000       12.0110           0
     19209 MEMB     160      CHL1     H24A     HAL2     0.900000E-01   1.00800           0
     19210 MEMB     160      CHL1     H24B     HAL2     0.900000E-01   1.00800           0
     19211 MEMB     160      CHL1     C25      CTL1    -0.900000E-01   12.0110           0
     19212 MEMB     160      CHL1     H25      HAL1     0.900000E-01   1.00800           0
     19213 MEMB     160      CHL1     C26      CTL3    -0.270000       12.0110           0
     19214 MEMB     160      CHL1     H26A     HAL3     0.900000E-01   1.00800           0
     19215 MEMB     160      CHL1     H26B     HAL3     0.900000E-01   1.00800           0
     19216 MEMB     160      CHL1     H26C     HAL3     0.900000E-01   1.00800           0
     19217 MEMB     160      CHL1     C27      CTL3    -0.270000       12.0110           0
     19218 MEMB     160      CHL1     H27A     HAL3     0.900000E-01   1.00800           0
     19219 MEMB     160      CHL1     H27B     HAL3     0.900000E-01   1.00800           0
     19220 MEMB     160      CHL1     H27C     HAL3     0.900000E-01   1.00800           0
     19221 MEMB     161      CHL1     C3       CRL1     0.140000       12.0110           0
     19222 MEMB     161      CHL1     H3       HGA1     0.900000E-01   1.00800           0
     19223 MEMB     161      CHL1     O3       OHL     -0.660000       15.9994           0
     19224 MEMB     161      CHL1     H3'      HOL      0.430000       1.00800           0
     19225 MEMB     161      CHL1     C4       CRL2    -0.180000       12.0110           0
     19226 MEMB     161      CHL1     H4A      HGA2     0.900000E-01   1.00800           0
     19227 MEMB     161      CHL1     H4B      HGA2     0.900000E-01   1.00800           0
     19228 MEMB     161      CHL1     C5       CEL1      0.00000       12.0110           0
     19229 MEMB     161      CHL1     C6       CEL1    -0.150000       12.0110           0
     19230 MEMB     161      CHL1     H6       HEL1     0.150000       1.00800           0
     19231 MEMB     161      CHL1     C7       CRL2    -0.180000       12.0110           0
     19232 MEMB     161      CHL1     H7A      HGA2     0.900000E-01   1.00800           0
     19233 MEMB     161      CHL1     H7B      HGA2     0.900000E-01   1.00800           0
     19234 MEMB     161      CHL1     C8       CRL1    -0.900000E-01   12.0110           0
     19235 MEMB     161      CHL1     H8       HGA1     0.900000E-01   1.00800           0
     19236 MEMB     161      CHL1     C14      CRL1    -0.900000E-01   12.0110           0
     19237 MEMB     161      CHL1     H14      HGA1     0.900000E-01   1.00800           0
     19238 MEMB     161      CHL1     C15      CRL2    -0.180000       12.0110           0
     19239 MEMB     161      CHL1     H15A     HGA2     0.900000E-01   1.00800           0
     19240 MEMB     161      CHL1     H15B     HGA2     0.900000E-01   1.00800           0
     19241 MEMB     161      CHL1     C16      CRL2    -0.180000       12.0110           0
     19242 MEMB     161      CHL1     H16A     HGA2     0.900000E-01   1.00800           0
     19243 MEMB     161      CHL1     H16B     HGA2     0.900000E-01   1.00800           0
     19244 MEMB     161      CHL1     C17      CRL1    -0.900000E-01   12.0110           0
     19245 MEMB     161      CHL1     H17      HGA1     0.900000E-01   1.00800           0
     19246 MEMB     161      CHL1     C13      CRL1      0.00000       12.0110           0
     19247 MEMB     161      CHL1     C18      CTL3    -0.270000       12.0110           0
     19248 MEMB     161      CHL1     H18A     HAL3     0.900000E-01   1.00800           0
     19249 MEMB     161      CHL1     H18B     HAL3     0.900000E-01   1.00800           0
     19250 MEMB     161      CHL1     H18C     HAL3     0.900000E-01   1.00800           0
     19251 MEMB     161      CHL1     C12      CRL2    -0.180000       12.0110           0
     19252 MEMB     161      CHL1     H12A     HGA2     0.900000E-01   1.00800           0
     19253 MEMB     161      CHL1     H12B     HGA2     0.900000E-01   1.00800           0
     19254 MEMB     161      CHL1     C11      CRL2    -0.180000       12.0110           0
     19255 MEMB     161      CHL1     H11A     HGA2     0.900000E-01   1.00800           0
     19256 MEMB     161      CHL1     H11B     HGA2     0.900000E-01   1.00800           0
     19257 MEMB     161      CHL1     C9       CRL1    -0.900000E-01   12.0110           0
     19258 MEMB     161      CHL1     H9       HGA1     0.900000E-01   1.00800           0
     19259 MEMB     161      CHL1     C10      CRL1      0.00000       12.0110           0
     19260 MEMB     161      CHL1     C19      CTL3    -0.270000       12.0110           0
     19261 MEMB     161      CHL1     H19A     HAL3     0.900000E-01   1.00800           0
     19262 MEMB     161      CHL1     H19B     HAL3     0.900000E-01   1.00800           0
     19263 MEMB     161      CHL1     H19C     HAL3     0.900000E-01   1.00800           0
     19264 MEMB     161      CHL1     C1       CRL2    -0.180000       12.0110           0
     19265 MEMB     161      CHL1     H1A      HGA2     0.900000E-01   1.00800           0
     19266 MEMB     161      CHL1     H1B      HGA2     0.900000E-01   1.00800           0
     19267 MEMB     161      CHL1     C2       CRL2    -0.180000       12.0110           0
     19268 MEMB     161      CHL1     H2A      HGA2     0.900000E-01   1.00800           0
     19269 MEMB     161      CHL1     H2B      HGA2     0.900000E-01   1.00800           0
     19270 MEMB     161      CHL1     C20      CTL1    -0.900000E-01   12.0110           0
     19271 MEMB     161      CHL1     H20      HAL1     0.900000E-01   1.00800           0
     19272 MEMB     161      CHL1     C21      CTL3    -0.270000       12.0110           0
     19273 MEMB     161      CHL1     H21A     HAL3     0.900000E-01   1.00800           0
     19274 MEMB     161      CHL1     H21B     HAL3     0.900000E-01   1.00800           0
     19275 MEMB     161      CHL1     H21C     HAL3     0.900000E-01   1.00800           0
     19276 MEMB     161      CHL1     C22      CTL2    -0.180000       12.0110           0
     19277 MEMB     161      CHL1     H22A     HAL2     0.900000E-01   1.00800           0
     19278 MEMB     161      CHL1     H22B     HAL2     0.900000E-01   1.00800           0
     19279 MEMB     161      CHL1     C23      CTL2    -0.180000       12.0110           0
     19280 MEMB     161      CHL1     H23A     HAL2     0.900000E-01   1.00800           0
     19281 MEMB     161      CHL1     H23B     HAL2     0.900000E-01   1.00800           0
     19282 MEMB     161      CHL1     C24      CTL2    -0.180000       12.0110           0
     19283 MEMB     161      CHL1     H24A     HAL2     0.900000E-01   1.00800           0
     19284 MEMB     161      CHL1     H24B     HAL2     0.900000E-01   1.00800           0
     19285 MEMB     161      CHL1     C25      CTL1    -0.900000E-01   12.0110           0
     19286 MEMB     161      CHL1     H25      HAL1     0.900000E-01   1.00800           0
     19287 MEMB     161      CHL1     C26      CTL3    -0.270000       12.0110           0
     19288 MEMB     161      CHL1     H26A     HAL3     0.900000E-01   1.00800           0
     19289 MEMB     161      CHL1     H26B     HAL3     0.900000E-01   1.00800           0
     19290 MEMB     161      CHL1     H26C     HAL3     0.900000E-01   1.00800           0
     19291 MEMB     161      CHL1     C27      CTL3    -0.270000       12.0110           0
     19292 MEMB     161      CHL1     H27A     HAL3     0.900000E-01   1.00800           0
     19293 MEMB     161      CHL1     H27B     HAL3     0.900000E-01   1.00800           0
     19294 MEMB     161      CHL1     H27C     HAL3     0.900000E-01   1.00800           0
     19295 MEMB     162      CHL1     C3       CRL1     0.140000       12.0110           0
     19296 MEMB     162      CHL1     H3       HGA1     0.900000E-01   1.00800           0
     19297 MEMB     162      CHL1     O3       OHL     -0.660000       15.9994           0
     19298 MEMB     162      CHL1     H3'      HOL      0.430000       1.00800           0
     19299 MEMB     162      CHL1     C4       CRL2    -0.180000       12.0110           0
     19300 MEMB     162      CHL1     H4A      HGA2     0.900000E-01   1.00800           0
     19301 MEMB     162      CHL1     H4B      HGA2     0.900000E-01   1.00800           0
     19302 MEMB     162      CHL1     C5       CEL1      0.00000       12.0110           0
     19303 MEMB     162      CHL1     C6       CEL1    -0.150000       12.0110           0
     19304 MEMB     162      CHL1     H6       HEL1     0.150000       1.00800           0
     19305 MEMB     162      CHL1     C7       CRL2    -0.180000       12.0110           0
     19306 MEMB     162      CHL1     H7A      HGA2     0.900000E-01   1.00800           0
     19307 MEMB     162      CHL1     H7B      HGA2     0.900000E-01   1.00800           0
     19308 MEMB     162      CHL1     C8       CRL1    -0.900000E-01   12.0110           0
     19309 MEMB     162      CHL1     H8       HGA1     0.900000E-01   1.00800           0
     19310 MEMB     162      CHL1     C14      CRL1    -0.900000E-01   12.0110           0
     19311 MEMB     162      CHL1     H14      HGA1     0.900000E-01   1.00800           0
     19312 MEMB     162      CHL1     C15      CRL2    -0.180000       12.0110           0
     19313 MEMB     162      CHL1     H15A     HGA2     0.900000E-01   1.00800           0
     19314 MEMB     162      CHL1     H15B     HGA2     0.900000E-01   1.00800           0
     19315 MEMB     162      CHL1     C16      CRL2    -0.180000       12.0110           0
     19316 MEMB     162      CHL1     H16A     HGA2     0.900000E-01   1.00800           0
     19317 MEMB     162      CHL1     H16B     HGA2     0.900000E-01   1.00800           0
     19318 MEMB     162      CHL1     C17      CRL1    -0.900000E-01   12.0110           0
     19319 MEMB     162      CHL1     H17      HGA1     0.900000E-01   1.00800           0
     19320 MEMB     162      CHL1     C13      CRL1      0.00000       12.0110           0
     19321 MEMB     162      CHL1     C18      CTL3    -0.270000       12.0110           0
     19322 MEMB     162      CHL1     H18A     HAL3     0.900000E-01   1.00800           0
     19323 MEMB     162      CHL1     H18B     HAL3     0.900000E-01   1.00800           0
     19324 MEMB     162      CHL1     H18C     HAL3     0.900000E-01   1.00800           0
     19325 MEMB     162      CHL1     C12      CRL2    -0.180000       12.0110           0
     19326 MEMB     162      CHL1     H12A     HGA2     0.900000E-01   1.00800           0
     19327 MEMB     162      CHL1     H12B     HGA2     0.900000E-01   1.00800           0
     19328 MEMB     162      CHL1     C11      CRL2    -0.180000       12.0110           0
     19329 MEMB     162      CHL1     H11A     HGA2     0.900000E-01   1.00800           0
     19330 MEMB     162      CHL1     H11B     HGA2     0.900000E-01   1.00800           0
     19331 MEMB     162      CHL1     C9       CRL1    -0.900000E-01   12.0110           0
     19332 MEMB     162      CHL1     H9       HGA1     0.900000E-01   1.00800           0
     19333 MEMB     162      CHL1     C10      CRL1      0.00000       12.0110           0
     19334 MEMB     162      CHL1     C19      CTL3    -0.270000       12.0110           0
     19335 MEMB     162      CHL1     H19A     HAL3     0.900000E-01   1.00800           0
     19336 MEMB     162      CHL1     H19B     HAL3     0.900000E-01   1.00800           0
     19337 MEMB     162      CHL1     H19C     HAL3     0.900000E-01   1.00800           0
     19338 MEMB     162      CHL1     C1       CRL2    -0.180000       12.0110           0
     19339 MEMB     162      CHL1     H1A      HGA2     0.900000E-01   1.00800           0
     19340 MEMB     162      CHL1     H1B      HGA2     0.900000E-01   1.00800           0
     19341 MEMB     162      CHL1     C2       CRL2    -0.180000       12.0110           0
     19342 MEMB     162      CHL1     H2A      HGA2     0.900000E-01   1.00800           0
     19343 MEMB     162      CHL1     H2B      HGA2     0.900000E-01   1.00800           0
     19344 MEMB     162      CHL1     C20      CTL1    -0.900000E-01   12.0110           0
     19345 MEMB     162      CHL1     H20      HAL1     0.900000E-01   1.00800           0
     19346 MEMB     162      CHL1     C21      CTL3    -0.270000       12.0110           0
     19347 MEMB     162      CHL1     H21A     HAL3     0.900000E-01   1.00800           0
     19348 MEMB     162      CHL1     H21B     HAL3     0.900000E-01   1.00800           0
     19349 MEMB     162      CHL1     H21C     HAL3     0.900000E-01   1.00800           0
     19350 MEMB     162      CHL1     C22      CTL2    -0.180000       12.0110           0
     19351 MEMB     162      CHL1     H22A     HAL2     0.900000E-01   1.00800           0
     19352 MEMB     162      CHL1     H22B     HAL2     0.900000E-01   1.00800           0
     19353 MEMB     162      CHL1     C23      CTL2    -0.180000       12.0110           0
     19354 MEMB     162      CHL1     H23A     HAL2     0.900000E-01   1.00800           0
     19355 MEMB     162      CHL1     H23B     HAL2     0.900000E-01   1.00800           0
     19356 MEMB     162      CHL1     C24      CTL2    -0.180000       12.0110           0
     19357 MEMB     162      CHL1     H24A     HAL2     0.900000E-01   1.00800           0
     19358 MEMB     162      CHL1     H24B     HAL2     0.900000E-01   1.00800           0
     19359 MEMB     162      CHL1     C25      CTL1    -0.900000E-01   12.0110           0
     19360 MEMB     162      CHL1     H25      HAL1     0.900000E-01   1.00800           0
     19361 MEMB     162      CHL1     C26      CTL3    -0.270000       12.0110           0
     19362 MEMB     162      CHL1     H26A     HAL3     0.900000E-01   1.00800           0
     19363 MEMB     162      CHL1     H26B     HAL3     0.900000E-01   1.00800           0
     19364 MEMB     162      CHL1     H26C     HAL3     0.900000E-01   1.00800           0
     19365 MEMB     162      CHL1     C27      CTL3    -0.270000       12.0110           0
     19366 MEMB     162      CHL1     H27A     HAL3     0.900000E-01   1.00800           0
     19367 MEMB     162      CHL1     H27B     HAL3     0.900000E-01   1.00800           0
     19368 MEMB     162      CHL1     H27C     HAL3     0.900000E-01   1.00800           0
     19369 MEMB     163      CHL1     C3       CRL1     0.140000       12.0110           0
     19370 MEMB     163      CHL1     H3       HGA1     0.900000E-01   1.00800           0
     19371 MEMB     163      CHL1     O3       OHL     -0.660000       15.9994           0
     19372 MEMB     163      CHL1     H3'      HOL      0.430000       1.00800           0
     19373 MEMB     163      CHL1     C4       CRL2    -0.180000       12.0110           0
     19374 MEMB     163      CHL1     H4A      HGA2     0.900000E-01   1.00800           0
     19375 MEMB     163      CHL1     H4B      HGA2     0.900000E-01   1.00800           0
     19376 MEMB     163      CHL1     C5       CEL1      0.00000       12.0110           0
     19377 MEMB     163      CHL1     C6       CEL1    -0.150000       12.0110           0
     19378 MEMB     163      CHL1     H6       HEL1     0.150000       1.00800           0
     19379 MEMB     163      CHL1     C7       CRL2    -0.180000       12.0110           0
     19380 MEMB     163      CHL1     H7A      HGA2     0.900000E-01   1.00800           0
     19381 MEMB     163      CHL1     H7B      HGA2     0.900000E-01   1.00800           0
     19382 MEMB     163      CHL1     C8       CRL1    -0.900000E-01   12.0110           0
     19383 MEMB     163      CHL1     H8       HGA1     0.900000E-01   1.00800           0
     19384 MEMB     163      CHL1     C14      CRL1    -0.900000E-01   12.0110           0
     19385 MEMB     163      CHL1     H14      HGA1     0.900000E-01   1.00800           0
     19386 MEMB     163      CHL1     C15      CRL2    -0.180000       12.0110           0
     19387 MEMB     163      CHL1     H15A     HGA2     0.900000E-01   1.00800           0
     19388 MEMB     163      CHL1     H15B     HGA2     0.900000E-01   1.00800           0
     19389 MEMB     163      CHL1     C16      CRL2    -0.180000       12.0110           0
     19390 MEMB     163      CHL1     H16A     HGA2     0.900000E-01   1.00800           0
     19391 MEMB     163      CHL1     H16B     HGA2     0.900000E-01   1.00800           0
     19392 MEMB     163      CHL1     C17      CRL1    -0.900000E-01   12.0110           0
     19393 MEMB     163      CHL1     H17      HGA1     0.900000E-01   1.00800           0
     19394 MEMB     163      CHL1     C13      CRL1      0.00000       12.0110           0
     19395 MEMB     163      CHL1     C18      CTL3    -0.270000       12.0110           0
     19396 MEMB     163      CHL1     H18A     HAL3     0.900000E-01   1.00800           0
     19397 MEMB     163      CHL1     H18B     HAL3     0.900000E-01   1.00800           0
     19398 MEMB     163      CHL1     H18C     HAL3     0.900000E-01   1.00800           0
     19399 MEMB     163      CHL1     C12      CRL2    -0.180000       12.0110           0
     19400 MEMB     163      CHL1     H12A     HGA2     0.900000E-01   1.00800           0
     19401 MEMB     163      CHL1     H12B     HGA2     0.900000E-01   1.00800           0
     19402 MEMB     163      CHL1     C11      CRL2    -0.180000       12.0110           0
     19403 MEMB     163      CHL1     H11A     HGA2     0.900000E-01   1.00800           0
     19404 MEMB     163      CHL1     H11B     HGA2     0.900000E-01   1.00800           0
     19405 MEMB     163      CHL1     C9       CRL1    -0.900000E-01   12.0110           0
     19406 MEMB     163      CHL1     H9       HGA1     0.900000E-01   1.00800           0
     19407 MEMB     163      CHL1     C10      CRL1      0.00000       12.0110           0
     19408 MEMB     163      CHL1     C19      CTL3    -0.270000       12.0110           0
     19409 MEMB     163      CHL1     H19A     HAL3     0.900000E-01   1.00800           0
     19410 MEMB     163      CHL1     H19B     HAL3     0.900000E-01   1.00800           0
     19411 MEMB     163      CHL1     H19C     HAL3     0.900000E-01   1.00800           0
     19412 MEMB     163      CHL1     C1       CRL2    -0.180000       12.0110           0
     19413 MEMB     163      CHL1     H1A      HGA2     0.900000E-01   1.00800           0
     19414 MEMB     163      CHL1     H1B      HGA2     0.900000E-01   1.00800           0
     19415 MEMB     163      CHL1     C2       CRL2    -0.180000       12.0110           0
     19416 MEMB     163      CHL1     H2A      HGA2     0.900000E-01   1.00800           0
     19417 MEMB     163      CHL1     H2B      HGA2     0.900000E-01   1.00800           0
     19418 MEMB     163      CHL1     C20      CTL1    -0.900000E-01   12.0110           0
     19419 MEMB     163      CHL1     H20      HAL1     0.900000E-01   1.00800           0
     19420 MEMB     163      CHL1     C21      CTL3    -0.270000       12.0110           0
     19421 MEMB     163      CHL1     H21A     HAL3     0.900000E-01   1.00800           0
     19422 MEMB     163      CHL1     H21B     HAL3     0.900000E-01   1.00800           0
     19423 MEMB     163      CHL1     H21C     HAL3     0.900000E-01   1.00800           0
     19424 MEMB     163      CHL1     C22      CTL2    -0.180000       12.0110           0
     19425 MEMB     163      CHL1     H22A     HAL2     0.900000E-01   1.00800           0
     19426 MEMB     163      CHL1     H22B     HAL2     0.900000E-01   1.00800           0
     19427 MEMB     163      CHL1     C23      CTL2    -0.180000       12.0110           0
     19428 MEMB     163      CHL1     H23A     HAL2     0.900000E-01   1.00800           0
     19429 MEMB     163      CHL1     H23B     HAL2     0.900000E-01   1.00800           0
     19430 MEMB     163      CHL1     C24      CTL2    -0.180000       12.0110           0
     19431 MEMB     163      CHL1     H24A     HAL2     0.900000E-01   1.00800           0
     19432 MEMB     163      CHL1     H24B     HAL2     0.900000E-01   1.00800           0
     19433 MEMB     163      CHL1     C25      CTL1    -0.900000E-01   12.0110           0
     19434 MEMB     163      CHL1     H25      HAL1     0.900000E-01   1.00800           0
     19435 MEMB     163      CHL1     C26      CTL3    -0.270000       12.0110           0
     19436 MEMB     163      CHL1     H26A     HAL3     0.900000E-01   1.00800           0
     19437 MEMB     163      CHL1     H26B     HAL3     0.900000E-01   1.00800           0
     19438 MEMB     163      CHL1     H26C     HAL3     0.900000E-01   1.00800           0
     19439 MEMB     163      CHL1     C27      CTL3    -0.270000       12.0110           0
     19440 MEMB     163      CHL1     H27A     HAL3     0.900000E-01   1.00800           0
     19441 MEMB     163      CHL1     H27B     HAL3     0.900000E-01   1.00800           0
     19442 MEMB     163      CHL1     H27C     HAL3     0.900000E-01   1.00800           0
     19443 MEMB     164      CHL1     C3       CRL1     0.140000       12.0110           0
     19444 MEMB     164      CHL1     H3       HGA1     0.900000E-01   1.00800           0
     19445 MEMB     164      CHL1     O3       OHL     -0.660000       15.9994           0
     19446 MEMB     164      CHL1     H3'      HOL      0.430000       1.00800           0
     19447 MEMB     164      CHL1     C4       CRL2    -0.180000       12.0110           0
     19448 MEMB     164      CHL1     H4A      HGA2     0.900000E-01   1.00800           0
     19449 MEMB     164      CHL1     H4B      HGA2     0.900000E-01   1.00800           0
     19450 MEMB     164      CHL1     C5       CEL1      0.00000       12.0110           0
     19451 MEMB     164      CHL1     C6       CEL1    -0.150000       12.0110           0
     19452 MEMB     164      CHL1     H6       HEL1     0.150000       1.00800           0
     19453 MEMB     164      CHL1     C7       CRL2    -0.180000       12.0110           0
     19454 MEMB     164      CHL1     H7A      HGA2     0.900000E-01   1.00800           0
     19455 MEMB     164      CHL1     H7B      HGA2     0.900000E-01   1.00800           0
     19456 MEMB     164      CHL1     C8       CRL1    -0.900000E-01   12.0110           0
     19457 MEMB     164      CHL1     H8       HGA1     0.900000E-01   1.00800           0
     19458 MEMB     164      CHL1     C14      CRL1    -0.900000E-01   12.0110           0
     19459 MEMB     164      CHL1     H14      HGA1     0.900000E-01   1.00800           0
     19460 MEMB     164      CHL1     C15      CRL2    -0.180000       12.0110           0
     19461 MEMB     164      CHL1     H15A     HGA2     0.900000E-01   1.00800           0
     19462 MEMB     164      CHL1     H15B     HGA2     0.900000E-01   1.00800           0
     19463 MEMB     164      CHL1     C16      CRL2    -0.180000       12.0110           0
     19464 MEMB     164      CHL1     H16A     HGA2     0.900000E-01   1.00800           0
     19465 MEMB     164      CHL1     H16B     HGA2     0.900000E-01   1.00800           0
     19466 MEMB     164      CHL1     C17      CRL1    -0.900000E-01   12.0110           0
     19467 MEMB     164      CHL1     H17      HGA1     0.900000E-01   1.00800           0
     19468 MEMB     164      CHL1     C13      CRL1      0.00000       12.0110           0
     19469 MEMB     164      CHL1     C18      CTL3    -0.270000       12.0110           0
     19470 MEMB     164      CHL1     H18A     HAL3     0.900000E-01   1.00800           0
     19471 MEMB     164      CHL1     H18B     HAL3     0.900000E-01   1.00800           0
     19472 MEMB     164      CHL1     H18C     HAL3     0.900000E-01   1.00800           0
     19473 MEMB     164      CHL1     C12      CRL2    -0.180000       12.0110           0
     19474 MEMB     164      CHL1     H12A     HGA2     0.900000E-01   1.00800           0
     19475 MEMB     164      CHL1     H12B     HGA2     0.900000E-01   1.00800           0
     19476 MEMB     164      CHL1     C11      CRL2    -0.180000       12.0110           0
     19477 MEMB     164      CHL1     H11A     HGA2     0.900000E-01   1.00800           0
     19478 MEMB     164      CHL1     H11B     HGA2     0.900000E-01   1.00800           0
     19479 MEMB     164      CHL1     C9       CRL1    -0.900000E-01   12.0110           0
     19480 MEMB     164      CHL1     H9       HGA1     0.900000E-01   1.00800           0
     19481 MEMB     164      CHL1     C10      CRL1      0.00000       12.0110           0
     19482 MEMB     164      CHL1     C19      CTL3    -0.270000       12.0110           0
     19483 MEMB     164      CHL1     H19A     HAL3     0.900000E-01   1.00800           0
     19484 MEMB     164      CHL1     H19B     HAL3     0.900000E-01   1.00800           0
     19485 MEMB     164      CHL1     H19C     HAL3     0.900000E-01   1.00800           0
     19486 MEMB     164      CHL1     C1       CRL2    -0.180000       12.0110           0
     19487 MEMB     164      CHL1     H1A      HGA2     0.900000E-01   1.00800           0
     19488 MEMB     164      CHL1     H1B      HGA2     0.900000E-01   1.00800           0
     19489 MEMB     164      CHL1     C2       CRL2    -0.180000       12.0110           0
     19490 MEMB     164      CHL1     H2A      HGA2     0.900000E-01   1.00800           0
     19491 MEMB     164      CHL1     H2B      HGA2     0.900000E-01   1.00800           0
     19492 MEMB     164      CHL1     C20      CTL1    -0.900000E-01   12.0110           0
     19493 MEMB     164      CHL1     H20      HAL1     0.900000E-01   1.00800           0
     19494 MEMB     164      CHL1     C21      CTL3    -0.270000       12.0110           0
     19495 MEMB     164      CHL1     H21A     HAL3     0.900000E-01   1.00800           0
     19496 MEMB     164      CHL1     H21B     HAL3     0.900000E-01   1.00800           0
     19497 MEMB     164      CHL1     H21C     HAL3     0.900000E-01   1.00800           0
     19498 MEMB     164      CHL1     C22      CTL2    -0.180000       12.0110           0
     19499 MEMB     164      CHL1     H22A     HAL2     0.900000E-01   1.00800           0
     19500 MEMB     164      CHL1     H22B     HAL2     0.900000E-01   1.00800           0
     19501 MEMB     164      CHL1     C23      CTL2    -0.180000       12.0110           0
     19502 MEMB     164      CHL1     H23A     HAL2     0.900000E-01   1.00800           0
     19503 MEMB     164      CHL1     H23B     HAL2     0.900000E-01   1.00800           0
     19504 MEMB     164      CHL1     C24      CTL2    -0.180000       12.0110           0
     19505 MEMB     164      CHL1     H24A     HAL2     0.900000E-01   1.00800           0
     19506 MEMB     164      CHL1     H24B     HAL2     0.900000E-01   1.00800           0
     19507 MEMB     164      CHL1     C25      CTL1    -0.900000E-01   12.0110           0
     19508 MEMB     164      CHL1     H25      HAL1     0.900000E-01   1.00800           0
     19509 MEMB     164      CHL1     C26      CTL3    -0.270000       12.0110           0
     19510 MEMB     164      CHL1     H26A     HAL3     0.900000E-01   1.00800           0
     19511 MEMB     164      CHL1     H26B     HAL3     0.900000E-01   1.00800           0
     19512 MEMB     164      CHL1     H26C     HAL3     0.900000E-01   1.00800           0
     19513 MEMB     164      CHL1     C27      CTL3    -0.270000       12.0110           0
     19514 MEMB     164      CHL1     H27A     HAL3     0.900000E-01   1.00800           0
     19515 MEMB     164      CHL1     H27B     HAL3     0.900000E-01   1.00800           0
     19516 MEMB     164      CHL1     H27C     HAL3     0.900000E-01   1.00800           0
     19517 MEMB     165      CHL1     C3       CRL1     0.140000       12.0110           0
     19518 MEMB     165      CHL1     H3       HGA1     0.900000E-01   1.00800           0
     19519 MEMB     165      CHL1     O3       OHL     -0.660000       15.9994           0
     19520 MEMB     165      CHL1     H3'      HOL      0.430000       1.00800           0
     19521 MEMB     165      CHL1     C4       CRL2    -0.180000       12.0110           0
     19522 MEMB     165      CHL1     H4A      HGA2     0.900000E-01   1.00800           0
     19523 MEMB     165      CHL1     H4B      HGA2     0.900000E-01   1.00800           0
     19524 MEMB     165      CHL1     C5       CEL1      0.00000       12.0110           0
     19525 MEMB     165      CHL1     C6       CEL1    -0.150000       12.0110           0
     19526 MEMB     165      CHL1     H6       HEL1     0.150000       1.00800           0
     19527 MEMB     165      CHL1     C7       CRL2    -0.180000       12.0110           0
     19528 MEMB     165      CHL1     H7A      HGA2     0.900000E-01   1.00800           0
     19529 MEMB     165      CHL1     H7B      HGA2     0.900000E-01   1.00800           0
     19530 MEMB     165      CHL1     C8       CRL1    -0.900000E-01   12.0110           0
     19531 MEMB     165      CHL1     H8       HGA1     0.900000E-01   1.00800           0
     19532 MEMB     165      CHL1     C14      CRL1    -0.900000E-01   12.0110           0
     19533 MEMB     165      CHL1     H14      HGA1     0.900000E-01   1.00800           0
     19534 MEMB     165      CHL1     C15      CRL2    -0.180000       12.0110           0
     19535 MEMB     165      CHL1     H15A     HGA2     0.900000E-01   1.00800           0
     19536 MEMB     165      CHL1     H15B     HGA2     0.900000E-01   1.00800           0
     19537 MEMB     165      CHL1     C16      CRL2    -0.180000       12.0110           0
     19538 MEMB     165      CHL1     H16A     HGA2     0.900000E-01   1.00800           0
     19539 MEMB     165      CHL1     H16B     HGA2     0.900000E-01   1.00800           0
     19540 MEMB     165      CHL1     C17      CRL1    -0.900000E-01   12.0110           0
     19541 MEMB     165      CHL1     H17      HGA1     0.900000E-01   1.00800           0
     19542 MEMB     165      CHL1     C13      CRL1      0.00000       12.0110           0
     19543 MEMB     165      CHL1     C18      CTL3    -0.270000       12.0110           0
     19544 MEMB     165      CHL1     H18A     HAL3     0.900000E-01   1.00800           0
     19545 MEMB     165      CHL1     H18B     HAL3     0.900000E-01   1.00800           0
     19546 MEMB     165      CHL1     H18C     HAL3     0.900000E-01   1.00800           0
     19547 MEMB     165      CHL1     C12      CRL2    -0.180000       12.0110           0
     19548 MEMB     165      CHL1     H12A     HGA2     0.900000E-01   1.00800           0
     19549 MEMB     165      CHL1     H12B     HGA2     0.900000E-01   1.00800           0
     19550 MEMB     165      CHL1     C11      CRL2    -0.180000       12.0110           0
     19551 MEMB     165      CHL1     H11A     HGA2     0.900000E-01   1.00800           0
     19552 MEMB     165      CHL1     H11B     HGA2     0.900000E-01   1.00800           0
     19553 MEMB     165      CHL1     C9       CRL1    -0.900000E-01   12.0110           0
     19554 MEMB     165      CHL1     H9       HGA1     0.900000E-01   1.00800           0
     19555 MEMB     165      CHL1     C10      CRL1      0.00000       12.0110           0
     19556 MEMB     165      CHL1     C19      CTL3    -0.270000       12.0110           0
     19557 MEMB     165      CHL1     H19A     HAL3     0.900000E-01   1.00800           0
     19558 MEMB     165      CHL1     H19B     HAL3     0.900000E-01   1.00800           0
     19559 MEMB     165      CHL1     H19C     HAL3     0.900000E-01   1.00800           0
     19560 MEMB     165      CHL1     C1       CRL2    -0.180000       12.0110           0
     19561 MEMB     165      CHL1     H1A      HGA2     0.900000E-01   1.00800           0
     19562 MEMB     165      CHL1     H1B      HGA2     0.900000E-01   1.00800           0
     19563 MEMB     165      CHL1     C2       CRL2    -0.180000       12.0110           0
     19564 MEMB     165      CHL1     H2A      HGA2     0.900000E-01   1.00800           0
     19565 MEMB     165      CHL1     H2B      HGA2     0.900000E-01   1.00800           0
     19566 MEMB     165      CHL1     C20      CTL1    -0.900000E-01   12.0110           0
     19567 MEMB     165      CHL1     H20      HAL1     0.900000E-01   1.00800           0
     19568 MEMB     165      CHL1     C21      CTL3    -0.270000       12.0110           0
     19569 MEMB     165      CHL1     H21A     HAL3     0.900000E-01   1.00800           0
     19570 MEMB     165      CHL1     H21B     HAL3     0.900000E-01   1.00800           0
     19571 MEMB     165      CHL1     H21C     HAL3     0.900000E-01   1.00800           0
     19572 MEMB     165      CHL1     C22      CTL2    -0.180000       12.0110           0
     19573 MEMB     165      CHL1     H22A     HAL2     0.900000E-01   1.00800           0
     19574 MEMB     165      CHL1     H22B     HAL2     0.900000E-01   1.00800           0
     19575 MEMB     165      CHL1     C23      CTL2    -0.180000       12.0110           0
     19576 MEMB     165      CHL1     H23A     HAL2     0.900000E-01   1.00800           0
     19577 MEMB     165      CHL1     H23B     HAL2     0.900000E-01   1.00800           0
     19578 MEMB     165      CHL1     C24      CTL2    -0.180000       12.0110           0
     19579 MEMB     165      CHL1     H24A     HAL2     0.900000E-01   1.00800           0
     19580 MEMB     165      CHL1     H24B     HAL2     0.900000E-01   1.00800           0
     19581 MEMB     165      CHL1     C25      CTL1    -0.900000E-01   12.0110           0
     19582 MEMB     165      CHL1     H25      HAL1     0.900000E-01   1.00800           0
     19583 MEMB     165      CHL1     C26      CTL3    -0.270000       12.0110           0
     19584 MEMB     165      CHL1     H26A     HAL3     0.900000E-01   1.00800           0
     19585 MEMB     165      CHL1     H26B     HAL3     0.900000E-01   1.00800           0
     19586 MEMB     165      CHL1     H26C     HAL3     0.900000E-01   1.00800           0
     19587 MEMB     165      CHL1     C27      CTL3    -0.270000       12.0110           0
     19588 MEMB     165      CHL1     H27A     HAL3     0.900000E-01   1.00800           0
     19589 MEMB     165      CHL1     H27B     HAL3     0.900000E-01   1.00800           0
     19590 MEMB     165      CHL1     H27C     HAL3     0.900000E-01   1.00800           0
     19591 MEMB     166      CHL1     C3       CRL1     0.140000       12.0110           0
     19592 MEMB     166      CHL1     H3       HGA1     0.900000E-01   1.00800           0
     19593 MEMB     166      CHL1     O3       OHL     -0.660000       15.9994           0
     19594 MEMB     166      CHL1     H3'      HOL      0.430000       1.00800           0
     19595 MEMB     166      CHL1     C4       CRL2    -0.180000       12.0110           0
     19596 MEMB     166      CHL1     H4A      HGA2     0.900000E-01   1.00800           0
     19597 MEMB     166      CHL1     H4B      HGA2     0.900000E-01   1.00800           0
     19598 MEMB     166      CHL1     C5       CEL1      0.00000       12.0110           0
     19599 MEMB     166      CHL1     C6       CEL1    -0.150000       12.0110           0
     19600 MEMB     166      CHL1     H6       HEL1     0.150000       1.00800           0
     19601 MEMB     166      CHL1     C7       CRL2    -0.180000       12.0110           0
     19602 MEMB     166      CHL1     H7A      HGA2     0.900000E-01   1.00800           0
     19603 MEMB     166      CHL1     H7B      HGA2     0.900000E-01   1.00800           0
     19604 MEMB     166      CHL1     C8       CRL1    -0.900000E-01   12.0110           0
     19605 MEMB     166      CHL1     H8       HGA1     0.900000E-01   1.00800           0
     19606 MEMB     166      CHL1     C14      CRL1    -0.900000E-01   12.0110           0
     19607 MEMB     166      CHL1     H14      HGA1     0.900000E-01   1.00800           0
     19608 MEMB     166      CHL1     C15      CRL2    -0.180000       12.0110           0
     19609 MEMB     166      CHL1     H15A     HGA2     0.900000E-01   1.00800           0
     19610 MEMB     166      CHL1     H15B     HGA2     0.900000E-01   1.00800           0
     19611 MEMB     166      CHL1     C16      CRL2    -0.180000       12.0110           0
     19612 MEMB     166      CHL1     H16A     HGA2     0.900000E-01   1.00800           0
     19613 MEMB     166      CHL1     H16B     HGA2     0.900000E-01   1.00800           0
     19614 MEMB     166      CHL1     C17      CRL1    -0.900000E-01   12.0110           0
     19615 MEMB     166      CHL1     H17      HGA1     0.900000E-01   1.00800           0
     19616 MEMB     166      CHL1     C13      CRL1      0.00000       12.0110           0
     19617 MEMB     166      CHL1     C18      CTL3    -0.270000       12.0110           0
     19618 MEMB     166      CHL1     H18A     HAL3     0.900000E-01   1.00800           0
     19619 MEMB     166      CHL1     H18B     HAL3     0.900000E-01   1.00800           0
     19620 MEMB     166      CHL1     H18C     HAL3     0.900000E-01   1.00800           0
     19621 MEMB     166      CHL1     C12      CRL2    -0.180000       12.0110           0
     19622 MEMB     166      CHL1     H12A     HGA2     0.900000E-01   1.00800           0
     19623 MEMB     166      CHL1     H12B     HGA2     0.900000E-01   1.00800           0
     19624 MEMB     166      CHL1     C11      CRL2    -0.180000       12.0110           0
     19625 MEMB     166      CHL1     H11A     HGA2     0.900000E-01   1.00800           0
     19626 MEMB     166      CHL1     H11B     HGA2     0.900000E-01   1.00800           0
     19627 MEMB     166      CHL1     C9       CRL1    -0.900000E-01   12.0110           0
     19628 MEMB     166      CHL1     H9       HGA1     0.900000E-01   1.00800           0
     19629 MEMB     166      CHL1     C10      CRL1      0.00000       12.0110           0
     19630 MEMB     166      CHL1     C19      CTL3    -0.270000       12.0110           0
     19631 MEMB     166      CHL1     H19A     HAL3     0.900000E-01   1.00800           0
     19632 MEMB     166      CHL1     H19B     HAL3     0.900000E-01   1.00800           0
     19633 MEMB     166      CHL1     H19C     HAL3     0.900000E-01   1.00800           0
     19634 MEMB     166      CHL1     C1       CRL2    -0.180000       12.0110           0
     19635 MEMB     166      CHL1     H1A      HGA2     0.900000E-01   1.00800           0
     19636 MEMB     166      CHL1     H1B      HGA2     0.900000E-01   1.00800           0
     19637 MEMB     166      CHL1     C2       CRL2    -0.180000       12.0110           0
     19638 MEMB     166      CHL1     H2A      HGA2     0.900000E-01   1.00800           0
     19639 MEMB     166      CHL1     H2B      HGA2     0.900000E-01   1.00800           0
     19640 MEMB     166      CHL1     C20      CTL1    -0.900000E-01   12.0110           0
     19641 MEMB     166      CHL1     H20      HAL1     0.900000E-01   1.00800           0
     19642 MEMB     166      CHL1     C21      CTL3    -0.270000       12.0110           0
     19643 MEMB     166      CHL1     H21A     HAL3     0.900000E-01   1.00800           0
     19644 MEMB     166      CHL1     H21B     HAL3     0.900000E-01   1.00800           0
     19645 MEMB     166      CHL1     H21C     HAL3     0.900000E-01   1.00800           0
     19646 MEMB     166      CHL1     C22      CTL2    -0.180000       12.0110           0
     19647 MEMB     166      CHL1     H22A     HAL2     0.900000E-01   1.00800           0
     19648 MEMB     166      CHL1     H22B     HAL2     0.900000E-01   1.00800           0
     19649 MEMB     166      CHL1     C23      CTL2    -0.180000       12.0110           0
     19650 MEMB     166      CHL1     H23A     HAL2     0.900000E-01   1.00800           0
     19651 MEMB     166      CHL1     H23B     HAL2     0.900000E-01   1.00800           0
     19652 MEMB     166      CHL1     C24      CTL2    -0.180000       12.0110           0
     19653 MEMB     166      CHL1     H24A     HAL2     0.900000E-01   1.00800           0
     19654 MEMB     166      CHL1     H24B     HAL2     0.900000E-01   1.00800           0
     19655 MEMB     166      CHL1     C25      CTL1    -0.900000E-01   12.0110           0
     19656 MEMB     166      CHL1     H25      HAL1     0.900000E-01   1.00800           0
     19657 MEMB     166      CHL1     C26      CTL3    -0.270000       12.0110           0
     19658 MEMB     166      CHL1     H26A     HAL3     0.900000E-01   1.00800           0
     19659 MEMB     166      CHL1     H26B     HAL3     0.900000E-01   1.00800           0
     19660 MEMB     166      CHL1     H26C     HAL3     0.900000E-01   1.00800           0
     19661 MEMB     166      CHL1     C27      CTL3    -0.270000       12.0110           0
     19662 MEMB     166      CHL1     H27A     HAL3     0.900000E-01   1.00800           0
     19663 MEMB     166      CHL1     H27B     HAL3     0.900000E-01   1.00800           0
     19664 MEMB     166      CHL1     H27C     HAL3     0.900000E-01   1.00800           0
     19665 MEMB     167      CHL1     C3       CRL1     0.140000       12.0110           0
     19666 MEMB     167      CHL1     H3       HGA1     0.900000E-01   1.00800           0
     19667 MEMB     167      CHL1     O3       OHL     -0.660000       15.9994           0
     19668 MEMB     167      CHL1     H3'      HOL      0.430000       1.00800           0
     19669 MEMB     167      CHL1     C4       CRL2    -0.180000       12.0110           0
     19670 MEMB     167      CHL1     H4A      HGA2     0.900000E-01   1.00800           0
     19671 MEMB     167      CHL1     H4B      HGA2     0.900000E-01   1.00800           0
     19672 MEMB     167      CHL1     C5       CEL1      0.00000       12.0110           0
     19673 MEMB     167      CHL1     C6       CEL1    -0.150000       12.0110           0
     19674 MEMB     167      CHL1     H6       HEL1     0.150000       1.00800           0
     19675 MEMB     167      CHL1     C7       CRL2    -0.180000       12.0110           0
     19676 MEMB     167      CHL1     H7A      HGA2     0.900000E-01   1.00800           0
     19677 MEMB     167      CHL1     H7B      HGA2     0.900000E-01   1.00800           0
     19678 MEMB     167      CHL1     C8       CRL1    -0.900000E-01   12.0110           0
     19679 MEMB     167      CHL1     H8       HGA1     0.900000E-01   1.00800           0
     19680 MEMB     167      CHL1     C14      CRL1    -0.900000E-01   12.0110           0
     19681 MEMB     167      CHL1     H14      HGA1     0.900000E-01   1.00800           0
     19682 MEMB     167      CHL1     C15      CRL2    -0.180000       12.0110           0
     19683 MEMB     167      CHL1     H15A     HGA2     0.900000E-01   1.00800           0
     19684 MEMB     167      CHL1     H15B     HGA2     0.900000E-01   1.00800           0
     19685 MEMB     167      CHL1     C16      CRL2    -0.180000       12.0110           0
     19686 MEMB     167      CHL1     H16A     HGA2     0.900000E-01   1.00800           0
     19687 MEMB     167      CHL1     H16B     HGA2     0.900000E-01   1.00800           0
     19688 MEMB     167      CHL1     C17      CRL1    -0.900000E-01   12.0110           0
     19689 MEMB     167      CHL1     H17      HGA1     0.900000E-01   1.00800           0
     19690 MEMB     167      CHL1     C13      CRL1      0.00000       12.0110           0
     19691 MEMB     167      CHL1     C18      CTL3    -0.270000       12.0110           0
     19692 MEMB     167      CHL1     H18A     HAL3     0.900000E-01   1.00800           0
     19693 MEMB     167      CHL1     H18B     HAL3     0.900000E-01   1.00800           0
     19694 MEMB     167      CHL1     H18C     HAL3     0.900000E-01   1.00800           0
     19695 MEMB     167      CHL1     C12      CRL2    -0.180000       12.0110           0
     19696 MEMB     167      CHL1     H12A     HGA2     0.900000E-01   1.00800           0
     19697 MEMB     167      CHL1     H12B     HGA2     0.900000E-01   1.00800           0
     19698 MEMB     167      CHL1     C11      CRL2    -0.180000       12.0110           0
     19699 MEMB     167      CHL1     H11A     HGA2     0.900000E-01   1.00800           0
     19700 MEMB     167      CHL1     H11B     HGA2     0.900000E-01   1.00800           0
     19701 MEMB     167      CHL1     C9       CRL1    -0.900000E-01   12.0110           0
     19702 MEMB     167      CHL1     H9       HGA1     0.900000E-01   1.00800           0
     19703 MEMB     167      CHL1     C10      CRL1      0.00000       12.0110           0
     19704 MEMB     167      CHL1     C19      CTL3    -0.270000       12.0110           0
     19705 MEMB     167      CHL1     H19A     HAL3     0.900000E-01   1.00800           0
     19706 MEMB     167      CHL1     H19B     HAL3     0.900000E-01   1.00800           0
     19707 MEMB     167      CHL1     H19C     HAL3     0.900000E-01   1.00800           0
     19708 MEMB     167      CHL1     C1       CRL2    -0.180000       12.0110           0
     19709 MEMB     167      CHL1     H1A      HGA2     0.900000E-01   1.00800           0
     19710 MEMB     167      CHL1     H1B      HGA2     0.900000E-01   1.00800           0
     19711 MEMB     167      CHL1     C2       CRL2    -0.180000       12.0110           0
     19712 MEMB     167      CHL1     H2A      HGA2     0.900000E-01   1.00800           0
     19713 MEMB     167      CHL1     H2B      HGA2     0.900000E-01   1.00800           0
     19714 MEMB     167      CHL1     C20      CTL1    -0.900000E-01   12.0110           0
     19715 MEMB     167      CHL1     H20      HAL1     0.900000E-01   1.00800           0
     19716 MEMB     167      CHL1     C21      CTL3    -0.270000       12.0110           0
     19717 MEMB     167      CHL1     H21A     HAL3     0.900000E-01   1.00800           0
     19718 MEMB     167      CHL1     H21B     HAL3     0.900000E-01   1.00800           0
     19719 MEMB     167      CHL1     H21C     HAL3     0.900000E-01   1.00800           0
     19720 MEMB     167      CHL1     C22      CTL2    -0.180000       12.0110           0
     19721 MEMB     167      CHL1     H22A     HAL2     0.900000E-01   1.00800           0
     19722 MEMB     167      CHL1     H22B     HAL2     0.900000E-01   1.00800           0
     19723 MEMB     167      CHL1     C23      CTL2    -0.180000       12.0110           0
     19724 MEMB     167      CHL1     H23A     HAL2     0.900000E-01   1.00800           0
     19725 MEMB     167      CHL1     H23B     HAL2     0.900000E-01   1.00800           0
     19726 MEMB     167      CHL1     C24      CTL2    -0.180000       12.0110           0
     19727 MEMB     167      CHL1     H24A     HAL2     0.900000E-01   1.00800           0
     19728 MEMB     167      CHL1     H24B     HAL2     0.900000E-01   1.00800           0
     19729 MEMB     167      CHL1     C25      CTL1    -0.900000E-01   12.0110           0
     19730 MEMB     167      CHL1     H25      HAL1     0.900000E-01   1.00800           0
     19731 MEMB     167      CHL1     C26      CTL3    -0.270000       12.0110           0
     19732 MEMB     167      CHL1     H26A     HAL3     0.900000E-01   1.00800           0
     19733 MEMB     167      CHL1     H26B     HAL3     0.900000E-01   1.00800           0
     19734 MEMB     167      CHL1     H26C     HAL3     0.900000E-01   1.00800           0
     19735 MEMB     167      CHL1     C27      CTL3    -0.270000       12.0110           0
     19736 MEMB     167      CHL1     H27A     HAL3     0.900000E-01   1.00800           0
     19737 MEMB     167      CHL1     H27B     HAL3     0.900000E-01   1.00800           0
     19738 MEMB     167      CHL1     H27C     HAL3     0.900000E-01   1.00800           0
     19739 MEMB     168      CHL1     C3       CRL1     0.140000       12.0110           0
     19740 MEMB     168      CHL1     H3       HGA1     0.900000E-01   1.00800           0
     19741 MEMB     168      CHL1     O3       OHL     -0.660000       15.9994           0
     19742 MEMB     168      CHL1     H3'      HOL      0.430000       1.00800           0
     19743 MEMB     168      CHL1     C4       CRL2    -0.180000       12.0110           0
     19744 MEMB     168      CHL1     H4A      HGA2     0.900000E-01   1.00800           0
     19745 MEMB     168      CHL1     H4B      HGA2     0.900000E-01   1.00800           0
     19746 MEMB     168      CHL1     C5       CEL1      0.00000       12.0110           0
     19747 MEMB     168      CHL1     C6       CEL1    -0.150000       12.0110           0
     19748 MEMB     168      CHL1     H6       HEL1     0.150000       1.00800           0
     19749 MEMB     168      CHL1     C7       CRL2    -0.180000       12.0110           0
     19750 MEMB     168      CHL1     H7A      HGA2     0.900000E-01   1.00800           0
     19751 MEMB     168      CHL1     H7B      HGA2     0.900000E-01   1.00800           0
     19752 MEMB     168      CHL1     C8       CRL1    -0.900000E-01   12.0110           0
     19753 MEMB     168      CHL1     H8       HGA1     0.900000E-01   1.00800           0
     19754 MEMB     168      CHL1     C14      CRL1    -0.900000E-01   12.0110           0
     19755 MEMB     168      CHL1     H14      HGA1     0.900000E-01   1.00800           0
     19756 MEMB     168      CHL1     C15      CRL2    -0.180000       12.0110           0
     19757 MEMB     168      CHL1     H15A     HGA2     0.900000E-01   1.00800           0
     19758 MEMB     168      CHL1     H15B     HGA2     0.900000E-01   1.00800           0
     19759 MEMB     168      CHL1     C16      CRL2    -0.180000       12.0110           0
     19760 MEMB     168      CHL1     H16A     HGA2     0.900000E-01   1.00800           0
     19761 MEMB     168      CHL1     H16B     HGA2     0.900000E-01   1.00800           0
     19762 MEMB     168      CHL1     C17      CRL1    -0.900000E-01   12.0110           0
     19763 MEMB     168      CHL1     H17      HGA1     0.900000E-01   1.00800           0
     19764 MEMB     168      CHL1     C13      CRL1      0.00000       12.0110           0
     19765 MEMB     168      CHL1     C18      CTL3    -0.270000       12.0110           0
     19766 MEMB     168      CHL1     H18A     HAL3     0.900000E-01   1.00800           0
     19767 MEMB     168      CHL1     H18B     HAL3     0.900000E-01   1.00800           0
     19768 MEMB     168      CHL1     H18C     HAL3     0.900000E-01   1.00800           0
     19769 MEMB     168      CHL1     C12      CRL2    -0.180000       12.0110           0
     19770 MEMB     168      CHL1     H12A     HGA2     0.900000E-01   1.00800           0
     19771 MEMB     168      CHL1     H12B     HGA2     0.900000E-01   1.00800           0
     19772 MEMB     168      CHL1     C11      CRL2    -0.180000       12.0110           0
     19773 MEMB     168      CHL1     H11A     HGA2     0.900000E-01   1.00800           0
     19774 MEMB     168      CHL1     H11B     HGA2     0.900000E-01   1.00800           0
     19775 MEMB     168      CHL1     C9       CRL1    -0.900000E-01   12.0110           0
     19776 MEMB     168      CHL1     H9       HGA1     0.900000E-01   1.00800           0
     19777 MEMB     168      CHL1     C10      CRL1      0.00000       12.0110           0
     19778 MEMB     168      CHL1     C19      CTL3    -0.270000       12.0110           0
     19779 MEMB     168      CHL1     H19A     HAL3     0.900000E-01   1.00800           0
     19780 MEMB     168      CHL1     H19B     HAL3     0.900000E-01   1.00800           0
     19781 MEMB     168      CHL1     H19C     HAL3     0.900000E-01   1.00800           0
     19782 MEMB     168      CHL1     C1       CRL2    -0.180000       12.0110           0
     19783 MEMB     168      CHL1     H1A      HGA2     0.900000E-01   1.00800           0
     19784 MEMB     168      CHL1     H1B      HGA2     0.900000E-01   1.00800           0
     19785 MEMB     168      CHL1     C2       CRL2    -0.180000       12.0110           0
     19786 MEMB     168      CHL1     H2A      HGA2     0.900000E-01   1.00800           0
     19787 MEMB     168      CHL1     H2B      HGA2     0.900000E-01   1.00800           0
     19788 MEMB     168      CHL1     C20      CTL1    -0.900000E-01   12.0110           0
     19789 MEMB     168      CHL1     H20      HAL1     0.900000E-01   1.00800           0
     19790 MEMB     168      CHL1     C21      CTL3    -0.270000       12.0110           0
     19791 MEMB     168      CHL1     H21A     HAL3     0.900000E-01   1.00800           0
     19792 MEMB     168      CHL1     H21B     HAL3     0.900000E-01   1.00800           0
     19793 MEMB     168      CHL1     H21C     HAL3     0.900000E-01   1.00800           0
     19794 MEMB     168      CHL1     C22      CTL2    -0.180000       12.0110           0
     19795 MEMB     168      CHL1     H22A     HAL2     0.900000E-01   1.00800           0
     19796 MEMB     168      CHL1     H22B     HAL2     0.900000E-01   1.00800           0
     19797 MEMB     168      CHL1     C23      CTL2    -0.180000       12.0110           0
     19798 MEMB     168      CHL1     H23A     HAL2     0.900000E-01   1.00800           0
     19799 MEMB     168      CHL1     H23B     HAL2     0.900000E-01   1.00800           0
     19800 MEMB     168      CHL1     C24      CTL2    -0.180000       12.0110           0
     19801 MEMB     168      CHL1     H24A     HAL2     0.900000E-01   1.00800           0
     19802 MEMB     168      CHL1     H24B     HAL2     0.900000E-01   1.00800           0
     19803 MEMB     168      CHL1     C25      CTL1    -0.900000E-01   12.0110           0
     19804 MEMB     168      CHL1     H25      HAL1     0.900000E-01   1.00800           0
     19805 MEMB     168      CHL1     C26      CTL3    -0.270000       12.0110           0
     19806 MEMB     168      CHL1     H26A     HAL3     0.900000E-01   1.00800           0
     19807 MEMB     168      CHL1     H26B     HAL3     0.900000E-01   1.00800           0
     19808 MEMB     168      CHL1     H26C     HAL3     0.900000E-01   1.00800           0
     19809 MEMB     168      CHL1     C27      CTL3    -0.270000       12.0110           0
     19810 MEMB     168      CHL1     H27A     HAL3     0.900000E-01   1.00800           0
     19811 MEMB     168      CHL1     H27B     HAL3     0.900000E-01   1.00800           0
     19812 MEMB     168      CHL1     H27C     HAL3     0.900000E-01   1.00800           0
     19813 MEMB     169      CHL1     C3       CRL1     0.140000       12.0110           0
     19814 MEMB     169      CHL1     H3       HGA1     0.900000E-01   1.00800           0
     19815 MEMB     169      CHL1     O3       OHL     -0.660000       15.9994           0
     19816 MEMB     169      CHL1     H3'      HOL      0.430000       1.00800           0
     19817 MEMB     169      CHL1     C4       CRL2    -0.180000       12.0110           0
     19818 MEMB     169      CHL1     H4A      HGA2     0.900000E-01   1.00800           0
     19819 MEMB     169      CHL1     H4B      HGA2     0.900000E-01   1.00800           0
     19820 MEMB     169      CHL1     C5       CEL1      0.00000       12.0110           0
     19821 MEMB     169      CHL1     C6       CEL1    -0.150000       12.0110           0
     19822 MEMB     169      CHL1     H6       HEL1     0.150000       1.00800           0
     19823 MEMB     169      CHL1     C7       CRL2    -0.180000       12.0110           0
     19824 MEMB     169      CHL1     H7A      HGA2     0.900000E-01   1.00800           0
     19825 MEMB     169      CHL1     H7B      HGA2     0.900000E-01   1.00800           0
     19826 MEMB     169      CHL1     C8       CRL1    -0.900000E-01   12.0110           0
     19827 MEMB     169      CHL1     H8       HGA1     0.900000E-01   1.00800           0
     19828 MEMB     169      CHL1     C14      CRL1    -0.900000E-01   12.0110           0
     19829 MEMB     169      CHL1     H14      HGA1     0.900000E-01   1.00800           0
     19830 MEMB     169      CHL1     C15      CRL2    -0.180000       12.0110           0
     19831 MEMB     169      CHL1     H15A     HGA2     0.900000E-01   1.00800           0
     19832 MEMB     169      CHL1     H15B     HGA2     0.900000E-01   1.00800           0
     19833 MEMB     169      CHL1     C16      CRL2    -0.180000       12.0110           0
     19834 MEMB     169      CHL1     H16A     HGA2     0.900000E-01   1.00800           0
     19835 MEMB     169      CHL1     H16B     HGA2     0.900000E-01   1.00800           0
     19836 MEMB     169      CHL1     C17      CRL1    -0.900000E-01   12.0110           0
     19837 MEMB     169      CHL1     H17      HGA1     0.900000E-01   1.00800           0
     19838 MEMB     169      CHL1     C13      CRL1      0.00000       12.0110           0
     19839 MEMB     169      CHL1     C18      CTL3    -0.270000       12.0110           0
     19840 MEMB     169      CHL1     H18A     HAL3     0.900000E-01   1.00800           0
     19841 MEMB     169      CHL1     H18B     HAL3     0.900000E-01   1.00800           0
     19842 MEMB     169      CHL1     H18C     HAL3     0.900000E-01   1.00800           0
     19843 MEMB     169      CHL1     C12      CRL2    -0.180000       12.0110           0
     19844 MEMB     169      CHL1     H12A     HGA2     0.900000E-01   1.00800           0
     19845 MEMB     169      CHL1     H12B     HGA2     0.900000E-01   1.00800           0
     19846 MEMB     169      CHL1     C11      CRL2    -0.180000       12.0110           0
     19847 MEMB     169      CHL1     H11A     HGA2     0.900000E-01   1.00800           0
     19848 MEMB     169      CHL1     H11B     HGA2     0.900000E-01   1.00800           0
     19849 MEMB     169      CHL1     C9       CRL1    -0.900000E-01   12.0110           0
     19850 MEMB     169      CHL1     H9       HGA1     0.900000E-01   1.00800           0
     19851 MEMB     169      CHL1     C10      CRL1      0.00000       12.0110           0
     19852 MEMB     169      CHL1     C19      CTL3    -0.270000       12.0110           0
     19853 MEMB     169      CHL1     H19A     HAL3     0.900000E-01   1.00800           0
     19854 MEMB     169      CHL1     H19B     HAL3     0.900000E-01   1.00800           0
     19855 MEMB     169      CHL1     H19C     HAL3     0.900000E-01   1.00800           0
     19856 MEMB     169      CHL1     C1       CRL2    -0.180000       12.0110           0
     19857 MEMB     169      CHL1     H1A      HGA2     0.900000E-01   1.00800           0
     19858 MEMB     169      CHL1     H1B      HGA2     0.900000E-01   1.00800           0
     19859 MEMB     169      CHL1     C2       CRL2    -0.180000       12.0110           0
     19860 MEMB     169      CHL1     H2A      HGA2     0.900000E-01   1.00800           0
     19861 MEMB     169      CHL1     H2B      HGA2     0.900000E-01   1.00800           0
     19862 MEMB     169      CHL1     C20      CTL1    -0.900000E-01   12.0110           0
     19863 MEMB     169      CHL1     H20      HAL1     0.900000E-01   1.00800           0
     19864 MEMB     169      CHL1     C21      CTL3    -0.270000       12.0110           0
     19865 MEMB     169      CHL1     H21A     HAL3     0.900000E-01   1.00800           0
     19866 MEMB     169      CHL1     H21B     HAL3     0.900000E-01   1.00800           0
     19867 MEMB     169      CHL1     H21C     HAL3     0.900000E-01   1.00800           0
     19868 MEMB     169      CHL1     C22      CTL2    -0.180000       12.0110           0
     19869 MEMB     169      CHL1     H22A     HAL2     0.900000E-01   1.00800           0
     19870 MEMB     169      CHL1     H22B     HAL2     0.900000E-01   1.00800           0
     19871 MEMB     169      CHL1     C23      CTL2    -0.180000       12.0110           0
     19872 MEMB     169      CHL1     H23A     HAL2     0.900000E-01   1.00800           0
     19873 MEMB     169      CHL1     H23B     HAL2     0.900000E-01   1.00800           0
     19874 MEMB     169      CHL1     C24      CTL2    -0.180000       12.0110           0
     19875 MEMB     169      CHL1     H24A     HAL2     0.900000E-01   1.00800           0
     19876 MEMB     169      CHL1     H24B     HAL2     0.900000E-01   1.00800           0
     19877 MEMB     169      CHL1     C25      CTL1    -0.900000E-01   12.0110           0
     19878 MEMB     169      CHL1     H25      HAL1     0.900000E-01   1.00800           0
     19879 MEMB     169      CHL1     C26      CTL3    -0.270000       12.0110           0
     19880 MEMB     169      CHL1     H26A     HAL3     0.900000E-01   1.00800           0
     19881 MEMB     169      CHL1     H26B     HAL3     0.900000E-01   1.00800           0
     19882 MEMB     169      CHL1     H26C     HAL3     0.900000E-01   1.00800           0
     19883 MEMB     169      CHL1     C27      CTL3    -0.270000       12.0110           0
     19884 MEMB     169      CHL1     H27A     HAL3     0.900000E-01   1.00800           0
     19885 MEMB     169      CHL1     H27B     HAL3     0.900000E-01   1.00800           0
     19886 MEMB     169      CHL1     H27C     HAL3     0.900000E-01   1.00800           0
     19887 MEMB     170      CHL1     C3       CRL1     0.140000       12.0110           0
     19888 MEMB     170      CHL1     H3       HGA1     0.900000E-01   1.00800           0
     19889 MEMB     170      CHL1     O3       OHL     -0.660000       15.9994           0
     19890 MEMB     170      CHL1     H3'      HOL      0.430000       1.00800           0
     19891 MEMB     170      CHL1     C4       CRL2    -0.180000       12.0110           0
     19892 MEMB     170      CHL1     H4A      HGA2     0.900000E-01   1.00800           0
     19893 MEMB     170      CHL1     H4B      HGA2     0.900000E-01   1.00800           0
     19894 MEMB     170      CHL1     C5       CEL1      0.00000       12.0110           0
     19895 MEMB     170      CHL1     C6       CEL1    -0.150000       12.0110           0
     19896 MEMB     170      CHL1     H6       HEL1     0.150000       1.00800           0
     19897 MEMB     170      CHL1     C7       CRL2    -0.180000       12.0110           0
     19898 MEMB     170      CHL1     H7A      HGA2     0.900000E-01   1.00800           0
     19899 MEMB     170      CHL1     H7B      HGA2     0.900000E-01   1.00800           0
     19900 MEMB     170      CHL1     C8       CRL1    -0.900000E-01   12.0110           0
     19901 MEMB     170      CHL1     H8       HGA1     0.900000E-01   1.00800           0
     19902 MEMB     170      CHL1     C14      CRL1    -0.900000E-01   12.0110           0
     19903 MEMB     170      CHL1     H14      HGA1     0.900000E-01   1.00800           0
     19904 MEMB     170      CHL1     C15      CRL2    -0.180000       12.0110           0
     19905 MEMB     170      CHL1     H15A     HGA2     0.900000E-01   1.00800           0
     19906 MEMB     170      CHL1     H15B     HGA2     0.900000E-01   1.00800           0
     19907 MEMB     170      CHL1     C16      CRL2    -0.180000       12.0110           0
     19908 MEMB     170      CHL1     H16A     HGA2     0.900000E-01   1.00800           0
     19909 MEMB     170      CHL1     H16B     HGA2     0.900000E-01   1.00800           0
     19910 MEMB     170      CHL1     C17      CRL1    -0.900000E-01   12.0110           0
     19911 MEMB     170      CHL1     H17      HGA1     0.900000E-01   1.00800           0
     19912 MEMB     170      CHL1     C13      CRL1      0.00000       12.0110           0
     19913 MEMB     170      CHL1     C18      CTL3    -0.270000       12.0110           0
     19914 MEMB     170      CHL1     H18A     HAL3     0.900000E-01   1.00800           0
     19915 MEMB     170      CHL1     H18B     HAL3     0.900000E-01   1.00800           0
     19916 MEMB     170      CHL1     H18C     HAL3     0.900000E-01   1.00800           0
     19917 MEMB     170      CHL1     C12      CRL2    -0.180000       12.0110           0
     19918 MEMB     170      CHL1     H12A     HGA2     0.900000E-01   1.00800           0
     19919 MEMB     170      CHL1     H12B     HGA2     0.900000E-01   1.00800           0
     19920 MEMB     170      CHL1     C11      CRL2    -0.180000       12.0110           0
     19921 MEMB     170      CHL1     H11A     HGA2     0.900000E-01   1.00800           0
     19922 MEMB     170      CHL1     H11B     HGA2     0.900000E-01   1.00800           0
     19923 MEMB     170      CHL1     C9       CRL1    -0.900000E-01   12.0110           0
     19924 MEMB     170      CHL1     H9       HGA1     0.900000E-01   1.00800           0
     19925 MEMB     170      CHL1     C10      CRL1      0.00000       12.0110           0
     19926 MEMB     170      CHL1     C19      CTL3    -0.270000       12.0110           0
     19927 MEMB     170      CHL1     H19A     HAL3     0.900000E-01   1.00800           0
     19928 MEMB     170      CHL1     H19B     HAL3     0.900000E-01   1.00800           0
     19929 MEMB     170      CHL1     H19C     HAL3     0.900000E-01   1.00800           0
     19930 MEMB     170      CHL1     C1       CRL2    -0.180000       12.0110           0
     19931 MEMB     170      CHL1     H1A      HGA2     0.900000E-01   1.00800           0
     19932 MEMB     170      CHL1     H1B      HGA2     0.900000E-01   1.00800           0
     19933 MEMB     170      CHL1     C2       CRL2    -0.180000       12.0110           0
     19934 MEMB     170      CHL1     H2A      HGA2     0.900000E-01   1.00800           0
     19935 MEMB     170      CHL1     H2B      HGA2     0.900000E-01   1.00800           0
     19936 MEMB     170      CHL1     C20      CTL1    -0.900000E-01   12.0110           0
     19937 MEMB     170      CHL1     H20      HAL1     0.900000E-01   1.00800           0
     19938 MEMB     170      CHL1     C21      CTL3    -0.270000       12.0110           0
     19939 MEMB     170      CHL1     H21A     HAL3     0.900000E-01   1.00800           0
     19940 MEMB     170      CHL1     H21B     HAL3     0.900000E-01   1.00800           0
     19941 MEMB     170      CHL1     H21C     HAL3     0.900000E-01   1.00800           0
     19942 MEMB     170      CHL1     C22      CTL2    -0.180000       12.0110           0
     19943 MEMB     170      CHL1     H22A     HAL2     0.900000E-01   1.00800           0
     19944 MEMB     170      CHL1     H22B     HAL2     0.900000E-01   1.00800           0
     19945 MEMB     170      CHL1     C23      CTL2    -0.180000       12.0110           0
     19946 MEMB     170      CHL1     H23A     HAL2     0.900000E-01   1.00800           0
     19947 MEMB     170      CHL1     H23B     HAL2     0.900000E-01   1.00800           0
     19948 MEMB     170      CHL1     C24      CTL2    -0.180000       12.0110           0
     19949 MEMB     170      CHL1     H24A     HAL2     0.900000E-01   1.00800           0
     19950 MEMB     170      CHL1     H24B     HAL2     0.900000E-01   1.00800           0
     19951 MEMB     170      CHL1     C25      CTL1    -0.900000E-01   12.0110           0
     19952 MEMB     170      CHL1     H25      HAL1     0.900000E-01   1.00800           0
     19953 MEMB     170      CHL1     C26      CTL3    -0.270000       12.0110           0
     19954 MEMB     170      CHL1     H26A     HAL3     0.900000E-01   1.00800           0
     19955 MEMB     170      CHL1     H26B     HAL3     0.900000E-01   1.00800           0
     19956 MEMB     170      CHL1     H26C     HAL3     0.900000E-01   1.00800           0
     19957 MEMB     170      CHL1     C27      CTL3    -0.270000       12.0110           0
     19958 MEMB     170      CHL1     H27A     HAL3     0.900000E-01   1.00800           0
     19959 MEMB     170      CHL1     H27B     HAL3     0.900000E-01   1.00800           0
     19960 MEMB     170      CHL1     H27C     HAL3     0.900000E-01   1.00800           0
     19961 MEMB     171      CHL1     C3       CRL1     0.140000       12.0110           0
     19962 MEMB     171      CHL1     H3       HGA1     0.900000E-01   1.00800           0
     19963 MEMB     171      CHL1     O3       OHL     -0.660000       15.9994           0
     19964 MEMB     171      CHL1     H3'      HOL      0.430000       1.00800           0
     19965 MEMB     171      CHL1     C4       CRL2    -0.180000       12.0110           0
     19966 MEMB     171      CHL1     H4A      HGA2     0.900000E-01   1.00800           0
     19967 MEMB     171      CHL1     H4B      HGA2     0.900000E-01   1.00800           0
     19968 MEMB     171      CHL1     C5       CEL1      0.00000       12.0110           0
     19969 MEMB     171      CHL1     C6       CEL1    -0.150000       12.0110           0
     19970 MEMB     171      CHL1     H6       HEL1     0.150000       1.00800           0
     19971 MEMB     171      CHL1     C7       CRL2    -0.180000       12.0110           0
     19972 MEMB     171      CHL1     H7A      HGA2     0.900000E-01   1.00800           0
     19973 MEMB     171      CHL1     H7B      HGA2     0.900000E-01   1.00800           0
     19974 MEMB     171      CHL1     C8       CRL1    -0.900000E-01   12.0110           0
     19975 MEMB     171      CHL1     H8       HGA1     0.900000E-01   1.00800           0
     19976 MEMB     171      CHL1     C14      CRL1    -0.900000E-01   12.0110           0
     19977 MEMB     171      CHL1     H14      HGA1     0.900000E-01   1.00800           0
     19978 MEMB     171      CHL1     C15      CRL2    -0.180000       12.0110           0
     19979 MEMB     171      CHL1     H15A     HGA2     0.900000E-01   1.00800           0
     19980 MEMB     171      CHL1     H15B     HGA2     0.900000E-01   1.00800           0
     19981 MEMB     171      CHL1     C16      CRL2    -0.180000       12.0110           0
     19982 MEMB     171      CHL1     H16A     HGA2     0.900000E-01   1.00800           0
     19983 MEMB     171      CHL1     H16B     HGA2     0.900000E-01   1.00800           0
     19984 MEMB     171      CHL1     C17      CRL1    -0.900000E-01   12.0110           0
     19985 MEMB     171      CHL1     H17      HGA1     0.900000E-01   1.00800           0
     19986 MEMB     171      CHL1     C13      CRL1      0.00000       12.0110           0
     19987 MEMB     171      CHL1     C18      CTL3    -0.270000       12.0110           0
     19988 MEMB     171      CHL1     H18A     HAL3     0.900000E-01   1.00800           0
     19989 MEMB     171      CHL1     H18B     HAL3     0.900000E-01   1.00800           0
     19990 MEMB     171      CHL1     H18C     HAL3     0.900000E-01   1.00800           0
     19991 MEMB     171      CHL1     C12      CRL2    -0.180000       12.0110           0
     19992 MEMB     171      CHL1     H12A     HGA2     0.900000E-01   1.00800           0
     19993 MEMB     171      CHL1     H12B     HGA2     0.900000E-01   1.00800           0
     19994 MEMB     171      CHL1     C11      CRL2    -0.180000       12.0110           0
     19995 MEMB     171      CHL1     H11A     HGA2     0.900000E-01   1.00800           0
     19996 MEMB     171      CHL1     H11B     HGA2     0.900000E-01   1.00800           0
     19997 MEMB     171      CHL1     C9       CRL1    -0.900000E-01   12.0110           0
     19998 MEMB     171      CHL1     H9       HGA1     0.900000E-01   1.00800           0
     19999 MEMB     171      CHL1     C10      CRL1      0.00000       12.0110           0
     20000 MEMB     171      CHL1     C19      CTL3    -0.270000       12.0110           0
     20001 MEMB     171      CHL1     H19A     HAL3     0.900000E-01   1.00800           0
     20002 MEMB     171      CHL1     H19B     HAL3     0.900000E-01   1.00800           0
     20003 MEMB     171      CHL1     H19C     HAL3     0.900000E-01   1.00800           0
     20004 MEMB     171      CHL1     C1       CRL2    -0.180000       12.0110           0
     20005 MEMB     171      CHL1     H1A      HGA2     0.900000E-01   1.00800           0
     20006 MEMB     171      CHL1     H1B      HGA2     0.900000E-01   1.00800           0
     20007 MEMB     171      CHL1     C2       CRL2    -0.180000       12.0110           0
     20008 MEMB     171      CHL1     H2A      HGA2     0.900000E-01   1.00800           0
     20009 MEMB     171      CHL1     H2B      HGA2     0.900000E-01   1.00800           0
     20010 MEMB     171      CHL1     C20      CTL1    -0.900000E-01   12.0110           0
     20011 MEMB     171      CHL1     H20      HAL1     0.900000E-01   1.00800           0
     20012 MEMB     171      CHL1     C21      CTL3    -0.270000       12.0110           0
     20013 MEMB     171      CHL1     H21A     HAL3     0.900000E-01   1.00800           0
     20014 MEMB     171      CHL1     H21B     HAL3     0.900000E-01   1.00800           0
     20015 MEMB     171      CHL1     H21C     HAL3     0.900000E-01   1.00800           0
     20016 MEMB     171      CHL1     C22      CTL2    -0.180000       12.0110           0
     20017 MEMB     171      CHL1     H22A     HAL2     0.900000E-01   1.00800           0
     20018 MEMB     171      CHL1     H22B     HAL2     0.900000E-01   1.00800           0
     20019 MEMB     171      CHL1     C23      CTL2    -0.180000       12.0110           0
     20020 MEMB     171      CHL1     H23A     HAL2     0.900000E-01   1.00800           0
     20021 MEMB     171      CHL1     H23B     HAL2     0.900000E-01   1.00800           0
     20022 MEMB     171      CHL1     C24      CTL2    -0.180000       12.0110           0
     20023 MEMB     171      CHL1     H24A     HAL2     0.900000E-01   1.00800           0
     20024 MEMB     171      CHL1     H24B     HAL2     0.900000E-01   1.00800           0
     20025 MEMB     171      CHL1     C25      CTL1    -0.900000E-01   12.0110           0
     20026 MEMB     171      CHL1     H25      HAL1     0.900000E-01   1.00800           0
     20027 MEMB     171      CHL1     C26      CTL3    -0.270000       12.0110           0
     20028 MEMB     171      CHL1     H26A     HAL3     0.900000E-01   1.00800           0
     20029 MEMB     171      CHL1     H26B     HAL3     0.900000E-01   1.00800           0
     20030 MEMB     171      CHL1     H26C     HAL3     0.900000E-01   1.00800           0
     20031 MEMB     171      CHL1     C27      CTL3    -0.270000       12.0110           0
     20032 MEMB     171      CHL1     H27A     HAL3     0.900000E-01   1.00800           0
     20033 MEMB     171      CHL1     H27B     HAL3     0.900000E-01   1.00800           0
     20034 MEMB     171      CHL1     H27C     HAL3     0.900000E-01   1.00800           0
     20035 MEMB     172      CHL1     C3       CRL1     0.140000       12.0110           0
     20036 MEMB     172      CHL1     H3       HGA1     0.900000E-01   1.00800           0
     20037 MEMB     172      CHL1     O3       OHL     -0.660000       15.9994           0
     20038 MEMB     172      CHL1     H3'      HOL      0.430000       1.00800           0
     20039 MEMB     172      CHL1     C4       CRL2    -0.180000       12.0110           0
     20040 MEMB     172      CHL1     H4A      HGA2     0.900000E-01   1.00800           0
     20041 MEMB     172      CHL1     H4B      HGA2     0.900000E-01   1.00800           0
     20042 MEMB     172      CHL1     C5       CEL1      0.00000       12.0110           0
     20043 MEMB     172      CHL1     C6       CEL1    -0.150000       12.0110           0
     20044 MEMB     172      CHL1     H6       HEL1     0.150000       1.00800           0
     20045 MEMB     172      CHL1     C7       CRL2    -0.180000       12.0110           0
     20046 MEMB     172      CHL1     H7A      HGA2     0.900000E-01   1.00800           0
     20047 MEMB     172      CHL1     H7B      HGA2     0.900000E-01   1.00800           0
     20048 MEMB     172      CHL1     C8       CRL1    -0.900000E-01   12.0110           0
     20049 MEMB     172      CHL1     H8       HGA1     0.900000E-01   1.00800           0
     20050 MEMB     172      CHL1     C14      CRL1    -0.900000E-01   12.0110           0
     20051 MEMB     172      CHL1     H14      HGA1     0.900000E-01   1.00800           0
     20052 MEMB     172      CHL1     C15      CRL2    -0.180000       12.0110           0
     20053 MEMB     172      CHL1     H15A     HGA2     0.900000E-01   1.00800           0
     20054 MEMB     172      CHL1     H15B     HGA2     0.900000E-01   1.00800           0
     20055 MEMB     172      CHL1     C16      CRL2    -0.180000       12.0110           0
     20056 MEMB     172      CHL1     H16A     HGA2     0.900000E-01   1.00800           0
     20057 MEMB     172      CHL1     H16B     HGA2     0.900000E-01   1.00800           0
     20058 MEMB     172      CHL1     C17      CRL1    -0.900000E-01   12.0110           0
     20059 MEMB     172      CHL1     H17      HGA1     0.900000E-01   1.00800           0
     20060 MEMB     172      CHL1     C13      CRL1      0.00000       12.0110           0
     20061 MEMB     172      CHL1     C18      CTL3    -0.270000       12.0110           0
     20062 MEMB     172      CHL1     H18A     HAL3     0.900000E-01   1.00800           0
     20063 MEMB     172      CHL1     H18B     HAL3     0.900000E-01   1.00800           0
     20064 MEMB     172      CHL1     H18C     HAL3     0.900000E-01   1.00800           0
     20065 MEMB     172      CHL1     C12      CRL2    -0.180000       12.0110           0
     20066 MEMB     172      CHL1     H12A     HGA2     0.900000E-01   1.00800           0
     20067 MEMB     172      CHL1     H12B     HGA2     0.900000E-01   1.00800           0
     20068 MEMB     172      CHL1     C11      CRL2    -0.180000       12.0110           0
     20069 MEMB     172      CHL1     H11A     HGA2     0.900000E-01   1.00800           0
     20070 MEMB     172      CHL1     H11B     HGA2     0.900000E-01   1.00800           0
     20071 MEMB     172      CHL1     C9       CRL1    -0.900000E-01   12.0110           0
     20072 MEMB     172      CHL1     H9       HGA1     0.900000E-01   1.00800           0
     20073 MEMB     172      CHL1     C10      CRL1      0.00000       12.0110           0
     20074 MEMB     172      CHL1     C19      CTL3    -0.270000       12.0110           0
     20075 MEMB     172      CHL1     H19A     HAL3     0.900000E-01   1.00800           0
     20076 MEMB     172      CHL1     H19B     HAL3     0.900000E-01   1.00800           0
     20077 MEMB     172      CHL1     H19C     HAL3     0.900000E-01   1.00800           0
     20078 MEMB     172      CHL1     C1       CRL2    -0.180000       12.0110           0
     20079 MEMB     172      CHL1     H1A      HGA2     0.900000E-01   1.00800           0
     20080 MEMB     172      CHL1     H1B      HGA2     0.900000E-01   1.00800           0
     20081 MEMB     172      CHL1     C2       CRL2    -0.180000       12.0110           0
     20082 MEMB     172      CHL1     H2A      HGA2     0.900000E-01   1.00800           0
     20083 MEMB     172      CHL1     H2B      HGA2     0.900000E-01   1.00800           0
     20084 MEMB     172      CHL1     C20      CTL1    -0.900000E-01   12.0110           0
     20085 MEMB     172      CHL1     H20      HAL1     0.900000E-01   1.00800           0
     20086 MEMB     172      CHL1     C21      CTL3    -0.270000       12.0110           0
     20087 MEMB     172      CHL1     H21A     HAL3     0.900000E-01   1.00800           0
     20088 MEMB     172      CHL1     H21B     HAL3     0.900000E-01   1.00800           0
     20089 MEMB     172      CHL1     H21C     HAL3     0.900000E-01   1.00800           0
     20090 MEMB     172      CHL1     C22      CTL2    -0.180000       12.0110           0
     20091 MEMB     172      CHL1     H22A     HAL2     0.900000E-01   1.00800           0
     20092 MEMB     172      CHL1     H22B     HAL2     0.900000E-01   1.00800           0
     20093 MEMB     172      CHL1     C23      CTL2    -0.180000       12.0110           0
     20094 MEMB     172      CHL1     H23A     HAL2     0.900000E-01   1.00800           0
     20095 MEMB     172      CHL1     H23B     HAL2     0.900000E-01   1.00800           0
     20096 MEMB     172      CHL1     C24      CTL2    -0.180000       12.0110           0
     20097 MEMB     172      CHL1     H24A     HAL2     0.900000E-01   1.00800           0
     20098 MEMB     172      CHL1     H24B     HAL2     0.900000E-01   1.00800           0
     20099 MEMB     172      CHL1     C25      CTL1    -0.900000E-01   12.0110           0
     20100 MEMB     172      CHL1     H25      HAL1     0.900000E-01   1.00800           0
     20101 MEMB     172      CHL1     C26      CTL3    -0.270000       12.0110           0
     20102 MEMB     172      CHL1     H26A     HAL3     0.900000E-01   1.00800           0
     20103 MEMB     172      CHL1     H26B     HAL3     0.900000E-01   1.00800           0
     20104 MEMB     172      CHL1     H26C     HAL3     0.900000E-01   1.00800           0
     20105 MEMB     172      CHL1     C27      CTL3    -0.270000       12.0110           0
     20106 MEMB     172      CHL1     H27A     HAL3     0.900000E-01   1.00800           0
     20107 MEMB     172      CHL1     H27B     HAL3     0.900000E-01   1.00800           0
     20108 MEMB     172      CHL1     H27C     HAL3     0.900000E-01   1.00800           0
     20109 MEMB     173      CHL1     C3       CRL1     0.140000       12.0110           0
     20110 MEMB     173      CHL1     H3       HGA1     0.900000E-01   1.00800           0
     20111 MEMB     173      CHL1     O3       OHL     -0.660000       15.9994           0
     20112 MEMB     173      CHL1     H3'      HOL      0.430000       1.00800           0
     20113 MEMB     173      CHL1     C4       CRL2    -0.180000       12.0110           0
     20114 MEMB     173      CHL1     H4A      HGA2     0.900000E-01   1.00800           0
     20115 MEMB     173      CHL1     H4B      HGA2     0.900000E-01   1.00800           0
     20116 MEMB     173      CHL1     C5       CEL1      0.00000       12.0110           0
     20117 MEMB     173      CHL1     C6       CEL1    -0.150000       12.0110           0
     20118 MEMB     173      CHL1     H6       HEL1     0.150000       1.00800           0
     20119 MEMB     173      CHL1     C7       CRL2    -0.180000       12.0110           0
     20120 MEMB     173      CHL1     H7A      HGA2     0.900000E-01   1.00800           0
     20121 MEMB     173      CHL1     H7B      HGA2     0.900000E-01   1.00800           0
     20122 MEMB     173      CHL1     C8       CRL1    -0.900000E-01   12.0110           0
     20123 MEMB     173      CHL1     H8       HGA1     0.900000E-01   1.00800           0
     20124 MEMB     173      CHL1     C14      CRL1    -0.900000E-01   12.0110           0
     20125 MEMB     173      CHL1     H14      HGA1     0.900000E-01   1.00800           0
     20126 MEMB     173      CHL1     C15      CRL2    -0.180000       12.0110           0
     20127 MEMB     173      CHL1     H15A     HGA2     0.900000E-01   1.00800           0
     20128 MEMB     173      CHL1     H15B     HGA2     0.900000E-01   1.00800           0
     20129 MEMB     173      CHL1     C16      CRL2    -0.180000       12.0110           0
     20130 MEMB     173      CHL1     H16A     HGA2     0.900000E-01   1.00800           0
     20131 MEMB     173      CHL1     H16B     HGA2     0.900000E-01   1.00800           0
     20132 MEMB     173      CHL1     C17      CRL1    -0.900000E-01   12.0110           0
     20133 MEMB     173      CHL1     H17      HGA1     0.900000E-01   1.00800           0
     20134 MEMB     173      CHL1     C13      CRL1      0.00000       12.0110           0
     20135 MEMB     173      CHL1     C18      CTL3    -0.270000       12.0110           0
     20136 MEMB     173      CHL1     H18A     HAL3     0.900000E-01   1.00800           0
     20137 MEMB     173      CHL1     H18B     HAL3     0.900000E-01   1.00800           0
     20138 MEMB     173      CHL1     H18C     HAL3     0.900000E-01   1.00800           0
     20139 MEMB     173      CHL1     C12      CRL2    -0.180000       12.0110           0
     20140 MEMB     173      CHL1     H12A     HGA2     0.900000E-01   1.00800           0
     20141 MEMB     173      CHL1     H12B     HGA2     0.900000E-01   1.00800           0
     20142 MEMB     173      CHL1     C11      CRL2    -0.180000       12.0110           0
     20143 MEMB     173      CHL1     H11A     HGA2     0.900000E-01   1.00800           0
     20144 MEMB     173      CHL1     H11B     HGA2     0.900000E-01   1.00800           0
     20145 MEMB     173      CHL1     C9       CRL1    -0.900000E-01   12.0110           0
     20146 MEMB     173      CHL1     H9       HGA1     0.900000E-01   1.00800           0
     20147 MEMB     173      CHL1     C10      CRL1      0.00000       12.0110           0
     20148 MEMB     173      CHL1     C19      CTL3    -0.270000       12.0110           0
     20149 MEMB     173      CHL1     H19A     HAL3     0.900000E-01   1.00800           0
     20150 MEMB     173      CHL1     H19B     HAL3     0.900000E-01   1.00800           0
     20151 MEMB     173      CHL1     H19C     HAL3     0.900000E-01   1.00800           0
     20152 MEMB     173      CHL1     C1       CRL2    -0.180000       12.0110           0
     20153 MEMB     173      CHL1     H1A      HGA2     0.900000E-01   1.00800           0
     20154 MEMB     173      CHL1     H1B      HGA2     0.900000E-01   1.00800           0
     20155 MEMB     173      CHL1     C2       CRL2    -0.180000       12.0110           0
     20156 MEMB     173      CHL1     H2A      HGA2     0.900000E-01   1.00800           0
     20157 MEMB     173      CHL1     H2B      HGA2     0.900000E-01   1.00800           0
     20158 MEMB     173      CHL1     C20      CTL1    -0.900000E-01   12.0110           0
     20159 MEMB     173      CHL1     H20      HAL1     0.900000E-01   1.00800           0
     20160 MEMB     173      CHL1     C21      CTL3    -0.270000       12.0110           0
     20161 MEMB     173      CHL1     H21A     HAL3     0.900000E-01   1.00800           0
     20162 MEMB     173      CHL1     H21B     HAL3     0.900000E-01   1.00800           0
     20163 MEMB     173      CHL1     H21C     HAL3     0.900000E-01   1.00800           0
     20164 MEMB     173      CHL1     C22      CTL2    -0.180000       12.0110           0
     20165 MEMB     173      CHL1     H22A     HAL2     0.900000E-01   1.00800           0
     20166 MEMB     173      CHL1     H22B     HAL2     0.900000E-01   1.00800           0
     20167 MEMB     173      CHL1     C23      CTL2    -0.180000       12.0110           0
     20168 MEMB     173      CHL1     H23A     HAL2     0.900000E-01   1.00800           0
     20169 MEMB     173      CHL1     H23B     HAL2     0.900000E-01   1.00800           0
     20170 MEMB     173      CHL1     C24      CTL2    -0.180000       12.0110           0
     20171 MEMB     173      CHL1     H24A     HAL2     0.900000E-01   1.00800           0
     20172 MEMB     173      CHL1     H24B     HAL2     0.900000E-01   1.00800           0
     20173 MEMB     173      CHL1     C25      CTL1    -0.900000E-01   12.0110           0
     20174 MEMB     173      CHL1     H25      HAL1     0.900000E-01   1.00800           0
     20175 MEMB     173      CHL1     C26      CTL3    -0.270000       12.0110           0
     20176 MEMB     173      CHL1     H26A     HAL3     0.900000E-01   1.00800           0
     20177 MEMB     173      CHL1     H26B     HAL3     0.900000E-01   1.00800           0
     20178 MEMB     173      CHL1     H26C     HAL3     0.900000E-01   1.00800           0
     20179 MEMB     173      CHL1     C27      CTL3    -0.270000       12.0110           0
     20180 MEMB     173      CHL1     H27A     HAL3     0.900000E-01   1.00800           0
     20181 MEMB     173      CHL1     H27B     HAL3     0.900000E-01   1.00800           0
     20182 MEMB     173      CHL1     H27C     HAL3     0.900000E-01   1.00800           0
     20183 MEMB     174      CHL1     C3       CRL1     0.140000       12.0110           0
     20184 MEMB     174      CHL1     H3       HGA1     0.900000E-01   1.00800           0
     20185 MEMB     174      CHL1     O3       OHL     -0.660000       15.9994           0
     20186 MEMB     174      CHL1     H3'      HOL      0.430000       1.00800           0
     20187 MEMB     174      CHL1     C4       CRL2    -0.180000       12.0110           0
     20188 MEMB     174      CHL1     H4A      HGA2     0.900000E-01   1.00800           0
     20189 MEMB     174      CHL1     H4B      HGA2     0.900000E-01   1.00800           0
     20190 MEMB     174      CHL1     C5       CEL1      0.00000       12.0110           0
     20191 MEMB     174      CHL1     C6       CEL1    -0.150000       12.0110           0
     20192 MEMB     174      CHL1     H6       HEL1     0.150000       1.00800           0
     20193 MEMB     174      CHL1     C7       CRL2    -0.180000       12.0110           0
     20194 MEMB     174      CHL1     H7A      HGA2     0.900000E-01   1.00800           0
     20195 MEMB     174      CHL1     H7B      HGA2     0.900000E-01   1.00800           0
     20196 MEMB     174      CHL1     C8       CRL1    -0.900000E-01   12.0110           0
     20197 MEMB     174      CHL1     H8       HGA1     0.900000E-01   1.00800           0
     20198 MEMB     174      CHL1     C14      CRL1    -0.900000E-01   12.0110           0
     20199 MEMB     174      CHL1     H14      HGA1     0.900000E-01   1.00800           0
     20200 MEMB     174      CHL1     C15      CRL2    -0.180000       12.0110           0
     20201 MEMB     174      CHL1     H15A     HGA2     0.900000E-01   1.00800           0
     20202 MEMB     174      CHL1     H15B     HGA2     0.900000E-01   1.00800           0
     20203 MEMB     174      CHL1     C16      CRL2    -0.180000       12.0110           0
     20204 MEMB     174      CHL1     H16A     HGA2     0.900000E-01   1.00800           0
     20205 MEMB     174      CHL1     H16B     HGA2     0.900000E-01   1.00800           0
     20206 MEMB     174      CHL1     C17      CRL1    -0.900000E-01   12.0110           0
     20207 MEMB     174      CHL1     H17      HGA1     0.900000E-01   1.00800           0
     20208 MEMB     174      CHL1     C13      CRL1      0.00000       12.0110           0
     20209 MEMB     174      CHL1     C18      CTL3    -0.270000       12.0110           0
     20210 MEMB     174      CHL1     H18A     HAL3     0.900000E-01   1.00800           0
     20211 MEMB     174      CHL1     H18B     HAL3     0.900000E-01   1.00800           0
     20212 MEMB     174      CHL1     H18C     HAL3     0.900000E-01   1.00800           0
     20213 MEMB     174      CHL1     C12      CRL2    -0.180000       12.0110           0
     20214 MEMB     174      CHL1     H12A     HGA2     0.900000E-01   1.00800           0
     20215 MEMB     174      CHL1     H12B     HGA2     0.900000E-01   1.00800           0
     20216 MEMB     174      CHL1     C11      CRL2    -0.180000       12.0110           0
     20217 MEMB     174      CHL1     H11A     HGA2     0.900000E-01   1.00800           0
     20218 MEMB     174      CHL1     H11B     HGA2     0.900000E-01   1.00800           0
     20219 MEMB     174      CHL1     C9       CRL1    -0.900000E-01   12.0110           0
     20220 MEMB     174      CHL1     H9       HGA1     0.900000E-01   1.00800           0
     20221 MEMB     174      CHL1     C10      CRL1      0.00000       12.0110           0
     20222 MEMB     174      CHL1     C19      CTL3    -0.270000       12.0110           0
     20223 MEMB     174      CHL1     H19A     HAL3     0.900000E-01   1.00800           0
     20224 MEMB     174      CHL1     H19B     HAL3     0.900000E-01   1.00800           0
     20225 MEMB     174      CHL1     H19C     HAL3     0.900000E-01   1.00800           0
     20226 MEMB     174      CHL1     C1       CRL2    -0.180000       12.0110           0
     20227 MEMB     174      CHL1     H1A      HGA2     0.900000E-01   1.00800           0
     20228 MEMB     174      CHL1     H1B      HGA2     0.900000E-01   1.00800           0
     20229 MEMB     174      CHL1     C2       CRL2    -0.180000       12.0110           0
     20230 MEMB     174      CHL1     H2A      HGA2     0.900000E-01   1.00800           0
     20231 MEMB     174      CHL1     H2B      HGA2     0.900000E-01   1.00800           0
     20232 MEMB     174      CHL1     C20      CTL1    -0.900000E-01   12.0110           0
     20233 MEMB     174      CHL1     H20      HAL1     0.900000E-01   1.00800           0
     20234 MEMB     174      CHL1     C21      CTL3    -0.270000       12.0110           0
     20235 MEMB     174      CHL1     H21A     HAL3     0.900000E-01   1.00800           0
     20236 MEMB     174      CHL1     H21B     HAL3     0.900000E-01   1.00800           0
     20237 MEMB     174      CHL1     H21C     HAL3     0.900000E-01   1.00800           0
     20238 MEMB     174      CHL1     C22      CTL2    -0.180000       12.0110           0
     20239 MEMB     174      CHL1     H22A     HAL2     0.900000E-01   1.00800           0
     20240 MEMB     174      CHL1     H22B     HAL2     0.900000E-01   1.00800           0
     20241 MEMB     174      CHL1     C23      CTL2    -0.180000       12.0110           0
     20242 MEMB     174      CHL1     H23A     HAL2     0.900000E-01   1.00800           0
     20243 MEMB     174      CHL1     H23B     HAL2     0.900000E-01   1.00800           0
     20244 MEMB     174      CHL1     C24      CTL2    -0.180000       12.0110           0
     20245 MEMB     174      CHL1     H24A     HAL2     0.900000E-01   1.00800           0
     20246 MEMB     174      CHL1     H24B     HAL2     0.900000E-01   1.00800           0
     20247 MEMB     174      CHL1     C25      CTL1    -0.900000E-01   12.0110           0
     20248 MEMB     174      CHL1     H25      HAL1     0.900000E-01   1.00800           0
     20249 MEMB     174      CHL1     C26      CTL3    -0.270000       12.0110           0
     20250 MEMB     174      CHL1     H26A     HAL3     0.900000E-01   1.00800           0
     20251 MEMB     174      CHL1     H26B     HAL3     0.900000E-01   1.00800           0
     20252 MEMB     174      CHL1     H26C     HAL3     0.900000E-01   1.00800           0
     20253 MEMB     174      CHL1     C27      CTL3    -0.270000       12.0110           0
     20254 MEMB     174      CHL1     H27A     HAL3     0.900000E-01   1.00800           0
     20255 MEMB     174      CHL1     H27B     HAL3     0.900000E-01   1.00800           0
     20256 MEMB     174      CHL1     H27C     HAL3     0.900000E-01   1.00800           0
     20257 MEMB     175      CHL1     C3       CRL1     0.140000       12.0110           0
     20258 MEMB     175      CHL1     H3       HGA1     0.900000E-01   1.00800           0
     20259 MEMB     175      CHL1     O3       OHL     -0.660000       15.9994           0
     20260 MEMB     175      CHL1     H3'      HOL      0.430000       1.00800           0
     20261 MEMB     175      CHL1     C4       CRL2    -0.180000       12.0110           0
     20262 MEMB     175      CHL1     H4A      HGA2     0.900000E-01   1.00800           0
     20263 MEMB     175      CHL1     H4B      HGA2     0.900000E-01   1.00800           0
     20264 MEMB     175      CHL1     C5       CEL1      0.00000       12.0110           0
     20265 MEMB     175      CHL1     C6       CEL1    -0.150000       12.0110           0
     20266 MEMB     175      CHL1     H6       HEL1     0.150000       1.00800           0
     20267 MEMB     175      CHL1     C7       CRL2    -0.180000       12.0110           0
     20268 MEMB     175      CHL1     H7A      HGA2     0.900000E-01   1.00800           0
     20269 MEMB     175      CHL1     H7B      HGA2     0.900000E-01   1.00800           0
     20270 MEMB     175      CHL1     C8       CRL1    -0.900000E-01   12.0110           0
     20271 MEMB     175      CHL1     H8       HGA1     0.900000E-01   1.00800           0
     20272 MEMB     175      CHL1     C14      CRL1    -0.900000E-01   12.0110           0
     20273 MEMB     175      CHL1     H14      HGA1     0.900000E-01   1.00800           0
     20274 MEMB     175      CHL1     C15      CRL2    -0.180000       12.0110           0
     20275 MEMB     175      CHL1     H15A     HGA2     0.900000E-01   1.00800           0
     20276 MEMB     175      CHL1     H15B     HGA2     0.900000E-01   1.00800           0
     20277 MEMB     175      CHL1     C16      CRL2    -0.180000       12.0110           0
     20278 MEMB     175      CHL1     H16A     HGA2     0.900000E-01   1.00800           0
     20279 MEMB     175      CHL1     H16B     HGA2     0.900000E-01   1.00800           0
     20280 MEMB     175      CHL1     C17      CRL1    -0.900000E-01   12.0110           0
     20281 MEMB     175      CHL1     H17      HGA1     0.900000E-01   1.00800           0
     20282 MEMB     175      CHL1     C13      CRL1      0.00000       12.0110           0
     20283 MEMB     175      CHL1     C18      CTL3    -0.270000       12.0110           0
     20284 MEMB     175      CHL1     H18A     HAL3     0.900000E-01   1.00800           0
     20285 MEMB     175      CHL1     H18B     HAL3     0.900000E-01   1.00800           0
     20286 MEMB     175      CHL1     H18C     HAL3     0.900000E-01   1.00800           0
     20287 MEMB     175      CHL1     C12      CRL2    -0.180000       12.0110           0
     20288 MEMB     175      CHL1     H12A     HGA2     0.900000E-01   1.00800           0
     20289 MEMB     175      CHL1     H12B     HGA2     0.900000E-01   1.00800           0
     20290 MEMB     175      CHL1     C11      CRL2    -0.180000       12.0110           0
     20291 MEMB     175      CHL1     H11A     HGA2     0.900000E-01   1.00800           0
     20292 MEMB     175      CHL1     H11B     HGA2     0.900000E-01   1.00800           0
     20293 MEMB     175      CHL1     C9       CRL1    -0.900000E-01   12.0110           0
     20294 MEMB     175      CHL1     H9       HGA1     0.900000E-01   1.00800           0
     20295 MEMB     175      CHL1     C10      CRL1      0.00000       12.0110           0
     20296 MEMB     175      CHL1     C19      CTL3    -0.270000       12.0110           0
     20297 MEMB     175      CHL1     H19A     HAL3     0.900000E-01   1.00800           0
     20298 MEMB     175      CHL1     H19B     HAL3     0.900000E-01   1.00800           0
     20299 MEMB     175      CHL1     H19C     HAL3     0.900000E-01   1.00800           0
     20300 MEMB     175      CHL1     C1       CRL2    -0.180000       12.0110           0
     20301 MEMB     175      CHL1     H1A      HGA2     0.900000E-01   1.00800           0
     20302 MEMB     175      CHL1     H1B      HGA2     0.900000E-01   1.00800           0
     20303 MEMB     175      CHL1     C2       CRL2    -0.180000       12.0110           0
     20304 MEMB     175      CHL1     H2A      HGA2     0.900000E-01   1.00800           0
     20305 MEMB     175      CHL1     H2B      HGA2     0.900000E-01   1.00800           0
     20306 MEMB     175      CHL1     C20      CTL1    -0.900000E-01   12.0110           0
     20307 MEMB     175      CHL1     H20      HAL1     0.900000E-01   1.00800           0
     20308 MEMB     175      CHL1     C21      CTL3    -0.270000       12.0110           0
     20309 MEMB     175      CHL1     H21A     HAL3     0.900000E-01   1.00800           0
     20310 MEMB     175      CHL1     H21B     HAL3     0.900000E-01   1.00800           0
     20311 MEMB     175      CHL1     H21C     HAL3     0.900000E-01   1.00800           0
     20312 MEMB     175      CHL1     C22      CTL2    -0.180000       12.0110           0
     20313 MEMB     175      CHL1     H22A     HAL2     0.900000E-01   1.00800           0
     20314 MEMB     175      CHL1     H22B     HAL2     0.900000E-01   1.00800           0
     20315 MEMB     175      CHL1     C23      CTL2    -0.180000       12.0110           0
     20316 MEMB     175      CHL1     H23A     HAL2     0.900000E-01   1.00800           0
     20317 MEMB     175      CHL1     H23B     HAL2     0.900000E-01   1.00800           0
     20318 MEMB     175      CHL1     C24      CTL2    -0.180000       12.0110           0
     20319 MEMB     175      CHL1     H24A     HAL2     0.900000E-01   1.00800           0
     20320 MEMB     175      CHL1     H24B     HAL2     0.900000E-01   1.00800           0
     20321 MEMB     175      CHL1     C25      CTL1    -0.900000E-01   12.0110           0
     20322 MEMB     175      CHL1     H25      HAL1     0.900000E-01   1.00800           0
     20323 MEMB     175      CHL1     C26      CTL3    -0.270000       12.0110           0
     20324 MEMB     175      CHL1     H26A     HAL3     0.900000E-01   1.00800           0
     20325 MEMB     175      CHL1     H26B     HAL3     0.900000E-01   1.00800           0
     20326 MEMB     175      CHL1     H26C     HAL3     0.900000E-01   1.00800           0
     20327 MEMB     175      CHL1     C27      CTL3    -0.270000       12.0110           0
     20328 MEMB     175      CHL1     H27A     HAL3     0.900000E-01   1.00800           0
     20329 MEMB     175      CHL1     H27B     HAL3     0.900000E-01   1.00800           0
     20330 MEMB     175      CHL1     H27C     HAL3     0.900000E-01   1.00800           0
     20331 MEMB     176      CHL1     C3       CRL1     0.140000       12.0110           0
     20332 MEMB     176      CHL1     H3       HGA1     0.900000E-01   1.00800           0
     20333 MEMB     176      CHL1     O3       OHL     -0.660000       15.9994           0
     20334 MEMB     176      CHL1     H3'      HOL      0.430000       1.00800           0
     20335 MEMB     176      CHL1     C4       CRL2    -0.180000       12.0110           0
     20336 MEMB     176      CHL1     H4A      HGA2     0.900000E-01   1.00800           0
     20337 MEMB     176      CHL1     H4B      HGA2     0.900000E-01   1.00800           0
     20338 MEMB     176      CHL1     C5       CEL1      0.00000       12.0110           0
     20339 MEMB     176      CHL1     C6       CEL1    -0.150000       12.0110           0
     20340 MEMB     176      CHL1     H6       HEL1     0.150000       1.00800           0
     20341 MEMB     176      CHL1     C7       CRL2    -0.180000       12.0110           0
     20342 MEMB     176      CHL1     H7A      HGA2     0.900000E-01   1.00800           0
     20343 MEMB     176      CHL1     H7B      HGA2     0.900000E-01   1.00800           0
     20344 MEMB     176      CHL1     C8       CRL1    -0.900000E-01   12.0110           0
     20345 MEMB     176      CHL1     H8       HGA1     0.900000E-01   1.00800           0
     20346 MEMB     176      CHL1     C14      CRL1    -0.900000E-01   12.0110           0
     20347 MEMB     176      CHL1     H14      HGA1     0.900000E-01   1.00800           0
     20348 MEMB     176      CHL1     C15      CRL2    -0.180000       12.0110           0
     20349 MEMB     176      CHL1     H15A     HGA2     0.900000E-01   1.00800           0
     20350 MEMB     176      CHL1     H15B     HGA2     0.900000E-01   1.00800           0
     20351 MEMB     176      CHL1     C16      CRL2    -0.180000       12.0110           0
     20352 MEMB     176      CHL1     H16A     HGA2     0.900000E-01   1.00800           0
     20353 MEMB     176      CHL1     H16B     HGA2     0.900000E-01   1.00800           0
     20354 MEMB     176      CHL1     C17      CRL1    -0.900000E-01   12.0110           0
     20355 MEMB     176      CHL1     H17      HGA1     0.900000E-01   1.00800           0
     20356 MEMB     176      CHL1     C13      CRL1      0.00000       12.0110           0
     20357 MEMB     176      CHL1     C18      CTL3    -0.270000       12.0110           0
     20358 MEMB     176      CHL1     H18A     HAL3     0.900000E-01   1.00800           0
     20359 MEMB     176      CHL1     H18B     HAL3     0.900000E-01   1.00800           0
     20360 MEMB     176      CHL1     H18C     HAL3     0.900000E-01   1.00800           0
     20361 MEMB     176      CHL1     C12      CRL2    -0.180000       12.0110           0
     20362 MEMB     176      CHL1     H12A     HGA2     0.900000E-01   1.00800           0
     20363 MEMB     176      CHL1     H12B     HGA2     0.900000E-01   1.00800           0
     20364 MEMB     176      CHL1     C11      CRL2    -0.180000       12.0110           0
     20365 MEMB     176      CHL1     H11A     HGA2     0.900000E-01   1.00800           0
     20366 MEMB     176      CHL1     H11B     HGA2     0.900000E-01   1.00800           0
     20367 MEMB     176      CHL1     C9       CRL1    -0.900000E-01   12.0110           0
     20368 MEMB     176      CHL1     H9       HGA1     0.900000E-01   1.00800           0
     20369 MEMB     176      CHL1     C10      CRL1      0.00000       12.0110           0
     20370 MEMB     176      CHL1     C19      CTL3    -0.270000       12.0110           0
     20371 MEMB     176      CHL1     H19A     HAL3     0.900000E-01   1.00800           0
     20372 MEMB     176      CHL1     H19B     HAL3     0.900000E-01   1.00800           0
     20373 MEMB     176      CHL1     H19C     HAL3     0.900000E-01   1.00800           0
     20374 MEMB     176      CHL1     C1       CRL2    -0.180000       12.0110           0
     20375 MEMB     176      CHL1     H1A      HGA2     0.900000E-01   1.00800           0
     20376 MEMB     176      CHL1     H1B      HGA2     0.900000E-01   1.00800           0
     20377 MEMB     176      CHL1     C2       CRL2    -0.180000       12.0110           0
     20378 MEMB     176      CHL1     H2A      HGA2     0.900000E-01   1.00800           0
     20379 MEMB     176      CHL1     H2B      HGA2     0.900000E-01   1.00800           0
     20380 MEMB     176      CHL1     C20      CTL1    -0.900000E-01   12.0110           0
     20381 MEMB     176      CHL1     H20      HAL1     0.900000E-01   1.00800           0
     20382 MEMB     176      CHL1     C21      CTL3    -0.270000       12.0110           0
     20383 MEMB     176      CHL1     H21A     HAL3     0.900000E-01   1.00800           0
     20384 MEMB     176      CHL1     H21B     HAL3     0.900000E-01   1.00800           0
     20385 MEMB     176      CHL1     H21C     HAL3     0.900000E-01   1.00800           0
     20386 MEMB     176      CHL1     C22      CTL2    -0.180000       12.0110           0
     20387 MEMB     176      CHL1     H22A     HAL2     0.900000E-01   1.00800           0
     20388 MEMB     176      CHL1     H22B     HAL2     0.900000E-01   1.00800           0
     20389 MEMB     176      CHL1     C23      CTL2    -0.180000       12.0110           0
     20390 MEMB     176      CHL1     H23A     HAL2     0.900000E-01   1.00800           0
     20391 MEMB     176      CHL1     H23B     HAL2     0.900000E-01   1.00800           0
     20392 MEMB     176      CHL1     C24      CTL2    -0.180000       12.0110           0
     20393 MEMB     176      CHL1     H24A     HAL2     0.900000E-01   1.00800           0
     20394 MEMB     176      CHL1     H24B     HAL2     0.900000E-01   1.00800           0
     20395 MEMB     176      CHL1     C25      CTL1    -0.900000E-01   12.0110           0
     20396 MEMB     176      CHL1     H25      HAL1     0.900000E-01   1.00800           0
     20397 MEMB     176      CHL1     C26      CTL3    -0.270000       12.0110           0
     20398 MEMB     176      CHL1     H26A     HAL3     0.900000E-01   1.00800           0
     20399 MEMB     176      CHL1     H26B     HAL3     0.900000E-01   1.00800           0
     20400 MEMB     176      CHL1     H26C     HAL3     0.900000E-01   1.00800           0
     20401 MEMB     176      CHL1     C27      CTL3    -0.270000       12.0110           0
     20402 MEMB     176      CHL1     H27A     HAL3     0.900000E-01   1.00800           0
     20403 MEMB     176      CHL1     H27B     HAL3     0.900000E-01   1.00800           0
     20404 MEMB     176      CHL1     H27C     HAL3     0.900000E-01   1.00800           0
     20405 MEMB     177      CHL1     C3       CRL1     0.140000       12.0110           0
     20406 MEMB     177      CHL1     H3       HGA1     0.900000E-01   1.00800           0
     20407 MEMB     177      CHL1     O3       OHL     -0.660000       15.9994           0
     20408 MEMB     177      CHL1     H3'      HOL      0.430000       1.00800           0
     20409 MEMB     177      CHL1     C4       CRL2    -0.180000       12.0110           0
     20410 MEMB     177      CHL1     H4A      HGA2     0.900000E-01   1.00800           0
     20411 MEMB     177      CHL1     H4B      HGA2     0.900000E-01   1.00800           0
     20412 MEMB     177      CHL1     C5       CEL1      0.00000       12.0110           0
     20413 MEMB     177      CHL1     C6       CEL1    -0.150000       12.0110           0
     20414 MEMB     177      CHL1     H6       HEL1     0.150000       1.00800           0
     20415 MEMB     177      CHL1     C7       CRL2    -0.180000       12.0110           0
     20416 MEMB     177      CHL1     H7A      HGA2     0.900000E-01   1.00800           0
     20417 MEMB     177      CHL1     H7B      HGA2     0.900000E-01   1.00800           0
     20418 MEMB     177      CHL1     C8       CRL1    -0.900000E-01   12.0110           0
     20419 MEMB     177      CHL1     H8       HGA1     0.900000E-01   1.00800           0
     20420 MEMB     177      CHL1     C14      CRL1    -0.900000E-01   12.0110           0
     20421 MEMB     177      CHL1     H14      HGA1     0.900000E-01   1.00800           0
     20422 MEMB     177      CHL1     C15      CRL2    -0.180000       12.0110           0
     20423 MEMB     177      CHL1     H15A     HGA2     0.900000E-01   1.00800           0
     20424 MEMB     177      CHL1     H15B     HGA2     0.900000E-01   1.00800           0
     20425 MEMB     177      CHL1     C16      CRL2    -0.180000       12.0110           0
     20426 MEMB     177      CHL1     H16A     HGA2     0.900000E-01   1.00800           0
     20427 MEMB     177      CHL1     H16B     HGA2     0.900000E-01   1.00800           0
     20428 MEMB     177      CHL1     C17      CRL1    -0.900000E-01   12.0110           0
     20429 MEMB     177      CHL1     H17      HGA1     0.900000E-01   1.00800           0
     20430 MEMB     177      CHL1     C13      CRL1      0.00000       12.0110           0
     20431 MEMB     177      CHL1     C18      CTL3    -0.270000       12.0110           0
     20432 MEMB     177      CHL1     H18A     HAL3     0.900000E-01   1.00800           0
     20433 MEMB     177      CHL1     H18B     HAL3     0.900000E-01   1.00800           0
     20434 MEMB     177      CHL1     H18C     HAL3     0.900000E-01   1.00800           0
     20435 MEMB     177      CHL1     C12      CRL2    -0.180000       12.0110           0
     20436 MEMB     177      CHL1     H12A     HGA2     0.900000E-01   1.00800           0
     20437 MEMB     177      CHL1     H12B     HGA2     0.900000E-01   1.00800           0
     20438 MEMB     177      CHL1     C11      CRL2    -0.180000       12.0110           0
     20439 MEMB     177      CHL1     H11A     HGA2     0.900000E-01   1.00800           0
     20440 MEMB     177      CHL1     H11B     HGA2     0.900000E-01   1.00800           0
     20441 MEMB     177      CHL1     C9       CRL1    -0.900000E-01   12.0110           0
     20442 MEMB     177      CHL1     H9       HGA1     0.900000E-01   1.00800           0
     20443 MEMB     177      CHL1     C10      CRL1      0.00000       12.0110           0
     20444 MEMB     177      CHL1     C19      CTL3    -0.270000       12.0110           0
     20445 MEMB     177      CHL1     H19A     HAL3     0.900000E-01   1.00800           0
     20446 MEMB     177      CHL1     H19B     HAL3     0.900000E-01   1.00800           0
     20447 MEMB     177      CHL1     H19C     HAL3     0.900000E-01   1.00800           0
     20448 MEMB     177      CHL1     C1       CRL2    -0.180000       12.0110           0
     20449 MEMB     177      CHL1     H1A      HGA2     0.900000E-01   1.00800           0
     20450 MEMB     177      CHL1     H1B      HGA2     0.900000E-01   1.00800           0
     20451 MEMB     177      CHL1     C2       CRL2    -0.180000       12.0110           0
     20452 MEMB     177      CHL1     H2A      HGA2     0.900000E-01   1.00800           0
     20453 MEMB     177      CHL1     H2B      HGA2     0.900000E-01   1.00800           0
     20454 MEMB     177      CHL1     C20      CTL1    -0.900000E-01   12.0110           0
     20455 MEMB     177      CHL1     H20      HAL1     0.900000E-01   1.00800           0
     20456 MEMB     177      CHL1     C21      CTL3    -0.270000       12.0110           0
     20457 MEMB     177      CHL1     H21A     HAL3     0.900000E-01   1.00800           0
     20458 MEMB     177      CHL1     H21B     HAL3     0.900000E-01   1.00800           0
     20459 MEMB     177      CHL1     H21C     HAL3     0.900000E-01   1.00800           0
     20460 MEMB     177      CHL1     C22      CTL2    -0.180000       12.0110           0
     20461 MEMB     177      CHL1     H22A     HAL2     0.900000E-01   1.00800           0
     20462 MEMB     177      CHL1     H22B     HAL2     0.900000E-01   1.00800           0
     20463 MEMB     177      CHL1     C23      CTL2    -0.180000       12.0110           0
     20464 MEMB     177      CHL1     H23A     HAL2     0.900000E-01   1.00800           0
     20465 MEMB     177      CHL1     H23B     HAL2     0.900000E-01   1.00800           0
     20466 MEMB     177      CHL1     C24      CTL2    -0.180000       12.0110           0
     20467 MEMB     177      CHL1     H24A     HAL2     0.900000E-01   1.00800           0
     20468 MEMB     177      CHL1     H24B     HAL2     0.900000E-01   1.00800           0
     20469 MEMB     177      CHL1     C25      CTL1    -0.900000E-01   12.0110           0
     20470 MEMB     177      CHL1     H25      HAL1     0.900000E-01   1.00800           0
     20471 MEMB     177      CHL1     C26      CTL3    -0.270000       12.0110           0
     20472 MEMB     177      CHL1     H26A     HAL3     0.900000E-01   1.00800           0
     20473 MEMB     177      CHL1     H26B     HAL3     0.900000E-01   1.00800           0
     20474 MEMB     177      CHL1     H26C     HAL3     0.900000E-01   1.00800           0
     20475 MEMB     177      CHL1     C27      CTL3    -0.270000       12.0110           0
     20476 MEMB     177      CHL1     H27A     HAL3     0.900000E-01   1.00800           0
     20477 MEMB     177      CHL1     H27B     HAL3     0.900000E-01   1.00800           0
     20478 MEMB     177      CHL1     H27C     HAL3     0.900000E-01   1.00800           0
     20479 MEMB     178      CHL1     C3       CRL1     0.140000       12.0110           0
     20480 MEMB     178      CHL1     H3       HGA1     0.900000E-01   1.00800           0
     20481 MEMB     178      CHL1     O3       OHL     -0.660000       15.9994           0
     20482 MEMB     178      CHL1     H3'      HOL      0.430000       1.00800           0
     20483 MEMB     178      CHL1     C4       CRL2    -0.180000       12.0110           0
     20484 MEMB     178      CHL1     H4A      HGA2     0.900000E-01   1.00800           0
     20485 MEMB     178      CHL1     H4B      HGA2     0.900000E-01   1.00800           0
     20486 MEMB     178      CHL1     C5       CEL1      0.00000       12.0110           0
     20487 MEMB     178      CHL1     C6       CEL1    -0.150000       12.0110           0
     20488 MEMB     178      CHL1     H6       HEL1     0.150000       1.00800           0
     20489 MEMB     178      CHL1     C7       CRL2    -0.180000       12.0110           0
     20490 MEMB     178      CHL1     H7A      HGA2     0.900000E-01   1.00800           0
     20491 MEMB     178      CHL1     H7B      HGA2     0.900000E-01   1.00800           0
     20492 MEMB     178      CHL1     C8       CRL1    -0.900000E-01   12.0110           0
     20493 MEMB     178      CHL1     H8       HGA1     0.900000E-01   1.00800           0
     20494 MEMB     178      CHL1     C14      CRL1    -0.900000E-01   12.0110           0
     20495 MEMB     178      CHL1     H14      HGA1     0.900000E-01   1.00800           0
     20496 MEMB     178      CHL1     C15      CRL2    -0.180000       12.0110           0
     20497 MEMB     178      CHL1     H15A     HGA2     0.900000E-01   1.00800           0
     20498 MEMB     178      CHL1     H15B     HGA2     0.900000E-01   1.00800           0
     20499 MEMB     178      CHL1     C16      CRL2    -0.180000       12.0110           0
     20500 MEMB     178      CHL1     H16A     HGA2     0.900000E-01   1.00800           0
     20501 MEMB     178      CHL1     H16B     HGA2     0.900000E-01   1.00800           0
     20502 MEMB     178      CHL1     C17      CRL1    -0.900000E-01   12.0110           0
     20503 MEMB     178      CHL1     H17      HGA1     0.900000E-01   1.00800           0
     20504 MEMB     178      CHL1     C13      CRL1      0.00000       12.0110           0
     20505 MEMB     178      CHL1     C18      CTL3    -0.270000       12.0110           0
     20506 MEMB     178      CHL1     H18A     HAL3     0.900000E-01   1.00800           0
     20507 MEMB     178      CHL1     H18B     HAL3     0.900000E-01   1.00800           0
     20508 MEMB     178      CHL1     H18C     HAL3     0.900000E-01   1.00800           0
     20509 MEMB     178      CHL1     C12      CRL2    -0.180000       12.0110           0
     20510 MEMB     178      CHL1     H12A     HGA2     0.900000E-01   1.00800           0
     20511 MEMB     178      CHL1     H12B     HGA2     0.900000E-01   1.00800           0
     20512 MEMB     178      CHL1     C11      CRL2    -0.180000       12.0110           0
     20513 MEMB     178      CHL1     H11A     HGA2     0.900000E-01   1.00800           0
     20514 MEMB     178      CHL1     H11B     HGA2     0.900000E-01   1.00800           0
     20515 MEMB     178      CHL1     C9       CRL1    -0.900000E-01   12.0110           0
     20516 MEMB     178      CHL1     H9       HGA1     0.900000E-01   1.00800           0
     20517 MEMB     178      CHL1     C10      CRL1      0.00000       12.0110           0
     20518 MEMB     178      CHL1     C19      CTL3    -0.270000       12.0110           0
     20519 MEMB     178      CHL1     H19A     HAL3     0.900000E-01   1.00800           0
     20520 MEMB     178      CHL1     H19B     HAL3     0.900000E-01   1.00800           0
     20521 MEMB     178      CHL1     H19C     HAL3     0.900000E-01   1.00800           0
     20522 MEMB     178      CHL1     C1       CRL2    -0.180000       12.0110           0
     20523 MEMB     178      CHL1     H1A      HGA2     0.900000E-01   1.00800           0
     20524 MEMB     178      CHL1     H1B      HGA2     0.900000E-01   1.00800           0
     20525 MEMB     178      CHL1     C2       CRL2    -0.180000       12.0110           0
     20526 MEMB     178      CHL1     H2A      HGA2     0.900000E-01   1.00800           0
     20527 MEMB     178      CHL1     H2B      HGA2     0.900000E-01   1.00800           0
     20528 MEMB     178      CHL1     C20      CTL1    -0.900000E-01   12.0110           0
     20529 MEMB     178      CHL1     H20      HAL1     0.900000E-01   1.00800           0
     20530 MEMB     178      CHL1     C21      CTL3    -0.270000       12.0110           0
     20531 MEMB     178      CHL1     H21A     HAL3     0.900000E-01   1.00800           0
     20532 MEMB     178      CHL1     H21B     HAL3     0.900000E-01   1.00800           0
     20533 MEMB     178      CHL1     H21C     HAL3     0.900000E-01   1.00800           0
     20534 MEMB     178      CHL1     C22      CTL2    -0.180000       12.0110           0
     20535 MEMB     178      CHL1     H22A     HAL2     0.900000E-01   1.00800           0
     20536 MEMB     178      CHL1     H22B     HAL2     0.900000E-01   1.00800           0
     20537 MEMB     178      CHL1     C23      CTL2    -0.180000       12.0110           0
     20538 MEMB     178      CHL1     H23A     HAL2     0.900000E-01   1.00800           0
     20539 MEMB     178      CHL1     H23B     HAL2     0.900000E-01   1.00800           0
     20540 MEMB     178      CHL1     C24      CTL2    -0.180000       12.0110           0
     20541 MEMB     178      CHL1     H24A     HAL2     0.900000E-01   1.00800           0
     20542 MEMB     178      CHL1     H24B     HAL2     0.900000E-01   1.00800           0
     20543 MEMB     178      CHL1     C25      CTL1    -0.900000E-01   12.0110           0
     20544 MEMB     178      CHL1     H25      HAL1     0.900000E-01   1.00800           0
     20545 MEMB     178      CHL1     C26      CTL3    -0.270000       12.0110           0
     20546 MEMB     178      CHL1     H26A     HAL3     0.900000E-01   1.00800           0
     20547 MEMB     178      CHL1     H26B     HAL3     0.900000E-01   1.00800           0
     20548 MEMB     178      CHL1     H26C     HAL3     0.900000E-01   1.00800           0
     20549 MEMB     178      CHL1     C27      CTL3    -0.270000       12.0110           0
     20550 MEMB     178      CHL1     H27A     HAL3     0.900000E-01   1.00800           0
     20551 MEMB     178      CHL1     H27B     HAL3     0.900000E-01   1.00800           0
     20552 MEMB     178      CHL1     H27C     HAL3     0.900000E-01   1.00800           0
     20553 MEMB     179      CHL1     C3       CRL1     0.140000       12.0110           0
     20554 MEMB     179      CHL1     H3       HGA1     0.900000E-01   1.00800           0
     20555 MEMB     179      CHL1     O3       OHL     -0.660000       15.9994           0
     20556 MEMB     179      CHL1     H3'      HOL      0.430000       1.00800           0
     20557 MEMB     179      CHL1     C4       CRL2    -0.180000       12.0110           0
     20558 MEMB     179      CHL1     H4A      HGA2     0.900000E-01   1.00800           0
     20559 MEMB     179      CHL1     H4B      HGA2     0.900000E-01   1.00800           0
     20560 MEMB     179      CHL1     C5       CEL1      0.00000       12.0110           0
     20561 MEMB     179      CHL1     C6       CEL1    -0.150000       12.0110           0
     20562 MEMB     179      CHL1     H6       HEL1     0.150000       1.00800           0
     20563 MEMB     179      CHL1     C7       CRL2    -0.180000       12.0110           0
     20564 MEMB     179      CHL1     H7A      HGA2     0.900000E-01   1.00800           0
     20565 MEMB     179      CHL1     H7B      HGA2     0.900000E-01   1.00800           0
     20566 MEMB     179      CHL1     C8       CRL1    -0.900000E-01   12.0110           0
     20567 MEMB     179      CHL1     H8       HGA1     0.900000E-01   1.00800           0
     20568 MEMB     179      CHL1     C14      CRL1    -0.900000E-01   12.0110           0
     20569 MEMB     179      CHL1     H14      HGA1     0.900000E-01   1.00800           0
     20570 MEMB     179      CHL1     C15      CRL2    -0.180000       12.0110           0
     20571 MEMB     179      CHL1     H15A     HGA2     0.900000E-01   1.00800           0
     20572 MEMB     179      CHL1     H15B     HGA2     0.900000E-01   1.00800           0
     20573 MEMB     179      CHL1     C16      CRL2    -0.180000       12.0110           0
     20574 MEMB     179      CHL1     H16A     HGA2     0.900000E-01   1.00800           0
     20575 MEMB     179      CHL1     H16B     HGA2     0.900000E-01   1.00800           0
     20576 MEMB     179      CHL1     C17      CRL1    -0.900000E-01   12.0110           0
     20577 MEMB     179      CHL1     H17      HGA1     0.900000E-01   1.00800           0
     20578 MEMB     179      CHL1     C13      CRL1      0.00000       12.0110           0
     20579 MEMB     179      CHL1     C18      CTL3    -0.270000       12.0110           0
     20580 MEMB     179      CHL1     H18A     HAL3     0.900000E-01   1.00800           0
     20581 MEMB     179      CHL1     H18B     HAL3     0.900000E-01   1.00800           0
     20582 MEMB     179      CHL1     H18C     HAL3     0.900000E-01   1.00800           0
     20583 MEMB     179      CHL1     C12      CRL2    -0.180000       12.0110           0
     20584 MEMB     179      CHL1     H12A     HGA2     0.900000E-01   1.00800           0
     20585 MEMB     179      CHL1     H12B     HGA2     0.900000E-01   1.00800           0
     20586 MEMB     179      CHL1     C11      CRL2    -0.180000       12.0110           0
     20587 MEMB     179      CHL1     H11A     HGA2     0.900000E-01   1.00800           0
     20588 MEMB     179      CHL1     H11B     HGA2     0.900000E-01   1.00800           0
     20589 MEMB     179      CHL1     C9       CRL1    -0.900000E-01   12.0110           0
     20590 MEMB     179      CHL1     H9       HGA1     0.900000E-01   1.00800           0
     20591 MEMB     179      CHL1     C10      CRL1      0.00000       12.0110           0
     20592 MEMB     179      CHL1     C19      CTL3    -0.270000       12.0110           0
     20593 MEMB     179      CHL1     H19A     HAL3     0.900000E-01   1.00800           0
     20594 MEMB     179      CHL1     H19B     HAL3     0.900000E-01   1.00800           0
     20595 MEMB     179      CHL1     H19C     HAL3     0.900000E-01   1.00800           0
     20596 MEMB     179      CHL1     C1       CRL2    -0.180000       12.0110           0
     20597 MEMB     179      CHL1     H1A      HGA2     0.900000E-01   1.00800           0
     20598 MEMB     179      CHL1     H1B      HGA2     0.900000E-01   1.00800           0
     20599 MEMB     179      CHL1     C2       CRL2    -0.180000       12.0110           0
     20600 MEMB     179      CHL1     H2A      HGA2     0.900000E-01   1.00800           0
     20601 MEMB     179      CHL1     H2B      HGA2     0.900000E-01   1.00800           0
     20602 MEMB     179      CHL1     C20      CTL1    -0.900000E-01   12.0110           0
     20603 MEMB     179      CHL1     H20      HAL1     0.900000E-01   1.00800           0
     20604 MEMB     179      CHL1     C21      CTL3    -0.270000       12.0110           0
     20605 MEMB     179      CHL1     H21A     HAL3     0.900000E-01   1.00800           0
     20606 MEMB     179      CHL1     H21B     HAL3     0.900000E-01   1.00800           0
     20607 MEMB     179      CHL1     H21C     HAL3     0.900000E-01   1.00800           0
     20608 MEMB     179      CHL1     C22      CTL2    -0.180000       12.0110           0
     20609 MEMB     179      CHL1     H22A     HAL2     0.900000E-01   1.00800           0
     20610 MEMB     179      CHL1     H22B     HAL2     0.900000E-01   1.00800           0
     20611 MEMB     179      CHL1     C23      CTL2    -0.180000       12.0110           0
     20612 MEMB     179      CHL1     H23A     HAL2     0.900000E-01   1.00800           0
     20613 MEMB     179      CHL1     H23B     HAL2     0.900000E-01   1.00800           0
     20614 MEMB     179      CHL1     C24      CTL2    -0.180000       12.0110           0
     20615 MEMB     179      CHL1     H24A     HAL2     0.900000E-01   1.00800           0
     20616 MEMB     179      CHL1     H24B     HAL2     0.900000E-01   1.00800           0
     20617 MEMB     179      CHL1     C25      CTL1    -0.900000E-01   12.0110           0
     20618 MEMB     179      CHL1     H25      HAL1     0.900000E-01   1.00800           0
     20619 MEMB     179      CHL1     C26      CTL3    -0.270000       12.0110           0
     20620 MEMB     179      CHL1     H26A     HAL3     0.900000E-01   1.00800           0
     20621 MEMB     179      CHL1     H26B     HAL3     0.900000E-01   1.00800           0
     20622 MEMB     179      CHL1     H26C     HAL3     0.900000E-01   1.00800           0
     20623 MEMB     179      CHL1     C27      CTL3    -0.270000       12.0110           0
     20624 MEMB     179      CHL1     H27A     HAL3     0.900000E-01   1.00800           0
     20625 MEMB     179      CHL1     H27B     HAL3     0.900000E-01   1.00800           0
     20626 MEMB     179      CHL1     H27C     HAL3     0.900000E-01   1.00800           0
     20627 MEMB     180      CHL1     C3       CRL1     0.140000       12.0110           0
     20628 MEMB     180      CHL1     H3       HGA1     0.900000E-01   1.00800           0
     20629 MEMB     180      CHL1     O3       OHL     -0.660000       15.9994           0
     20630 MEMB     180      CHL1     H3'      HOL      0.430000       1.00800           0
     20631 MEMB     180      CHL1     C4       CRL2    -0.180000       12.0110           0
     20632 MEMB     180      CHL1     H4A      HGA2     0.900000E-01   1.00800           0
     20633 MEMB     180      CHL1     H4B      HGA2     0.900000E-01   1.00800           0
     20634 MEMB     180      CHL1     C5       CEL1      0.00000       12.0110           0
     20635 MEMB     180      CHL1     C6       CEL1    -0.150000       12.0110           0
     20636 MEMB     180      CHL1     H6       HEL1     0.150000       1.00800           0
     20637 MEMB     180      CHL1     C7       CRL2    -0.180000       12.0110           0
     20638 MEMB     180      CHL1     H7A      HGA2     0.900000E-01   1.00800           0
     20639 MEMB     180      CHL1     H7B      HGA2     0.900000E-01   1.00800           0
     20640 MEMB     180      CHL1     C8       CRL1    -0.900000E-01   12.0110           0
     20641 MEMB     180      CHL1     H8       HGA1     0.900000E-01   1.00800           0
     20642 MEMB     180      CHL1     C14      CRL1    -0.900000E-01   12.0110           0
     20643 MEMB     180      CHL1     H14      HGA1     0.900000E-01   1.00800           0
     20644 MEMB     180      CHL1     C15      CRL2    -0.180000       12.0110           0
     20645 MEMB     180      CHL1     H15A     HGA2     0.900000E-01   1.00800           0
     20646 MEMB     180      CHL1     H15B     HGA2     0.900000E-01   1.00800           0
     20647 MEMB     180      CHL1     C16      CRL2    -0.180000       12.0110           0
     20648 MEMB     180      CHL1     H16A     HGA2     0.900000E-01   1.00800           0
     20649 MEMB     180      CHL1     H16B     HGA2     0.900000E-01   1.00800           0
     20650 MEMB     180      CHL1     C17      CRL1    -0.900000E-01   12.0110           0
     20651 MEMB     180      CHL1     H17      HGA1     0.900000E-01   1.00800           0
     20652 MEMB     180      CHL1     C13      CRL1      0.00000       12.0110           0
     20653 MEMB     180      CHL1     C18      CTL3    -0.270000       12.0110           0
     20654 MEMB     180      CHL1     H18A     HAL3     0.900000E-01   1.00800           0
     20655 MEMB     180      CHL1     H18B     HAL3     0.900000E-01   1.00800           0
     20656 MEMB     180      CHL1     H18C     HAL3     0.900000E-01   1.00800           0
     20657 MEMB     180      CHL1     C12      CRL2    -0.180000       12.0110           0
     20658 MEMB     180      CHL1     H12A     HGA2     0.900000E-01   1.00800           0
     20659 MEMB     180      CHL1     H12B     HGA2     0.900000E-01   1.00800           0
     20660 MEMB     180      CHL1     C11      CRL2    -0.180000       12.0110           0
     20661 MEMB     180      CHL1     H11A     HGA2     0.900000E-01   1.00800           0
     20662 MEMB     180      CHL1     H11B     HGA2     0.900000E-01   1.00800           0
     20663 MEMB     180      CHL1     C9       CRL1    -0.900000E-01   12.0110           0
     20664 MEMB     180      CHL1     H9       HGA1     0.900000E-01   1.00800           0
     20665 MEMB     180      CHL1     C10      CRL1      0.00000       12.0110           0
     20666 MEMB     180      CHL1     C19      CTL3    -0.270000       12.0110           0
     20667 MEMB     180      CHL1     H19A     HAL3     0.900000E-01   1.00800           0
     20668 MEMB     180      CHL1     H19B     HAL3     0.900000E-01   1.00800           0
     20669 MEMB     180      CHL1     H19C     HAL3     0.900000E-01   1.00800           0
     20670 MEMB     180      CHL1     C1       CRL2    -0.180000       12.0110           0
     20671 MEMB     180      CHL1     H1A      HGA2     0.900000E-01   1.00800           0
     20672 MEMB     180      CHL1     H1B      HGA2     0.900000E-01   1.00800           0
     20673 MEMB     180      CHL1     C2       CRL2    -0.180000       12.0110           0
     20674 MEMB     180      CHL1     H2A      HGA2     0.900000E-01   1.00800           0
     20675 MEMB     180      CHL1     H2B      HGA2     0.900000E-01   1.00800           0
     20676 MEMB     180      CHL1     C20      CTL1    -0.900000E-01   12.0110           0
     20677 MEMB     180      CHL1     H20      HAL1     0.900000E-01   1.00800           0
     20678 MEMB     180      CHL1     C21      CTL3    -0.270000       12.0110           0
     20679 MEMB     180      CHL1     H21A     HAL3     0.900000E-01   1.00800           0
     20680 MEMB     180      CHL1     H21B     HAL3     0.900000E-01   1.00800           0
     20681 MEMB     180      CHL1     H21C     HAL3     0.900000E-01   1.00800           0
     20682 MEMB     180      CHL1     C22      CTL2    -0.180000       12.0110           0
     20683 MEMB     180      CHL1     H22A     HAL2     0.900000E-01   1.00800           0
     20684 MEMB     180      CHL1     H22B     HAL2     0.900000E-01   1.00800           0
     20685 MEMB     180      CHL1     C23      CTL2    -0.180000       12.0110           0
     20686 MEMB     180      CHL1     H23A     HAL2     0.900000E-01   1.00800           0
     20687 MEMB     180      CHL1     H23B     HAL2     0.900000E-01   1.00800           0
     20688 MEMB     180      CHL1     C24      CTL2    -0.180000       12.0110           0
     20689 MEMB     180      CHL1     H24A     HAL2     0.900000E-01   1.00800           0
     20690 MEMB     180      CHL1     H24B     HAL2     0.900000E-01   1.00800           0
     20691 MEMB     180      CHL1     C25      CTL1    -0.900000E-01   12.0110           0
     20692 MEMB     180      CHL1     H25      HAL1     0.900000E-01   1.00800           0
     20693 MEMB     180      CHL1     C26      CTL3    -0.270000       12.0110           0
     20694 MEMB     180      CHL1     H26A     HAL3     0.900000E-01   1.00800           0
     20695 MEMB     180      CHL1     H26B     HAL3     0.900000E-01   1.00800           0
     20696 MEMB     180      CHL1     H26C     HAL3     0.900000E-01   1.00800           0
     20697 MEMB     180      CHL1     C27      CTL3    -0.270000       12.0110           0
     20698 MEMB     180      CHL1     H27A     HAL3     0.900000E-01   1.00800           0
     20699 MEMB     180      CHL1     H27B     HAL3     0.900000E-01   1.00800           0
     20700 MEMB     180      CHL1     H27C     HAL3     0.900000E-01   1.00800           0
     20701 MEMB     181      CHL1     C3       CRL1     0.140000       12.0110           0
     20702 MEMB     181      CHL1     H3       HGA1     0.900000E-01   1.00800           0
     20703 MEMB     181      CHL1     O3       OHL     -0.660000       15.9994           0
     20704 MEMB     181      CHL1     H3'      HOL      0.430000       1.00800           0
     20705 MEMB     181      CHL1     C4       CRL2    -0.180000       12.0110           0
     20706 MEMB     181      CHL1     H4A      HGA2     0.900000E-01   1.00800           0
     20707 MEMB     181      CHL1     H4B      HGA2     0.900000E-01   1.00800           0
     20708 MEMB     181      CHL1     C5       CEL1      0.00000       12.0110           0
     20709 MEMB     181      CHL1     C6       CEL1    -0.150000       12.0110           0
     20710 MEMB     181      CHL1     H6       HEL1     0.150000       1.00800           0
     20711 MEMB     181      CHL1     C7       CRL2    -0.180000       12.0110           0
     20712 MEMB     181      CHL1     H7A      HGA2     0.900000E-01   1.00800           0
     20713 MEMB     181      CHL1     H7B      HGA2     0.900000E-01   1.00800           0
     20714 MEMB     181      CHL1     C8       CRL1    -0.900000E-01   12.0110           0
     20715 MEMB     181      CHL1     H8       HGA1     0.900000E-01   1.00800           0
     20716 MEMB     181      CHL1     C14      CRL1    -0.900000E-01   12.0110           0
     20717 MEMB     181      CHL1     H14      HGA1     0.900000E-01   1.00800           0
     20718 MEMB     181      CHL1     C15      CRL2    -0.180000       12.0110           0
     20719 MEMB     181      CHL1     H15A     HGA2     0.900000E-01   1.00800           0
     20720 MEMB     181      CHL1     H15B     HGA2     0.900000E-01   1.00800           0
     20721 MEMB     181      CHL1     C16      CRL2    -0.180000       12.0110           0
     20722 MEMB     181      CHL1     H16A     HGA2     0.900000E-01   1.00800           0
     20723 MEMB     181      CHL1     H16B     HGA2     0.900000E-01   1.00800           0
     20724 MEMB     181      CHL1     C17      CRL1    -0.900000E-01   12.0110           0
     20725 MEMB     181      CHL1     H17      HGA1     0.900000E-01   1.00800           0
     20726 MEMB     181      CHL1     C13      CRL1      0.00000       12.0110           0
     20727 MEMB     181      CHL1     C18      CTL3    -0.270000       12.0110           0
     20728 MEMB     181      CHL1     H18A     HAL3     0.900000E-01   1.00800           0
     20729 MEMB     181      CHL1     H18B     HAL3     0.900000E-01   1.00800           0
     20730 MEMB     181      CHL1     H18C     HAL3     0.900000E-01   1.00800           0
     20731 MEMB     181      CHL1     C12      CRL2    -0.180000       12.0110           0
     20732 MEMB     181      CHL1     H12A     HGA2     0.900000E-01   1.00800           0
     20733 MEMB     181      CHL1     H12B     HGA2     0.900000E-01   1.00800           0
     20734 MEMB     181      CHL1     C11      CRL2    -0.180000       12.0110           0
     20735 MEMB     181      CHL1     H11A     HGA2     0.900000E-01   1.00800           0
     20736 MEMB     181      CHL1     H11B     HGA2     0.900000E-01   1.00800           0
     20737 MEMB     181      CHL1     C9       CRL1    -0.900000E-01   12.0110           0
     20738 MEMB     181      CHL1     H9       HGA1     0.900000E-01   1.00800           0
     20739 MEMB     181      CHL1     C10      CRL1      0.00000       12.0110           0
     20740 MEMB     181      CHL1     C19      CTL3    -0.270000       12.0110           0
     20741 MEMB     181      CHL1     H19A     HAL3     0.900000E-01   1.00800           0
     20742 MEMB     181      CHL1     H19B     HAL3     0.900000E-01   1.00800           0
     20743 MEMB     181      CHL1     H19C     HAL3     0.900000E-01   1.00800           0
     20744 MEMB     181      CHL1     C1       CRL2    -0.180000       12.0110           0
     20745 MEMB     181      CHL1     H1A      HGA2     0.900000E-01   1.00800           0
     20746 MEMB     181      CHL1     H1B      HGA2     0.900000E-01   1.00800           0
     20747 MEMB     181      CHL1     C2       CRL2    -0.180000       12.0110           0
     20748 MEMB     181      CHL1     H2A      HGA2     0.900000E-01   1.00800           0
     20749 MEMB     181      CHL1     H2B      HGA2     0.900000E-01   1.00800           0
     20750 MEMB     181      CHL1     C20      CTL1    -0.900000E-01   12.0110           0
     20751 MEMB     181      CHL1     H20      HAL1     0.900000E-01   1.00800           0
     20752 MEMB     181      CHL1     C21      CTL3    -0.270000       12.0110           0
     20753 MEMB     181      CHL1     H21A     HAL3     0.900000E-01   1.00800           0
     20754 MEMB     181      CHL1     H21B     HAL3     0.900000E-01   1.00800           0
     20755 MEMB     181      CHL1     H21C     HAL3     0.900000E-01   1.00800           0
     20756 MEMB     181      CHL1     C22      CTL2    -0.180000       12.0110           0
     20757 MEMB     181      CHL1     H22A     HAL2     0.900000E-01   1.00800           0
     20758 MEMB     181      CHL1     H22B     HAL2     0.900000E-01   1.00800           0
     20759 MEMB     181      CHL1     C23      CTL2    -0.180000       12.0110           0
     20760 MEMB     181      CHL1     H23A     HAL2     0.900000E-01   1.00800           0
     20761 MEMB     181      CHL1     H23B     HAL2     0.900000E-01   1.00800           0
     20762 MEMB     181      CHL1     C24      CTL2    -0.180000       12.0110           0
     20763 MEMB     181      CHL1     H24A     HAL2     0.900000E-01   1.00800           0
     20764 MEMB     181      CHL1     H24B     HAL2     0.900000E-01   1.00800           0
     20765 MEMB     181      CHL1     C25      CTL1    -0.900000E-01   12.0110           0
     20766 MEMB     181      CHL1     H25      HAL1     0.900000E-01   1.00800           0
     20767 MEMB     181      CHL1     C26      CTL3    -0.270000       12.0110           0
     20768 MEMB     181      CHL1     H26A     HAL3     0.900000E-01   1.00800           0
     20769 MEMB     181      CHL1     H26B     HAL3     0.900000E-01   1.00800           0
     20770 MEMB     181      CHL1     H26C     HAL3     0.900000E-01   1.00800           0
     20771 MEMB     181      CHL1     C27      CTL3    -0.270000       12.0110           0
     20772 MEMB     181      CHL1     H27A     HAL3     0.900000E-01   1.00800           0
     20773 MEMB     181      CHL1     H27B     HAL3     0.900000E-01   1.00800           0
     20774 MEMB     181      CHL1     H27C     HAL3     0.900000E-01   1.00800           0
     20775 MEMB     182      CHL1     C3       CRL1     0.140000       12.0110           0
     20776 MEMB     182      CHL1     H3       HGA1     0.900000E-01   1.00800           0
     20777 MEMB     182      CHL1     O3       OHL     -0.660000       15.9994           0
     20778 MEMB     182      CHL1     H3'      HOL      0.430000       1.00800           0
     20779 MEMB     182      CHL1     C4       CRL2    -0.180000       12.0110           0
     20780 MEMB     182      CHL1     H4A      HGA2     0.900000E-01   1.00800           0
     20781 MEMB     182      CHL1     H4B      HGA2     0.900000E-01   1.00800           0
     20782 MEMB     182      CHL1     C5       CEL1      0.00000       12.0110           0
     20783 MEMB     182      CHL1     C6       CEL1    -0.150000       12.0110           0
     20784 MEMB     182      CHL1     H6       HEL1     0.150000       1.00800           0
     20785 MEMB     182      CHL1     C7       CRL2    -0.180000       12.0110           0
     20786 MEMB     182      CHL1     H7A      HGA2     0.900000E-01   1.00800           0
     20787 MEMB     182      CHL1     H7B      HGA2     0.900000E-01   1.00800           0
     20788 MEMB     182      CHL1     C8       CRL1    -0.900000E-01   12.0110           0
     20789 MEMB     182      CHL1     H8       HGA1     0.900000E-01   1.00800           0
     20790 MEMB     182      CHL1     C14      CRL1    -0.900000E-01   12.0110           0
     20791 MEMB     182      CHL1     H14      HGA1     0.900000E-01   1.00800           0
     20792 MEMB     182      CHL1     C15      CRL2    -0.180000       12.0110           0
     20793 MEMB     182      CHL1     H15A     HGA2     0.900000E-01   1.00800           0
     20794 MEMB     182      CHL1     H15B     HGA2     0.900000E-01   1.00800           0
     20795 MEMB     182      CHL1     C16      CRL2    -0.180000       12.0110           0
     20796 MEMB     182      CHL1     H16A     HGA2     0.900000E-01   1.00800           0
     20797 MEMB     182      CHL1     H16B     HGA2     0.900000E-01   1.00800           0
     20798 MEMB     182      CHL1     C17      CRL1    -0.900000E-01   12.0110           0
     20799 MEMB     182      CHL1     H17      HGA1     0.900000E-01   1.00800           0
     20800 MEMB     182      CHL1     C13      CRL1      0.00000       12.0110           0
     20801 MEMB     182      CHL1     C18      CTL3    -0.270000       12.0110           0
     20802 MEMB     182      CHL1     H18A     HAL3     0.900000E-01   1.00800           0
     20803 MEMB     182      CHL1     H18B     HAL3     0.900000E-01   1.00800           0
     20804 MEMB     182      CHL1     H18C     HAL3     0.900000E-01   1.00800           0
     20805 MEMB     182      CHL1     C12      CRL2    -0.180000       12.0110           0
     20806 MEMB     182      CHL1     H12A     HGA2     0.900000E-01   1.00800           0
     20807 MEMB     182      CHL1     H12B     HGA2     0.900000E-01   1.00800           0
     20808 MEMB     182      CHL1     C11      CRL2    -0.180000       12.0110           0
     20809 MEMB     182      CHL1     H11A     HGA2     0.900000E-01   1.00800           0
     20810 MEMB     182      CHL1     H11B     HGA2     0.900000E-01   1.00800           0
     20811 MEMB     182      CHL1     C9       CRL1    -0.900000E-01   12.0110           0
     20812 MEMB     182      CHL1     H9       HGA1     0.900000E-01   1.00800           0
     20813 MEMB     182      CHL1     C10      CRL1      0.00000       12.0110           0
     20814 MEMB     182      CHL1     C19      CTL3    -0.270000       12.0110           0
     20815 MEMB     182      CHL1     H19A     HAL3     0.900000E-01   1.00800           0
     20816 MEMB     182      CHL1     H19B     HAL3     0.900000E-01   1.00800           0
     20817 MEMB     182      CHL1     H19C     HAL3     0.900000E-01   1.00800           0
     20818 MEMB     182      CHL1     C1       CRL2    -0.180000       12.0110           0
     20819 MEMB     182      CHL1     H1A      HGA2     0.900000E-01   1.00800           0
     20820 MEMB     182      CHL1     H1B      HGA2     0.900000E-01   1.00800           0
     20821 MEMB     182      CHL1     C2       CRL2    -0.180000       12.0110           0
     20822 MEMB     182      CHL1     H2A      HGA2     0.900000E-01   1.00800           0
     20823 MEMB     182      CHL1     H2B      HGA2     0.900000E-01   1.00800           0
     20824 MEMB     182      CHL1     C20      CTL1    -0.900000E-01   12.0110           0
     20825 MEMB     182      CHL1     H20      HAL1     0.900000E-01   1.00800           0
     20826 MEMB     182      CHL1     C21      CTL3    -0.270000       12.0110           0
     20827 MEMB     182      CHL1     H21A     HAL3     0.900000E-01   1.00800           0
     20828 MEMB     182      CHL1     H21B     HAL3     0.900000E-01   1.00800           0
     20829 MEMB     182      CHL1     H21C     HAL3     0.900000E-01   1.00800           0
     20830 MEMB     182      CHL1     C22      CTL2    -0.180000       12.0110           0
     20831 MEMB     182      CHL1     H22A     HAL2     0.900000E-01   1.00800           0
     20832 MEMB     182      CHL1     H22B     HAL2     0.900000E-01   1.00800           0
     20833 MEMB     182      CHL1     C23      CTL2    -0.180000       12.0110           0
     20834 MEMB     182      CHL1     H23A     HAL2     0.900000E-01   1.00800           0
     20835 MEMB     182      CHL1     H23B     HAL2     0.900000E-01   1.00800           0
     20836 MEMB     182      CHL1     C24      CTL2    -0.180000       12.0110           0
     20837 MEMB     182      CHL1     H24A     HAL2     0.900000E-01   1.00800           0
     20838 MEMB     182      CHL1     H24B     HAL2     0.900000E-01   1.00800           0
     20839 MEMB     182      CHL1     C25      CTL1    -0.900000E-01   12.0110           0
     20840 MEMB     182      CHL1     H25      HAL1     0.900000E-01   1.00800           0
     20841 MEMB     182      CHL1     C26      CTL3    -0.270000       12.0110           0
     20842 MEMB     182      CHL1     H26A     HAL3     0.900000E-01   1.00800           0
     20843 MEMB     182      CHL1     H26B     HAL3     0.900000E-01   1.00800           0
     20844 MEMB     182      CHL1     H26C     HAL3     0.900000E-01   1.00800           0
     20845 MEMB     182      CHL1     C27      CTL3    -0.270000       12.0110           0
     20846 MEMB     182      CHL1     H27A     HAL3     0.900000E-01   1.00800           0
     20847 MEMB     182      CHL1     H27B     HAL3     0.900000E-01   1.00800           0
     20848 MEMB     182      CHL1     H27C     HAL3     0.900000E-01   1.00800           0
     20849 MEMB     183      CHL1     C3       CRL1     0.140000       12.0110           0
     20850 MEMB     183      CHL1     H3       HGA1     0.900000E-01   1.00800           0
     20851 MEMB     183      CHL1     O3       OHL     -0.660000       15.9994           0
     20852 MEMB     183      CHL1     H3'      HOL      0.430000       1.00800           0
     20853 MEMB     183      CHL1     C4       CRL2    -0.180000       12.0110           0
     20854 MEMB     183      CHL1     H4A      HGA2     0.900000E-01   1.00800           0
     20855 MEMB     183      CHL1     H4B      HGA2     0.900000E-01   1.00800           0
     20856 MEMB     183      CHL1     C5       CEL1      0.00000       12.0110           0
     20857 MEMB     183      CHL1     C6       CEL1    -0.150000       12.0110           0
     20858 MEMB     183      CHL1     H6       HEL1     0.150000       1.00800           0
     20859 MEMB     183      CHL1     C7       CRL2    -0.180000       12.0110           0
     20860 MEMB     183      CHL1     H7A      HGA2     0.900000E-01   1.00800           0
     20861 MEMB     183      CHL1     H7B      HGA2     0.900000E-01   1.00800           0
     20862 MEMB     183      CHL1     C8       CRL1    -0.900000E-01   12.0110           0
     20863 MEMB     183      CHL1     H8       HGA1     0.900000E-01   1.00800           0
     20864 MEMB     183      CHL1     C14      CRL1    -0.900000E-01   12.0110           0
     20865 MEMB     183      CHL1     H14      HGA1     0.900000E-01   1.00800           0
     20866 MEMB     183      CHL1     C15      CRL2    -0.180000       12.0110           0
     20867 MEMB     183      CHL1     H15A     HGA2     0.900000E-01   1.00800           0
     20868 MEMB     183      CHL1     H15B     HGA2     0.900000E-01   1.00800           0
     20869 MEMB     183      CHL1     C16      CRL2    -0.180000       12.0110           0
     20870 MEMB     183      CHL1     H16A     HGA2     0.900000E-01   1.00800           0
     20871 MEMB     183      CHL1     H16B     HGA2     0.900000E-01   1.00800           0
     20872 MEMB     183      CHL1     C17      CRL1    -0.900000E-01   12.0110           0
     20873 MEMB     183      CHL1     H17      HGA1     0.900000E-01   1.00800           0
     20874 MEMB     183      CHL1     C13      CRL1      0.00000       12.0110           0
     20875 MEMB     183      CHL1     C18      CTL3    -0.270000       12.0110           0
     20876 MEMB     183      CHL1     H18A     HAL3     0.900000E-01   1.00800           0
     20877 MEMB     183      CHL1     H18B     HAL3     0.900000E-01   1.00800           0
     20878 MEMB     183      CHL1     H18C     HAL3     0.900000E-01   1.00800           0
     20879 MEMB     183      CHL1     C12      CRL2    -0.180000       12.0110           0
     20880 MEMB     183      CHL1     H12A     HGA2     0.900000E-01   1.00800           0
     20881 MEMB     183      CHL1     H12B     HGA2     0.900000E-01   1.00800           0
     20882 MEMB     183      CHL1     C11      CRL2    -0.180000       12.0110           0
     20883 MEMB     183      CHL1     H11A     HGA2     0.900000E-01   1.00800           0
     20884 MEMB     183      CHL1     H11B     HGA2     0.900000E-01   1.00800           0
     20885 MEMB     183      CHL1     C9       CRL1    -0.900000E-01   12.0110           0
     20886 MEMB     183      CHL1     H9       HGA1     0.900000E-01   1.00800           0
     20887 MEMB     183      CHL1     C10      CRL1      0.00000       12.0110           0
     20888 MEMB     183      CHL1     C19      CTL3    -0.270000       12.0110           0
     20889 MEMB     183      CHL1     H19A     HAL3     0.900000E-01   1.00800           0
     20890 MEMB     183      CHL1     H19B     HAL3     0.900000E-01   1.00800           0
     20891 MEMB     183      CHL1     H19C     HAL3     0.900000E-01   1.00800           0
     20892 MEMB     183      CHL1     C1       CRL2    -0.180000       12.0110           0
     20893 MEMB     183      CHL1     H1A      HGA2     0.900000E-01   1.00800           0
     20894 MEMB     183      CHL1     H1B      HGA2     0.900000E-01   1.00800           0
     20895 MEMB     183      CHL1     C2       CRL2    -0.180000       12.0110           0
     20896 MEMB     183      CHL1     H2A      HGA2     0.900000E-01   1.00800           0
     20897 MEMB     183      CHL1     H2B      HGA2     0.900000E-01   1.00800           0
     20898 MEMB     183      CHL1     C20      CTL1    -0.900000E-01   12.0110           0
     20899 MEMB     183      CHL1     H20      HAL1     0.900000E-01   1.00800           0
     20900 MEMB     183      CHL1     C21      CTL3    -0.270000       12.0110           0
     20901 MEMB     183      CHL1     H21A     HAL3     0.900000E-01   1.00800           0
     20902 MEMB     183      CHL1     H21B     HAL3     0.900000E-01   1.00800           0
     20903 MEMB     183      CHL1     H21C     HAL3     0.900000E-01   1.00800           0
     20904 MEMB     183      CHL1     C22      CTL2    -0.180000       12.0110           0
     20905 MEMB     183      CHL1     H22A     HAL2     0.900000E-01   1.00800           0
     20906 MEMB     183      CHL1     H22B     HAL2     0.900000E-01   1.00800           0
     20907 MEMB     183      CHL1     C23      CTL2    -0.180000       12.0110           0
     20908 MEMB     183      CHL1     H23A     HAL2     0.900000E-01   1.00800           0
     20909 MEMB     183      CHL1     H23B     HAL2     0.900000E-01   1.00800           0
     20910 MEMB     183      CHL1     C24      CTL2    -0.180000       12.0110           0
     20911 MEMB     183      CHL1     H24A     HAL2     0.900000E-01   1.00800           0
     20912 MEMB     183      CHL1     H24B     HAL2     0.900000E-01   1.00800           0
     20913 MEMB     183      CHL1     C25      CTL1    -0.900000E-01   12.0110           0
     20914 MEMB     183      CHL1     H25      HAL1     0.900000E-01   1.00800           0
     20915 MEMB     183      CHL1     C26      CTL3    -0.270000       12.0110           0
     20916 MEMB     183      CHL1     H26A     HAL3     0.900000E-01   1.00800           0
     20917 MEMB     183      CHL1     H26B     HAL3     0.900000E-01   1.00800           0
     20918 MEMB     183      CHL1     H26C     HAL3     0.900000E-01   1.00800           0
     20919 MEMB     183      CHL1     C27      CTL3    -0.270000       12.0110           0
     20920 MEMB     183      CHL1     H27A     HAL3     0.900000E-01   1.00800           0
     20921 MEMB     183      CHL1     H27B     HAL3     0.900000E-01   1.00800           0
     20922 MEMB     183      CHL1     H27C     HAL3     0.900000E-01   1.00800           0
     20923 MEMB     184      CHL1     C3       CRL1     0.140000       12.0110           0
     20924 MEMB     184      CHL1     H3       HGA1     0.900000E-01   1.00800           0
     20925 MEMB     184      CHL1     O3       OHL     -0.660000       15.9994           0
     20926 MEMB     184      CHL1     H3'      HOL      0.430000       1.00800           0
     20927 MEMB     184      CHL1     C4       CRL2    -0.180000       12.0110           0
     20928 MEMB     184      CHL1     H4A      HGA2     0.900000E-01   1.00800           0
     20929 MEMB     184      CHL1     H4B      HGA2     0.900000E-01   1.00800           0
     20930 MEMB     184      CHL1     C5       CEL1      0.00000       12.0110           0
     20931 MEMB     184      CHL1     C6       CEL1    -0.150000       12.0110           0
     20932 MEMB     184      CHL1     H6       HEL1     0.150000       1.00800           0
     20933 MEMB     184      CHL1     C7       CRL2    -0.180000       12.0110           0
     20934 MEMB     184      CHL1     H7A      HGA2     0.900000E-01   1.00800           0
     20935 MEMB     184      CHL1     H7B      HGA2     0.900000E-01   1.00800           0
     20936 MEMB     184      CHL1     C8       CRL1    -0.900000E-01   12.0110           0
     20937 MEMB     184      CHL1     H8       HGA1     0.900000E-01   1.00800           0
     20938 MEMB     184      CHL1     C14      CRL1    -0.900000E-01   12.0110           0
     20939 MEMB     184      CHL1     H14      HGA1     0.900000E-01   1.00800           0
     20940 MEMB     184      CHL1     C15      CRL2    -0.180000       12.0110           0
     20941 MEMB     184      CHL1     H15A     HGA2     0.900000E-01   1.00800           0
     20942 MEMB     184      CHL1     H15B     HGA2     0.900000E-01   1.00800           0
     20943 MEMB     184      CHL1     C16      CRL2    -0.180000       12.0110           0
     20944 MEMB     184      CHL1     H16A     HGA2     0.900000E-01   1.00800           0
     20945 MEMB     184      CHL1     H16B     HGA2     0.900000E-01   1.00800           0
     20946 MEMB     184      CHL1     C17      CRL1    -0.900000E-01   12.0110           0
     20947 MEMB     184      CHL1     H17      HGA1     0.900000E-01   1.00800           0
     20948 MEMB     184      CHL1     C13      CRL1      0.00000       12.0110           0
     20949 MEMB     184      CHL1     C18      CTL3    -0.270000       12.0110           0
     20950 MEMB     184      CHL1     H18A     HAL3     0.900000E-01   1.00800           0
     20951 MEMB     184      CHL1     H18B     HAL3     0.900000E-01   1.00800           0
     20952 MEMB     184      CHL1     H18C     HAL3     0.900000E-01   1.00800           0
     20953 MEMB     184      CHL1     C12      CRL2    -0.180000       12.0110           0
     20954 MEMB     184      CHL1     H12A     HGA2     0.900000E-01   1.00800           0
     20955 MEMB     184      CHL1     H12B     HGA2     0.900000E-01   1.00800           0
     20956 MEMB     184      CHL1     C11      CRL2    -0.180000       12.0110           0
     20957 MEMB     184      CHL1     H11A     HGA2     0.900000E-01   1.00800           0
     20958 MEMB     184      CHL1     H11B     HGA2     0.900000E-01   1.00800           0
     20959 MEMB     184      CHL1     C9       CRL1    -0.900000E-01   12.0110           0
     20960 MEMB     184      CHL1     H9       HGA1     0.900000E-01   1.00800           0
     20961 MEMB     184      CHL1     C10      CRL1      0.00000       12.0110           0
     20962 MEMB     184      CHL1     C19      CTL3    -0.270000       12.0110           0
     20963 MEMB     184      CHL1     H19A     HAL3     0.900000E-01   1.00800           0
     20964 MEMB     184      CHL1     H19B     HAL3     0.900000E-01   1.00800           0
     20965 MEMB     184      CHL1     H19C     HAL3     0.900000E-01   1.00800           0
     20966 MEMB     184      CHL1     C1       CRL2    -0.180000       12.0110           0
     20967 MEMB     184      CHL1     H1A      HGA2     0.900000E-01   1.00800           0
     20968 MEMB     184      CHL1     H1B      HGA2     0.900000E-01   1.00800           0
     20969 MEMB     184      CHL1     C2       CRL2    -0.180000       12.0110           0
     20970 MEMB     184      CHL1     H2A      HGA2     0.900000E-01   1.00800           0
     20971 MEMB     184      CHL1     H2B      HGA2     0.900000E-01   1.00800           0
     20972 MEMB     184      CHL1     C20      CTL1    -0.900000E-01   12.0110           0
     20973 MEMB     184      CHL1     H20      HAL1     0.900000E-01   1.00800           0
     20974 MEMB     184      CHL1     C21      CTL3    -0.270000       12.0110           0
     20975 MEMB     184      CHL1     H21A     HAL3     0.900000E-01   1.00800           0
     20976 MEMB     184      CHL1     H21B     HAL3     0.900000E-01   1.00800           0
     20977 MEMB     184      CHL1     H21C     HAL3     0.900000E-01   1.00800           0
     20978 MEMB     184      CHL1     C22      CTL2    -0.180000       12.0110           0
     20979 MEMB     184      CHL1     H22A     HAL2     0.900000E-01   1.00800           0
     20980 MEMB     184      CHL1     H22B     HAL2     0.900000E-01   1.00800           0
     20981 MEMB     184      CHL1     C23      CTL2    -0.180000       12.0110           0
     20982 MEMB     184      CHL1     H23A     HAL2     0.900000E-01   1.00800           0
     20983 MEMB     184      CHL1     H23B     HAL2     0.900000E-01   1.00800           0
     20984 MEMB     184      CHL1     C24      CTL2    -0.180000       12.0110           0
     20985 MEMB     184      CHL1     H24A     HAL2     0.900000E-01   1.00800           0
     20986 MEMB     184      CHL1     H24B     HAL2     0.900000E-01   1.00800           0
     20987 MEMB     184      CHL1     C25      CTL1    -0.900000E-01   12.0110           0
     20988 MEMB     184      CHL1     H25      HAL1     0.900000E-01   1.00800           0
     20989 MEMB     184      CHL1     C26      CTL3    -0.270000       12.0110           0
     20990 MEMB     184      CHL1     H26A     HAL3     0.900000E-01   1.00800           0
     20991 MEMB     184      CHL1     H26B     HAL3     0.900000E-01   1.00800           0
     20992 MEMB     184      CHL1     H26C     HAL3     0.900000E-01   1.00800           0
     20993 MEMB     184      CHL1     C27      CTL3    -0.270000       12.0110           0
     20994 MEMB     184      CHL1     H27A     HAL3     0.900000E-01   1.00800           0
     20995 MEMB     184      CHL1     H27B     HAL3     0.900000E-01   1.00800           0
     20996 MEMB     184      CHL1     H27C     HAL3     0.900000E-01   1.00800           0
     20997 MEMB     185      CHL1     C3       CRL1     0.140000       12.0110           0
     20998 MEMB     185      CHL1     H3       HGA1     0.900000E-01   1.00800           0
     20999 MEMB     185      CHL1     O3       OHL     -0.660000       15.9994           0
     21000 MEMB     185      CHL1     H3'      HOL      0.430000       1.00800           0
     21001 MEMB     185      CHL1     C4       CRL2    -0.180000       12.0110           0
     21002 MEMB     185      CHL1     H4A      HGA2     0.900000E-01   1.00800           0
     21003 MEMB     185      CHL1     H4B      HGA2     0.900000E-01   1.00800           0
     21004 MEMB     185      CHL1     C5       CEL1      0.00000       12.0110           0
     21005 MEMB     185      CHL1     C6       CEL1    -0.150000       12.0110           0
     21006 MEMB     185      CHL1     H6       HEL1     0.150000       1.00800           0
     21007 MEMB     185      CHL1     C7       CRL2    -0.180000       12.0110           0
     21008 MEMB     185      CHL1     H7A      HGA2     0.900000E-01   1.00800           0
     21009 MEMB     185      CHL1     H7B      HGA2     0.900000E-01   1.00800           0
     21010 MEMB     185      CHL1     C8       CRL1    -0.900000E-01   12.0110           0
     21011 MEMB     185      CHL1     H8       HGA1     0.900000E-01   1.00800           0
     21012 MEMB     185      CHL1     C14      CRL1    -0.900000E-01   12.0110           0
     21013 MEMB     185      CHL1     H14      HGA1     0.900000E-01   1.00800           0
     21014 MEMB     185      CHL1     C15      CRL2    -0.180000       12.0110           0
     21015 MEMB     185      CHL1     H15A     HGA2     0.900000E-01   1.00800           0
     21016 MEMB     185      CHL1     H15B     HGA2     0.900000E-01   1.00800           0
     21017 MEMB     185      CHL1     C16      CRL2    -0.180000       12.0110           0
     21018 MEMB     185      CHL1     H16A     HGA2     0.900000E-01   1.00800           0
     21019 MEMB     185      CHL1     H16B     HGA2     0.900000E-01   1.00800           0
     21020 MEMB     185      CHL1     C17      CRL1    -0.900000E-01   12.0110           0
     21021 MEMB     185      CHL1     H17      HGA1     0.900000E-01   1.00800           0
     21022 MEMB     185      CHL1     C13      CRL1      0.00000       12.0110           0
     21023 MEMB     185      CHL1     C18      CTL3    -0.270000       12.0110           0
     21024 MEMB     185      CHL1     H18A     HAL3     0.900000E-01   1.00800           0
     21025 MEMB     185      CHL1     H18B     HAL3     0.900000E-01   1.00800           0
     21026 MEMB     185      CHL1     H18C     HAL3     0.900000E-01   1.00800           0
     21027 MEMB     185      CHL1     C12      CRL2    -0.180000       12.0110           0
     21028 MEMB     185      CHL1     H12A     HGA2     0.900000E-01   1.00800           0
     21029 MEMB     185      CHL1     H12B     HGA2     0.900000E-01   1.00800           0
     21030 MEMB     185      CHL1     C11      CRL2    -0.180000       12.0110           0
     21031 MEMB     185      CHL1     H11A     HGA2     0.900000E-01   1.00800           0
     21032 MEMB     185      CHL1     H11B     HGA2     0.900000E-01   1.00800           0
     21033 MEMB     185      CHL1     C9       CRL1    -0.900000E-01   12.0110           0
     21034 MEMB     185      CHL1     H9       HGA1     0.900000E-01   1.00800           0
     21035 MEMB     185      CHL1     C10      CRL1      0.00000       12.0110           0
     21036 MEMB     185      CHL1     C19      CTL3    -0.270000       12.0110           0
     21037 MEMB     185      CHL1     H19A     HAL3     0.900000E-01   1.00800           0
     21038 MEMB     185      CHL1     H19B     HAL3     0.900000E-01   1.00800           0
     21039 MEMB     185      CHL1     H19C     HAL3     0.900000E-01   1.00800           0
     21040 MEMB     185      CHL1     C1       CRL2    -0.180000       12.0110           0
     21041 MEMB     185      CHL1     H1A      HGA2     0.900000E-01   1.00800           0
     21042 MEMB     185      CHL1     H1B      HGA2     0.900000E-01   1.00800           0
     21043 MEMB     185      CHL1     C2       CRL2    -0.180000       12.0110           0
     21044 MEMB     185      CHL1     H2A      HGA2     0.900000E-01   1.00800           0
     21045 MEMB     185      CHL1     H2B      HGA2     0.900000E-01   1.00800           0
     21046 MEMB     185      CHL1     C20      CTL1    -0.900000E-01   12.0110           0
     21047 MEMB     185      CHL1     H20      HAL1     0.900000E-01   1.00800           0
     21048 MEMB     185      CHL1     C21      CTL3    -0.270000       12.0110           0
     21049 MEMB     185      CHL1     H21A     HAL3     0.900000E-01   1.00800           0
     21050 MEMB     185      CHL1     H21B     HAL3     0.900000E-01   1.00800           0
     21051 MEMB     185      CHL1     H21C     HAL3     0.900000E-01   1.00800           0
     21052 MEMB     185      CHL1     C22      CTL2    -0.180000       12.0110           0
     21053 MEMB     185      CHL1     H22A     HAL2     0.900000E-01   1.00800           0
     21054 MEMB     185      CHL1     H22B     HAL2     0.900000E-01   1.00800           0
     21055 MEMB     185      CHL1     C23      CTL2    -0.180000       12.0110           0
     21056 MEMB     185      CHL1     H23A     HAL2     0.900000E-01   1.00800           0
     21057 MEMB     185      CHL1     H23B     HAL2     0.900000E-01   1.00800           0
     21058 MEMB     185      CHL1     C24      CTL2    -0.180000       12.0110           0
     21059 MEMB     185      CHL1     H24A     HAL2     0.900000E-01   1.00800           0
     21060 MEMB     185      CHL1     H24B     HAL2     0.900000E-01   1.00800           0
     21061 MEMB     185      CHL1     C25      CTL1    -0.900000E-01   12.0110           0
     21062 MEMB     185      CHL1     H25      HAL1     0.900000E-01   1.00800           0
     21063 MEMB     185      CHL1     C26      CTL3    -0.270000       12.0110           0
     21064 MEMB     185      CHL1     H26A     HAL3     0.900000E-01   1.00800           0
     21065 MEMB     185      CHL1     H26B     HAL3     0.900000E-01   1.00800           0
     21066 MEMB     185      CHL1     H26C     HAL3     0.900000E-01   1.00800           0
     21067 MEMB     185      CHL1     C27      CTL3    -0.270000       12.0110           0
     21068 MEMB     185      CHL1     H27A     HAL3     0.900000E-01   1.00800           0
     21069 MEMB     185      CHL1     H27B     HAL3     0.900000E-01   1.00800           0
     21070 MEMB     185      CHL1     H27C     HAL3     0.900000E-01   1.00800           0
     21071 MEMB     186      CHL1     C3       CRL1     0.140000       12.0110           0
     21072 MEMB     186      CHL1     H3       HGA1     0.900000E-01   1.00800           0
     21073 MEMB     186      CHL1     O3       OHL     -0.660000       15.9994           0
     21074 MEMB     186      CHL1     H3'      HOL      0.430000       1.00800           0
     21075 MEMB     186      CHL1     C4       CRL2    -0.180000       12.0110           0
     21076 MEMB     186      CHL1     H4A      HGA2     0.900000E-01   1.00800           0
     21077 MEMB     186      CHL1     H4B      HGA2     0.900000E-01   1.00800           0
     21078 MEMB     186      CHL1     C5       CEL1      0.00000       12.0110           0
     21079 MEMB     186      CHL1     C6       CEL1    -0.150000       12.0110           0
     21080 MEMB     186      CHL1     H6       HEL1     0.150000       1.00800           0
     21081 MEMB     186      CHL1     C7       CRL2    -0.180000       12.0110           0
     21082 MEMB     186      CHL1     H7A      HGA2     0.900000E-01   1.00800           0
     21083 MEMB     186      CHL1     H7B      HGA2     0.900000E-01   1.00800           0
     21084 MEMB     186      CHL1     C8       CRL1    -0.900000E-01   12.0110           0
     21085 MEMB     186      CHL1     H8       HGA1     0.900000E-01   1.00800           0
     21086 MEMB     186      CHL1     C14      CRL1    -0.900000E-01   12.0110           0
     21087 MEMB     186      CHL1     H14      HGA1     0.900000E-01   1.00800           0
     21088 MEMB     186      CHL1     C15      CRL2    -0.180000       12.0110           0
     21089 MEMB     186      CHL1     H15A     HGA2     0.900000E-01   1.00800           0
     21090 MEMB     186      CHL1     H15B     HGA2     0.900000E-01   1.00800           0
     21091 MEMB     186      CHL1     C16      CRL2    -0.180000       12.0110           0
     21092 MEMB     186      CHL1     H16A     HGA2     0.900000E-01   1.00800           0
     21093 MEMB     186      CHL1     H16B     HGA2     0.900000E-01   1.00800           0
     21094 MEMB     186      CHL1     C17      CRL1    -0.900000E-01   12.0110           0
     21095 MEMB     186      CHL1     H17      HGA1     0.900000E-01   1.00800           0
     21096 MEMB     186      CHL1     C13      CRL1      0.00000       12.0110           0
     21097 MEMB     186      CHL1     C18      CTL3    -0.270000       12.0110           0
     21098 MEMB     186      CHL1     H18A     HAL3     0.900000E-01   1.00800           0
     21099 MEMB     186      CHL1     H18B     HAL3     0.900000E-01   1.00800           0
     21100 MEMB     186      CHL1     H18C     HAL3     0.900000E-01   1.00800           0
     21101 MEMB     186      CHL1     C12      CRL2    -0.180000       12.0110           0
     21102 MEMB     186      CHL1     H12A     HGA2     0.900000E-01   1.00800           0
     21103 MEMB     186      CHL1     H12B     HGA2     0.900000E-01   1.00800           0
     21104 MEMB     186      CHL1     C11      CRL2    -0.180000       12.0110           0
     21105 MEMB     186      CHL1     H11A     HGA2     0.900000E-01   1.00800           0
     21106 MEMB     186      CHL1     H11B     HGA2     0.900000E-01   1.00800           0
     21107 MEMB     186      CHL1     C9       CRL1    -0.900000E-01   12.0110           0
     21108 MEMB     186      CHL1     H9       HGA1     0.900000E-01   1.00800           0
     21109 MEMB     186      CHL1     C10      CRL1      0.00000       12.0110           0
     21110 MEMB     186      CHL1     C19      CTL3    -0.270000       12.0110           0
     21111 MEMB     186      CHL1     H19A     HAL3     0.900000E-01   1.00800           0
     21112 MEMB     186      CHL1     H19B     HAL3     0.900000E-01   1.00800           0
     21113 MEMB     186      CHL1     H19C     HAL3     0.900000E-01   1.00800           0
     21114 MEMB     186      CHL1     C1       CRL2    -0.180000       12.0110           0
     21115 MEMB     186      CHL1     H1A      HGA2     0.900000E-01   1.00800           0
     21116 MEMB     186      CHL1     H1B      HGA2     0.900000E-01   1.00800           0
     21117 MEMB     186      CHL1     C2       CRL2    -0.180000       12.0110           0
     21118 MEMB     186      CHL1     H2A      HGA2     0.900000E-01   1.00800           0
     21119 MEMB     186      CHL1     H2B      HGA2     0.900000E-01   1.00800           0
     21120 MEMB     186      CHL1     C20      CTL1    -0.900000E-01   12.0110           0
     21121 MEMB     186      CHL1     H20      HAL1     0.900000E-01   1.00800           0
     21122 MEMB     186      CHL1     C21      CTL3    -0.270000       12.0110           0
     21123 MEMB     186      CHL1     H21A     HAL3     0.900000E-01   1.00800           0
     21124 MEMB     186      CHL1     H21B     HAL3     0.900000E-01   1.00800           0
     21125 MEMB     186      CHL1     H21C     HAL3     0.900000E-01   1.00800           0
     21126 MEMB     186      CHL1     C22      CTL2    -0.180000       12.0110           0
     21127 MEMB     186      CHL1     H22A     HAL2     0.900000E-01   1.00800           0
     21128 MEMB     186      CHL1     H22B     HAL2     0.900000E-01   1.00800           0
     21129 MEMB     186      CHL1     C23      CTL2    -0.180000       12.0110           0
     21130 MEMB     186      CHL1     H23A     HAL2     0.900000E-01   1.00800           0
     21131 MEMB     186      CHL1     H23B     HAL2     0.900000E-01   1.00800           0
     21132 MEMB     186      CHL1     C24      CTL2    -0.180000       12.0110           0
     21133 MEMB     186      CHL1     H24A     HAL2     0.900000E-01   1.00800           0
     21134 MEMB     186      CHL1     H24B     HAL2     0.900000E-01   1.00800           0
     21135 MEMB     186      CHL1     C25      CTL1    -0.900000E-01   12.0110           0
     21136 MEMB     186      CHL1     H25      HAL1     0.900000E-01   1.00800           0
     21137 MEMB     186      CHL1     C26      CTL3    -0.270000       12.0110           0
     21138 MEMB     186      CHL1     H26A     HAL3     0.900000E-01   1.00800           0
     21139 MEMB     186      CHL1     H26B     HAL3     0.900000E-01   1.00800           0
     21140 MEMB     186      CHL1     H26C     HAL3     0.900000E-01   1.00800           0
     21141 MEMB     186      CHL1     C27      CTL3    -0.270000       12.0110           0
     21142 MEMB     186      CHL1     H27A     HAL3     0.900000E-01   1.00800           0
     21143 MEMB     186      CHL1     H27B     HAL3     0.900000E-01   1.00800           0
     21144 MEMB     186      CHL1     H27C     HAL3     0.900000E-01   1.00800           0
     21145 MEMB     187      POPC     N        NTL     -0.600000       14.0070           0
     21146 MEMB     187      POPC     C12      CTL2    -0.100000       12.0110           0
     21147 MEMB     187      POPC     H12A     HL       0.250000       1.00800           0
     21148 MEMB     187      POPC     H12B     HL       0.250000       1.00800           0
     21149 MEMB     187      POPC     C13      CTL5    -0.350000       12.0110           0
     21150 MEMB     187      POPC     H13A     HL       0.250000       1.00800           0
     21151 MEMB     187      POPC     H13B     HL       0.250000       1.00800           0
     21152 MEMB     187      POPC     H13C     HL       0.250000       1.00800           0
     21153 MEMB     187      POPC     C14      CTL5    -0.350000       12.0110           0
     21154 MEMB     187      POPC     H14A     HL       0.250000       1.00800           0
     21155 MEMB     187      POPC     H14B     HL       0.250000       1.00800           0
     21156 MEMB     187      POPC     H14C     HL       0.250000       1.00800           0
     21157 MEMB     187      POPC     C15      CTL5    -0.350000       12.0110           0
     21158 MEMB     187      POPC     H15A     HL       0.250000       1.00800           0
     21159 MEMB     187      POPC     H15B     HL       0.250000       1.00800           0
     21160 MEMB     187      POPC     H15C     HL       0.250000       1.00800           0
     21161 MEMB     187      POPC     C11      CTL2    -0.800000E-01   12.0110           0
     21162 MEMB     187      POPC     H11A     HAL2     0.900000E-01   1.00800           0
     21163 MEMB     187      POPC     H11B     HAL2     0.900000E-01   1.00800           0
     21164 MEMB     187      POPC     P        PL        1.50000       30.9740           0
     21165 MEMB     187      POPC     O13      O2L     -0.780000       15.9994           0
     21166 MEMB     187      POPC     O14      O2L     -0.780000       15.9994           0
     21167 MEMB     187      POPC     O12      OSLP    -0.570000       15.9994           0
     21168 MEMB     187      POPC     O11      OSLP    -0.570000       15.9994           0
     21169 MEMB     187      POPC     C1       CTL2    -0.800000E-01   12.0110           0
     21170 MEMB     187      POPC     HA       HAL2     0.900000E-01   1.00800           0
     21171 MEMB     187      POPC     HB       HAL2     0.900000E-01   1.00800           0
     21172 MEMB     187      POPC     C2       CTL1     0.170000       12.0110           0
     21173 MEMB     187      POPC     HS       HAL1     0.900000E-01   1.00800           0
     21174 MEMB     187      POPC     O21      OSL     -0.490000       15.9994           0
     21175 MEMB     187      POPC     C21      CL       0.900000       12.0110           0
     21176 MEMB     187      POPC     O22      OBL     -0.630000       15.9994           0
     21177 MEMB     187      POPC     C22      CTL2    -0.220000       12.0110           0
     21178 MEMB     187      POPC     H2R      HAL2     0.900000E-01   1.00800           0
     21179 MEMB     187      POPC     H2S      HAL2     0.900000E-01   1.00800           0
     21180 MEMB     187      POPC     C3       CTL2     0.800000E-01   12.0110           0
     21181 MEMB     187      POPC     HX       HAL2     0.900000E-01   1.00800           0
     21182 MEMB     187      POPC     HY       HAL2     0.900000E-01   1.00800           0
     21183 MEMB     187      POPC     O31      OSL     -0.490000       15.9994           0
     21184 MEMB     187      POPC     C31      CL       0.900000       12.0110           0
     21185 MEMB     187      POPC     O32      OBL     -0.630000       15.9994           0
     21186 MEMB     187      POPC     C32      CTL2    -0.220000       12.0110           0
     21187 MEMB     187      POPC     H2X      HAL2     0.900000E-01   1.00800           0
     21188 MEMB     187      POPC     H2Y      HAL2     0.900000E-01   1.00800           0
     21189 MEMB     187      POPC     C23      CTL2    -0.180000       12.0110           0
     21190 MEMB     187      POPC     H3R      HAL2     0.900000E-01   1.00800           0
     21191 MEMB     187      POPC     H3S      HAL2     0.900000E-01   1.00800           0
     21192 MEMB     187      POPC     C24      CTL2    -0.180000       12.0110           0
     21193 MEMB     187      POPC     H4R      HAL2     0.900000E-01   1.00800           0
     21194 MEMB     187      POPC     H4S      HAL2     0.900000E-01   1.00800           0
     21195 MEMB     187      POPC     C25      CTL2    -0.180000       12.0110           0
     21196 MEMB     187      POPC     H5R      HAL2     0.900000E-01   1.00800           0
     21197 MEMB     187      POPC     H5S      HAL2     0.900000E-01   1.00800           0
     21198 MEMB     187      POPC     C26      CTL2    -0.180000       12.0110           0
     21199 MEMB     187      POPC     H6R      HAL2     0.900000E-01   1.00800           0
     21200 MEMB     187      POPC     H6S      HAL2     0.900000E-01   1.00800           0
     21201 MEMB     187      POPC     C27      CTL2    -0.180000       12.0110           0
     21202 MEMB     187      POPC     H7R      HAL2     0.900000E-01   1.00800           0
     21203 MEMB     187      POPC     H7S      HAL2     0.900000E-01   1.00800           0
     21204 MEMB     187      POPC     C28      CTL2    -0.180000       12.0110           0
     21205 MEMB     187      POPC     H8R      HAL2     0.900000E-01   1.00800           0
     21206 MEMB     187      POPC     H8S      HAL2     0.900000E-01   1.00800           0
     21207 MEMB     187      POPC     C29      CEL1    -0.150000       12.0110           0
     21208 MEMB     187      POPC     H91      HEL1     0.150000       1.00800           0
     21209 MEMB     187      POPC     C210     CEL1    -0.150000       12.0110           0
     21210 MEMB     187      POPC     H101     HEL1     0.150000       1.00800           0
     21211 MEMB     187      POPC     C211     CTL2    -0.180000       12.0110           0
     21212 MEMB     187      POPC     H11R     HAL2     0.900000E-01   1.00800           0
     21213 MEMB     187      POPC     H11S     HAL2     0.900000E-01   1.00800           0
     21214 MEMB     187      POPC     C212     CTL2    -0.180000       12.0110           0
     21215 MEMB     187      POPC     H12R     HAL2     0.900000E-01   1.00800           0
     21216 MEMB     187      POPC     H12S     HAL2     0.900000E-01   1.00800           0
     21217 MEMB     187      POPC     C213     CTL2    -0.180000       12.0110           0
     21218 MEMB     187      POPC     H13R     HAL2     0.900000E-01   1.00800           0
     21219 MEMB     187      POPC     H13S     HAL2     0.900000E-01   1.00800           0
     21220 MEMB     187      POPC     C214     CTL2    -0.180000       12.0110           0
     21221 MEMB     187      POPC     H14R     HAL2     0.900000E-01   1.00800           0
     21222 MEMB     187      POPC     H14S     HAL2     0.900000E-01   1.00800           0
     21223 MEMB     187      POPC     C215     CTL2    -0.180000       12.0110           0
     21224 MEMB     187      POPC     H15R     HAL2     0.900000E-01   1.00800           0
     21225 MEMB     187      POPC     H15S     HAL2     0.900000E-01   1.00800           0
     21226 MEMB     187      POPC     C216     CTL2    -0.180000       12.0110           0
     21227 MEMB     187      POPC     H16R     HAL2     0.900000E-01   1.00800           0
     21228 MEMB     187      POPC     H16S     HAL2     0.900000E-01   1.00800           0
     21229 MEMB     187      POPC     C217     CTL2    -0.180000       12.0110           0
     21230 MEMB     187      POPC     H17R     HAL2     0.900000E-01   1.00800           0
     21231 MEMB     187      POPC     H17S     HAL2     0.900000E-01   1.00800           0
     21232 MEMB     187      POPC     C218     CTL3    -0.270000       12.0110           0
     21233 MEMB     187      POPC     H18R     HAL3     0.900000E-01   1.00800           0
     21234 MEMB     187      POPC     H18S     HAL3     0.900000E-01   1.00800           0
     21235 MEMB     187      POPC     H18T     HAL3     0.900000E-01   1.00800           0
     21236 MEMB     187      POPC     C33      CTL2    -0.180000       12.0110           0
     21237 MEMB     187      POPC     H3X      HAL2     0.900000E-01   1.00800           0
     21238 MEMB     187      POPC     H3Y      HAL2     0.900000E-01   1.00800           0
     21239 MEMB     187      POPC     C34      CTL2    -0.180000       12.0110           0
     21240 MEMB     187      POPC     H4X      HAL2     0.900000E-01   1.00800           0
     21241 MEMB     187      POPC     H4Y      HAL2     0.900000E-01   1.00800           0
     21242 MEMB     187      POPC     C35      CTL2    -0.180000       12.0110           0
     21243 MEMB     187      POPC     H5X      HAL2     0.900000E-01   1.00800           0
     21244 MEMB     187      POPC     H5Y      HAL2     0.900000E-01   1.00800           0
     21245 MEMB     187      POPC     C36      CTL2    -0.180000       12.0110           0
     21246 MEMB     187      POPC     H6X      HAL2     0.900000E-01   1.00800           0
     21247 MEMB     187      POPC     H6Y      HAL2     0.900000E-01   1.00800           0
     21248 MEMB     187      POPC     C37      CTL2    -0.180000       12.0110           0
     21249 MEMB     187      POPC     H7X      HAL2     0.900000E-01   1.00800           0
     21250 MEMB     187      POPC     H7Y      HAL2     0.900000E-01   1.00800           0
     21251 MEMB     187      POPC     C38      CTL2    -0.180000       12.0110           0
     21252 MEMB     187      POPC     H8X      HAL2     0.900000E-01   1.00800           0
     21253 MEMB     187      POPC     H8Y      HAL2     0.900000E-01   1.00800           0
     21254 MEMB     187      POPC     C39      CTL2    -0.180000       12.0110           0
     21255 MEMB     187      POPC     H9X      HAL2     0.900000E-01   1.00800           0
     21256 MEMB     187      POPC     H9Y      HAL2     0.900000E-01   1.00800           0
     21257 MEMB     187      POPC     C310     CTL2    -0.180000       12.0110           0
     21258 MEMB     187      POPC     H10X     HAL2     0.900000E-01   1.00800           0
     21259 MEMB     187      POPC     H10Y     HAL2     0.900000E-01   1.00800           0
     21260 MEMB     187      POPC     C311     CTL2    -0.180000       12.0110           0
     21261 MEMB     187      POPC     H11X     HAL2     0.900000E-01   1.00800           0
     21262 MEMB     187      POPC     H11Y     HAL2     0.900000E-01   1.00800           0
     21263 MEMB     187      POPC     C312     CTL2    -0.180000       12.0110           0
     21264 MEMB     187      POPC     H12X     HAL2     0.900000E-01   1.00800           0
     21265 MEMB     187      POPC     H12Y     HAL2     0.900000E-01   1.00800           0
     21266 MEMB     187      POPC     C313     CTL2    -0.180000       12.0110           0
     21267 MEMB     187      POPC     H13X     HAL2     0.900000E-01   1.00800           0
     21268 MEMB     187      POPC     H13Y     HAL2     0.900000E-01   1.00800           0
     21269 MEMB     187      POPC     C314     CTL2    -0.180000       12.0110           0
     21270 MEMB     187      POPC     H14X     HAL2     0.900000E-01   1.00800           0
     21271 MEMB     187      POPC     H14Y     HAL2     0.900000E-01   1.00800           0
     21272 MEMB     187      POPC     C315     CTL2    -0.180000       12.0110           0
     21273 MEMB     187      POPC     H15X     HAL2     0.900000E-01   1.00800           0
     21274 MEMB     187      POPC     H15Y     HAL2     0.900000E-01   1.00800           0
     21275 MEMB     187      POPC     C316     CTL3    -0.270000       12.0110           0
     21276 MEMB     187      POPC     H16X     HAL3     0.900000E-01   1.00800           0
     21277 MEMB     187      POPC     H16Y     HAL3     0.900000E-01   1.00800           0
     21278 MEMB     187      POPC     H16Z     HAL3     0.900000E-01   1.00800           0
     21279 MEMB     188      POPC     N        NTL     -0.600000       14.0070           0
     21280 MEMB     188      POPC     C12      CTL2    -0.100000       12.0110           0
     21281 MEMB     188      POPC     H12A     HL       0.250000       1.00800           0
     21282 MEMB     188      POPC     H12B     HL       0.250000       1.00800           0
     21283 MEMB     188      POPC     C13      CTL5    -0.350000       12.0110           0
     21284 MEMB     188      POPC     H13A     HL       0.250000       1.00800           0
     21285 MEMB     188      POPC     H13B     HL       0.250000       1.00800           0
     21286 MEMB     188      POPC     H13C     HL       0.250000       1.00800           0
     21287 MEMB     188      POPC     C14      CTL5    -0.350000       12.0110           0
     21288 MEMB     188      POPC     H14A     HL       0.250000       1.00800           0
     21289 MEMB     188      POPC     H14B     HL       0.250000       1.00800           0
     21290 MEMB     188      POPC     H14C     HL       0.250000       1.00800           0
     21291 MEMB     188      POPC     C15      CTL5    -0.350000       12.0110           0
     21292 MEMB     188      POPC     H15A     HL       0.250000       1.00800           0
     21293 MEMB     188      POPC     H15B     HL       0.250000       1.00800           0
     21294 MEMB     188      POPC     H15C     HL       0.250000       1.00800           0
     21295 MEMB     188      POPC     C11      CTL2    -0.800000E-01   12.0110           0
     21296 MEMB     188      POPC     H11A     HAL2     0.900000E-01   1.00800           0
     21297 MEMB     188      POPC     H11B     HAL2     0.900000E-01   1.00800           0
     21298 MEMB     188      POPC     P        PL        1.50000       30.9740           0
     21299 MEMB     188      POPC     O13      O2L     -0.780000       15.9994           0
     21300 MEMB     188      POPC     O14      O2L     -0.780000       15.9994           0
     21301 MEMB     188      POPC     O12      OSLP    -0.570000       15.9994           0
     21302 MEMB     188      POPC     O11      OSLP    -0.570000       15.9994           0
     21303 MEMB     188      POPC     C1       CTL2    -0.800000E-01   12.0110           0
     21304 MEMB     188      POPC     HA       HAL2     0.900000E-01   1.00800           0
     21305 MEMB     188      POPC     HB       HAL2     0.900000E-01   1.00800           0
     21306 MEMB     188      POPC     C2       CTL1     0.170000       12.0110           0
     21307 MEMB     188      POPC     HS       HAL1     0.900000E-01   1.00800           0
     21308 MEMB     188      POPC     O21      OSL     -0.490000       15.9994           0
     21309 MEMB     188      POPC     C21      CL       0.900000       12.0110           0
     21310 MEMB     188      POPC     O22      OBL     -0.630000       15.9994           0
     21311 MEMB     188      POPC     C22      CTL2    -0.220000       12.0110           0
     21312 MEMB     188      POPC     H2R      HAL2     0.900000E-01   1.00800           0
     21313 MEMB     188      POPC     H2S      HAL2     0.900000E-01   1.00800           0
     21314 MEMB     188      POPC     C3       CTL2     0.800000E-01   12.0110           0
     21315 MEMB     188      POPC     HX       HAL2     0.900000E-01   1.00800           0
     21316 MEMB     188      POPC     HY       HAL2     0.900000E-01   1.00800           0
     21317 MEMB     188      POPC     O31      OSL     -0.490000       15.9994           0
     21318 MEMB     188      POPC     C31      CL       0.900000       12.0110           0
     21319 MEMB     188      POPC     O32      OBL     -0.630000       15.9994           0
     21320 MEMB     188      POPC     C32      CTL2    -0.220000       12.0110           0
     21321 MEMB     188      POPC     H2X      HAL2     0.900000E-01   1.00800           0
     21322 MEMB     188      POPC     H2Y      HAL2     0.900000E-01   1.00800           0
     21323 MEMB     188      POPC     C23      CTL2    -0.180000       12.0110           0
     21324 MEMB     188      POPC     H3R      HAL2     0.900000E-01   1.00800           0
     21325 MEMB     188      POPC     H3S      HAL2     0.900000E-01   1.00800           0
     21326 MEMB     188      POPC     C24      CTL2    -0.180000       12.0110           0
     21327 MEMB     188      POPC     H4R      HAL2     0.900000E-01   1.00800           0
     21328 MEMB     188      POPC     H4S      HAL2     0.900000E-01   1.00800           0
     21329 MEMB     188      POPC     C25      CTL2    -0.180000       12.0110           0
     21330 MEMB     188      POPC     H5R      HAL2     0.900000E-01   1.00800           0
     21331 MEMB     188      POPC     H5S      HAL2     0.900000E-01   1.00800           0
     21332 MEMB     188      POPC     C26      CTL2    -0.180000       12.0110           0
     21333 MEMB     188      POPC     H6R      HAL2     0.900000E-01   1.00800           0
     21334 MEMB     188      POPC     H6S      HAL2     0.900000E-01   1.00800           0
     21335 MEMB     188      POPC     C27      CTL2    -0.180000       12.0110           0
     21336 MEMB     188      POPC     H7R      HAL2     0.900000E-01   1.00800           0
     21337 MEMB     188      POPC     H7S      HAL2     0.900000E-01   1.00800           0
     21338 MEMB     188      POPC     C28      CTL2    -0.180000       12.0110           0
     21339 MEMB     188      POPC     H8R      HAL2     0.900000E-01   1.00800           0
     21340 MEMB     188      POPC     H8S      HAL2     0.900000E-01   1.00800           0
     21341 MEMB     188      POPC     C29      CEL1    -0.150000       12.0110           0
     21342 MEMB     188      POPC     H91      HEL1     0.150000       1.00800           0
     21343 MEMB     188      POPC     C210     CEL1    -0.150000       12.0110           0
     21344 MEMB     188      POPC     H101     HEL1     0.150000       1.00800           0
     21345 MEMB     188      POPC     C211     CTL2    -0.180000       12.0110           0
     21346 MEMB     188      POPC     H11R     HAL2     0.900000E-01   1.00800           0
     21347 MEMB     188      POPC     H11S     HAL2     0.900000E-01   1.00800           0
     21348 MEMB     188      POPC     C212     CTL2    -0.180000       12.0110           0
     21349 MEMB     188      POPC     H12R     HAL2     0.900000E-01   1.00800           0
     21350 MEMB     188      POPC     H12S     HAL2     0.900000E-01   1.00800           0
     21351 MEMB     188      POPC     C213     CTL2    -0.180000       12.0110           0
     21352 MEMB     188      POPC     H13R     HAL2     0.900000E-01   1.00800           0
     21353 MEMB     188      POPC     H13S     HAL2     0.900000E-01   1.00800           0
     21354 MEMB     188      POPC     C214     CTL2    -0.180000       12.0110           0
     21355 MEMB     188      POPC     H14R     HAL2     0.900000E-01   1.00800           0
     21356 MEMB     188      POPC     H14S     HAL2     0.900000E-01   1.00800           0
     21357 MEMB     188      POPC     C215     CTL2    -0.180000       12.0110           0
     21358 MEMB     188      POPC     H15R     HAL2     0.900000E-01   1.00800           0
     21359 MEMB     188      POPC     H15S     HAL2     0.900000E-01   1.00800           0
     21360 MEMB     188      POPC     C216     CTL2    -0.180000       12.0110           0
     21361 MEMB     188      POPC     H16R     HAL2     0.900000E-01   1.00800           0
     21362 MEMB     188      POPC     H16S     HAL2     0.900000E-01   1.00800           0
     21363 MEMB     188      POPC     C217     CTL2    -0.180000       12.0110           0
     21364 MEMB     188      POPC     H17R     HAL2     0.900000E-01   1.00800           0
     21365 MEMB     188      POPC     H17S     HAL2     0.900000E-01   1.00800           0
     21366 MEMB     188      POPC     C218     CTL3    -0.270000       12.0110           0
     21367 MEMB     188      POPC     H18R     HAL3     0.900000E-01   1.00800           0
     21368 MEMB     188      POPC     H18S     HAL3     0.900000E-01   1.00800           0
     21369 MEMB     188      POPC     H18T     HAL3     0.900000E-01   1.00800           0
     21370 MEMB     188      POPC     C33      CTL2    -0.180000       12.0110           0
     21371 MEMB     188      POPC     H3X      HAL2     0.900000E-01   1.00800           0
     21372 MEMB     188      POPC     H3Y      HAL2     0.900000E-01   1.00800           0
     21373 MEMB     188      POPC     C34      CTL2    -0.180000       12.0110           0
     21374 MEMB     188      POPC     H4X      HAL2     0.900000E-01   1.00800           0
     21375 MEMB     188      POPC     H4Y      HAL2     0.900000E-01   1.00800           0
     21376 MEMB     188      POPC     C35      CTL2    -0.180000       12.0110           0
     21377 MEMB     188      POPC     H5X      HAL2     0.900000E-01   1.00800           0
     21378 MEMB     188      POPC     H5Y      HAL2     0.900000E-01   1.00800           0
     21379 MEMB     188      POPC     C36      CTL2    -0.180000       12.0110           0
     21380 MEMB     188      POPC     H6X      HAL2     0.900000E-01   1.00800           0
     21381 MEMB     188      POPC     H6Y      HAL2     0.900000E-01   1.00800           0
     21382 MEMB     188      POPC     C37      CTL2    -0.180000       12.0110           0
     21383 MEMB     188      POPC     H7X      HAL2     0.900000E-01   1.00800           0
     21384 MEMB     188      POPC     H7Y      HAL2     0.900000E-01   1.00800           0
     21385 MEMB     188      POPC     C38      CTL2    -0.180000       12.0110           0
     21386 MEMB     188      POPC     H8X      HAL2     0.900000E-01   1.00800           0
     21387 MEMB     188      POPC     H8Y      HAL2     0.900000E-01   1.00800           0
     21388 MEMB     188      POPC     C39      CTL2    -0.180000       12.0110           0
     21389 MEMB     188      POPC     H9X      HAL2     0.900000E-01   1.00800           0
     21390 MEMB     188      POPC     H9Y      HAL2     0.900000E-01   1.00800           0
     21391 MEMB     188      POPC     C310     CTL2    -0.180000       12.0110           0
     21392 MEMB     188      POPC     H10X     HAL2     0.900000E-01   1.00800           0
     21393 MEMB     188      POPC     H10Y     HAL2     0.900000E-01   1.00800           0
     21394 MEMB     188      POPC     C311     CTL2    -0.180000       12.0110           0
     21395 MEMB     188      POPC     H11X     HAL2     0.900000E-01   1.00800           0
     21396 MEMB     188      POPC     H11Y     HAL2     0.900000E-01   1.00800           0
     21397 MEMB     188      POPC     C312     CTL2    -0.180000       12.0110           0
     21398 MEMB     188      POPC     H12X     HAL2     0.900000E-01   1.00800           0
     21399 MEMB     188      POPC     H12Y     HAL2     0.900000E-01   1.00800           0
     21400 MEMB     188      POPC     C313     CTL2    -0.180000       12.0110           0
     21401 MEMB     188      POPC     H13X     HAL2     0.900000E-01   1.00800           0
     21402 MEMB     188      POPC     H13Y     HAL2     0.900000E-01   1.00800           0
     21403 MEMB     188      POPC     C314     CTL2    -0.180000       12.0110           0
     21404 MEMB     188      POPC     H14X     HAL2     0.900000E-01   1.00800           0
     21405 MEMB     188      POPC     H14Y     HAL2     0.900000E-01   1.00800           0
     21406 MEMB     188      POPC     C315     CTL2    -0.180000       12.0110           0
     21407 MEMB     188      POPC     H15X     HAL2     0.900000E-01   1.00800           0
     21408 MEMB     188      POPC     H15Y     HAL2     0.900000E-01   1.00800           0
     21409 MEMB     188      POPC     C316     CTL3    -0.270000       12.0110           0
     21410 MEMB     188      POPC     H16X     HAL3     0.900000E-01   1.00800           0
     21411 MEMB     188      POPC     H16Y     HAL3     0.900000E-01   1.00800           0
     21412 MEMB     188      POPC     H16Z     HAL3     0.900000E-01   1.00800           0
     21413 MEMB     189      POPC     N        NTL     -0.600000       14.0070           0
     21414 MEMB     189      POPC     C12      CTL2    -0.100000       12.0110           0
     21415 MEMB     189      POPC     H12A     HL       0.250000       1.00800           0
     21416 MEMB     189      POPC     H12B     HL       0.250000       1.00800           0
     21417 MEMB     189      POPC     C13      CTL5    -0.350000       12.0110           0
     21418 MEMB     189      POPC     H13A     HL       0.250000       1.00800           0
     21419 MEMB     189      POPC     H13B     HL       0.250000       1.00800           0
     21420 MEMB     189      POPC     H13C     HL       0.250000       1.00800           0
     21421 MEMB     189      POPC     C14      CTL5    -0.350000       12.0110           0
     21422 MEMB     189      POPC     H14A     HL       0.250000       1.00800           0
     21423 MEMB     189      POPC     H14B     HL       0.250000       1.00800           0
     21424 MEMB     189      POPC     H14C     HL       0.250000       1.00800           0
     21425 MEMB     189      POPC     C15      CTL5    -0.350000       12.0110           0
     21426 MEMB     189      POPC     H15A     HL       0.250000       1.00800           0
     21427 MEMB     189      POPC     H15B     HL       0.250000       1.00800           0
     21428 MEMB     189      POPC     H15C     HL       0.250000       1.00800           0
     21429 MEMB     189      POPC     C11      CTL2    -0.800000E-01   12.0110           0
     21430 MEMB     189      POPC     H11A     HAL2     0.900000E-01   1.00800           0
     21431 MEMB     189      POPC     H11B     HAL2     0.900000E-01   1.00800           0
     21432 MEMB     189      POPC     P        PL        1.50000       30.9740           0
     21433 MEMB     189      POPC     O13      O2L     -0.780000       15.9994           0
     21434 MEMB     189      POPC     O14      O2L     -0.780000       15.9994           0
     21435 MEMB     189      POPC     O12      OSLP    -0.570000       15.9994           0
     21436 MEMB     189      POPC     O11      OSLP    -0.570000       15.9994           0
     21437 MEMB     189      POPC     C1       CTL2    -0.800000E-01   12.0110           0
     21438 MEMB     189      POPC     HA       HAL2     0.900000E-01   1.00800           0
     21439 MEMB     189      POPC     HB       HAL2     0.900000E-01   1.00800           0
     21440 MEMB     189      POPC     C2       CTL1     0.170000       12.0110           0
     21441 MEMB     189      POPC     HS       HAL1     0.900000E-01   1.00800           0
     21442 MEMB     189      POPC     O21      OSL     -0.490000       15.9994           0
     21443 MEMB     189      POPC     C21      CL       0.900000       12.0110           0
     21444 MEMB     189      POPC     O22      OBL     -0.630000       15.9994           0
     21445 MEMB     189      POPC     C22      CTL2    -0.220000       12.0110           0
     21446 MEMB     189      POPC     H2R      HAL2     0.900000E-01   1.00800           0
     21447 MEMB     189      POPC     H2S      HAL2     0.900000E-01   1.00800           0
     21448 MEMB     189      POPC     C3       CTL2     0.800000E-01   12.0110           0
     21449 MEMB     189      POPC     HX       HAL2     0.900000E-01   1.00800           0
     21450 MEMB     189      POPC     HY       HAL2     0.900000E-01   1.00800           0
     21451 MEMB     189      POPC     O31      OSL     -0.490000       15.9994           0
     21452 MEMB     189      POPC     C31      CL       0.900000       12.0110           0
     21453 MEMB     189      POPC     O32      OBL     -0.630000       15.9994           0
     21454 MEMB     189      POPC     C32      CTL2    -0.220000       12.0110           0
     21455 MEMB     189      POPC     H2X      HAL2     0.900000E-01   1.00800           0
     21456 MEMB     189      POPC     H2Y      HAL2     0.900000E-01   1.00800           0
     21457 MEMB     189      POPC     C23      CTL2    -0.180000       12.0110           0
     21458 MEMB     189      POPC     H3R      HAL2     0.900000E-01   1.00800           0
     21459 MEMB     189      POPC     H3S      HAL2     0.900000E-01   1.00800           0
     21460 MEMB     189      POPC     C24      CTL2    -0.180000       12.0110           0
     21461 MEMB     189      POPC     H4R      HAL2     0.900000E-01   1.00800           0
     21462 MEMB     189      POPC     H4S      HAL2     0.900000E-01   1.00800           0
     21463 MEMB     189      POPC     C25      CTL2    -0.180000       12.0110           0
     21464 MEMB     189      POPC     H5R      HAL2     0.900000E-01   1.00800           0
     21465 MEMB     189      POPC     H5S      HAL2     0.900000E-01   1.00800           0
     21466 MEMB     189      POPC     C26      CTL2    -0.180000       12.0110           0
     21467 MEMB     189      POPC     H6R      HAL2     0.900000E-01   1.00800           0
     21468 MEMB     189      POPC     H6S      HAL2     0.900000E-01   1.00800           0
     21469 MEMB     189      POPC     C27      CTL2    -0.180000       12.0110           0
     21470 MEMB     189      POPC     H7R      HAL2     0.900000E-01   1.00800           0
     21471 MEMB     189      POPC     H7S      HAL2     0.900000E-01   1.00800           0
     21472 MEMB     189      POPC     C28      CTL2    -0.180000       12.0110           0
     21473 MEMB     189      POPC     H8R      HAL2     0.900000E-01   1.00800           0
     21474 MEMB     189      POPC     H8S      HAL2     0.900000E-01   1.00800           0
     21475 MEMB     189      POPC     C29      CEL1    -0.150000       12.0110           0
     21476 MEMB     189      POPC     H91      HEL1     0.150000       1.00800           0
     21477 MEMB     189      POPC     C210     CEL1    -0.150000       12.0110           0
     21478 MEMB     189      POPC     H101     HEL1     0.150000       1.00800           0
     21479 MEMB     189      POPC     C211     CTL2    -0.180000       12.0110           0
     21480 MEMB     189      POPC     H11R     HAL2     0.900000E-01   1.00800           0
     21481 MEMB     189      POPC     H11S     HAL2     0.900000E-01   1.00800           0
     21482 MEMB     189      POPC     C212     CTL2    -0.180000       12.0110           0
     21483 MEMB     189      POPC     H12R     HAL2     0.900000E-01   1.00800           0
     21484 MEMB     189      POPC     H12S     HAL2     0.900000E-01   1.00800           0
     21485 MEMB     189      POPC     C213     CTL2    -0.180000       12.0110           0
     21486 MEMB     189      POPC     H13R     HAL2     0.900000E-01   1.00800           0
     21487 MEMB     189      POPC     H13S     HAL2     0.900000E-01   1.00800           0
     21488 MEMB     189      POPC     C214     CTL2    -0.180000       12.0110           0
     21489 MEMB     189      POPC     H14R     HAL2     0.900000E-01   1.00800           0
     21490 MEMB     189      POPC     H14S     HAL2     0.900000E-01   1.00800           0
     21491 MEMB     189      POPC     C215     CTL2    -0.180000       12.0110           0
     21492 MEMB     189      POPC     H15R     HAL2     0.900000E-01   1.00800           0
     21493 MEMB     189      POPC     H15S     HAL2     0.900000E-01   1.00800           0
     21494 MEMB     189      POPC     C216     CTL2    -0.180000       12.0110           0
     21495 MEMB     189      POPC     H16R     HAL2     0.900000E-01   1.00800           0
     21496 MEMB     189      POPC     H16S     HAL2     0.900000E-01   1.00800           0
     21497 MEMB     189      POPC     C217     CTL2    -0.180000       12.0110           0
     21498 MEMB     189      POPC     H17R     HAL2     0.900000E-01   1.00800           0
     21499 MEMB     189      POPC     H17S     HAL2     0.900000E-01   1.00800           0
     21500 MEMB     189      POPC     C218     CTL3    -0.270000       12.0110           0
     21501 MEMB     189      POPC     H18R     HAL3     0.900000E-01   1.00800           0
     21502 MEMB     189      POPC     H18S     HAL3     0.900000E-01   1.00800           0
     21503 MEMB     189      POPC     H18T     HAL3     0.900000E-01   1.00800           0
     21504 MEMB     189      POPC     C33      CTL2    -0.180000       12.0110           0
     21505 MEMB     189      POPC     H3X      HAL2     0.900000E-01   1.00800           0
     21506 MEMB     189      POPC     H3Y      HAL2     0.900000E-01   1.00800           0
     21507 MEMB     189      POPC     C34      CTL2    -0.180000       12.0110           0
     21508 MEMB     189      POPC     H4X      HAL2     0.900000E-01   1.00800           0
     21509 MEMB     189      POPC     H4Y      HAL2     0.900000E-01   1.00800           0
     21510 MEMB     189      POPC     C35      CTL2    -0.180000       12.0110           0
     21511 MEMB     189      POPC     H5X      HAL2     0.900000E-01   1.00800           0
     21512 MEMB     189      POPC     H5Y      HAL2     0.900000E-01   1.00800           0
     21513 MEMB     189      POPC     C36      CTL2    -0.180000       12.0110           0
     21514 MEMB     189      POPC     H6X      HAL2     0.900000E-01   1.00800           0
     21515 MEMB     189      POPC     H6Y      HAL2     0.900000E-01   1.00800           0
     21516 MEMB     189      POPC     C37      CTL2    -0.180000       12.0110           0
     21517 MEMB     189      POPC     H7X      HAL2     0.900000E-01   1.00800           0
     21518 MEMB     189      POPC     H7Y      HAL2     0.900000E-01   1.00800           0
     21519 MEMB     189      POPC     C38      CTL2    -0.180000       12.0110           0
     21520 MEMB     189      POPC     H8X      HAL2     0.900000E-01   1.00800           0
     21521 MEMB     189      POPC     H8Y      HAL2     0.900000E-01   1.00800           0
     21522 MEMB     189      POPC     C39      CTL2    -0.180000       12.0110           0
     21523 MEMB     189      POPC     H9X      HAL2     0.900000E-01   1.00800           0
     21524 MEMB     189      POPC     H9Y      HAL2     0.900000E-01   1.00800           0
     21525 MEMB     189      POPC     C310     CTL2    -0.180000       12.0110           0
     21526 MEMB     189      POPC     H10X     HAL2     0.900000E-01   1.00800           0
     21527 MEMB     189      POPC     H10Y     HAL2     0.900000E-01   1.00800           0
     21528 MEMB     189      POPC     C311     CTL2    -0.180000       12.0110           0
     21529 MEMB     189      POPC     H11X     HAL2     0.900000E-01   1.00800           0
     21530 MEMB     189      POPC     H11Y     HAL2     0.900000E-01   1.00800           0
     21531 MEMB     189      POPC     C312     CTL2    -0.180000       12.0110           0
     21532 MEMB     189      POPC     H12X     HAL2     0.900000E-01   1.00800           0
     21533 MEMB     189      POPC     H12Y     HAL2     0.900000E-01   1.00800           0
     21534 MEMB     189      POPC     C313     CTL2    -0.180000       12.0110           0
     21535 MEMB     189      POPC     H13X     HAL2     0.900000E-01   1.00800           0
     21536 MEMB     189      POPC     H13Y     HAL2     0.900000E-01   1.00800           0
     21537 MEMB     189      POPC     C314     CTL2    -0.180000       12.0110           0
     21538 MEMB     189      POPC     H14X     HAL2     0.900000E-01   1.00800           0
     21539 MEMB     189      POPC     H14Y     HAL2     0.900000E-01   1.00800           0
     21540 MEMB     189      POPC     C315     CTL2    -0.180000       12.0110           0
     21541 MEMB     189      POPC     H15X     HAL2     0.900000E-01   1.00800           0
     21542 MEMB     189      POPC     H15Y     HAL2     0.900000E-01   1.00800           0
     21543 MEMB     189      POPC     C316     CTL3    -0.270000       12.0110           0
     21544 MEMB     189      POPC     H16X     HAL3     0.900000E-01   1.00800           0
     21545 MEMB     189      POPC     H16Y     HAL3     0.900000E-01   1.00800           0
     21546 MEMB     189      POPC     H16Z     HAL3     0.900000E-01   1.00800           0
     21547 MEMB     190      POPC     N        NTL     -0.600000       14.0070           0
     21548 MEMB     190      POPC     C12      CTL2    -0.100000       12.0110           0
     21549 MEMB     190      POPC     H12A     HL       0.250000       1.00800           0
     21550 MEMB     190      POPC     H12B     HL       0.250000       1.00800           0
     21551 MEMB     190      POPC     C13      CTL5    -0.350000       12.0110           0
     21552 MEMB     190      POPC     H13A     HL       0.250000       1.00800           0
     21553 MEMB     190      POPC     H13B     HL       0.250000       1.00800           0
     21554 MEMB     190      POPC     H13C     HL       0.250000       1.00800           0
     21555 MEMB     190      POPC     C14      CTL5    -0.350000       12.0110           0
     21556 MEMB     190      POPC     H14A     HL       0.250000       1.00800           0
     21557 MEMB     190      POPC     H14B     HL       0.250000       1.00800           0
     21558 MEMB     190      POPC     H14C     HL       0.250000       1.00800           0
     21559 MEMB     190      POPC     C15      CTL5    -0.350000       12.0110           0
     21560 MEMB     190      POPC     H15A     HL       0.250000       1.00800           0
     21561 MEMB     190      POPC     H15B     HL       0.250000       1.00800           0
     21562 MEMB     190      POPC     H15C     HL       0.250000       1.00800           0
     21563 MEMB     190      POPC     C11      CTL2    -0.800000E-01   12.0110           0
     21564 MEMB     190      POPC     H11A     HAL2     0.900000E-01   1.00800           0
     21565 MEMB     190      POPC     H11B     HAL2     0.900000E-01   1.00800           0
     21566 MEMB     190      POPC     P        PL        1.50000       30.9740           0
     21567 MEMB     190      POPC     O13      O2L     -0.780000       15.9994           0
     21568 MEMB     190      POPC     O14      O2L     -0.780000       15.9994           0
     21569 MEMB     190      POPC     O12      OSLP    -0.570000       15.9994           0
     21570 MEMB     190      POPC     O11      OSLP    -0.570000       15.9994           0
     21571 MEMB     190      POPC     C1       CTL2    -0.800000E-01   12.0110           0
     21572 MEMB     190      POPC     HA       HAL2     0.900000E-01   1.00800           0
     21573 MEMB     190      POPC     HB       HAL2     0.900000E-01   1.00800           0
     21574 MEMB     190      POPC     C2       CTL1     0.170000       12.0110           0
     21575 MEMB     190      POPC     HS       HAL1     0.900000E-01   1.00800           0
     21576 MEMB     190      POPC     O21      OSL     -0.490000       15.9994           0
     21577 MEMB     190      POPC     C21      CL       0.900000       12.0110           0
     21578 MEMB     190      POPC     O22      OBL     -0.630000       15.9994           0
     21579 MEMB     190      POPC     C22      CTL2    -0.220000       12.0110           0
     21580 MEMB     190      POPC     H2R      HAL2     0.900000E-01   1.00800           0
     21581 MEMB     190      POPC     H2S      HAL2     0.900000E-01   1.00800           0
     21582 MEMB     190      POPC     C3       CTL2     0.800000E-01   12.0110           0
     21583 MEMB     190      POPC     HX       HAL2     0.900000E-01   1.00800           0
     21584 MEMB     190      POPC     HY       HAL2     0.900000E-01   1.00800           0
     21585 MEMB     190      POPC     O31      OSL     -0.490000       15.9994           0
     21586 MEMB     190      POPC     C31      CL       0.900000       12.0110           0
     21587 MEMB     190      POPC     O32      OBL     -0.630000       15.9994           0
     21588 MEMB     190      POPC     C32      CTL2    -0.220000       12.0110           0
     21589 MEMB     190      POPC     H2X      HAL2     0.900000E-01   1.00800           0
     21590 MEMB     190      POPC     H2Y      HAL2     0.900000E-01   1.00800           0
     21591 MEMB     190      POPC     C23      CTL2    -0.180000       12.0110           0
     21592 MEMB     190      POPC     H3R      HAL2     0.900000E-01   1.00800           0
     21593 MEMB     190      POPC     H3S      HAL2     0.900000E-01   1.00800           0
     21594 MEMB     190      POPC     C24      CTL2    -0.180000       12.0110           0
     21595 MEMB     190      POPC     H4R      HAL2     0.900000E-01   1.00800           0
     21596 MEMB     190      POPC     H4S      HAL2     0.900000E-01   1.00800           0
     21597 MEMB     190      POPC     C25      CTL2    -0.180000       12.0110           0
     21598 MEMB     190      POPC     H5R      HAL2     0.900000E-01   1.00800           0
     21599 MEMB     190      POPC     H5S      HAL2     0.900000E-01   1.00800           0
     21600 MEMB     190      POPC     C26      CTL2    -0.180000       12.0110           0
     21601 MEMB     190      POPC     H6R      HAL2     0.900000E-01   1.00800           0
     21602 MEMB     190      POPC     H6S      HAL2     0.900000E-01   1.00800           0
     21603 MEMB     190      POPC     C27      CTL2    -0.180000       12.0110           0
     21604 MEMB     190      POPC     H7R      HAL2     0.900000E-01   1.00800           0
     21605 MEMB     190      POPC     H7S      HAL2     0.900000E-01   1.00800           0
     21606 MEMB     190      POPC     C28      CTL2    -0.180000       12.0110           0
     21607 MEMB     190      POPC     H8R      HAL2     0.900000E-01   1.00800           0
     21608 MEMB     190      POPC     H8S      HAL2     0.900000E-01   1.00800           0
     21609 MEMB     190      POPC     C29      CEL1    -0.150000       12.0110           0
     21610 MEMB     190      POPC     H91      HEL1     0.150000       1.00800           0
     21611 MEMB     190      POPC     C210     CEL1    -0.150000       12.0110           0
     21612 MEMB     190      POPC     H101     HEL1     0.150000       1.00800           0
     21613 MEMB     190      POPC     C211     CTL2    -0.180000       12.0110           0
     21614 MEMB     190      POPC     H11R     HAL2     0.900000E-01   1.00800           0
     21615 MEMB     190      POPC     H11S     HAL2     0.900000E-01   1.00800           0
     21616 MEMB     190      POPC     C212     CTL2    -0.180000       12.0110           0
     21617 MEMB     190      POPC     H12R     HAL2     0.900000E-01   1.00800           0
     21618 MEMB     190      POPC     H12S     HAL2     0.900000E-01   1.00800           0
     21619 MEMB     190      POPC     C213     CTL2    -0.180000       12.0110           0
     21620 MEMB     190      POPC     H13R     HAL2     0.900000E-01   1.00800           0
     21621 MEMB     190      POPC     H13S     HAL2     0.900000E-01   1.00800           0
     21622 MEMB     190      POPC     C214     CTL2    -0.180000       12.0110           0
     21623 MEMB     190      POPC     H14R     HAL2     0.900000E-01   1.00800           0
     21624 MEMB     190      POPC     H14S     HAL2     0.900000E-01   1.00800           0
     21625 MEMB     190      POPC     C215     CTL2    -0.180000       12.0110           0
     21626 MEMB     190      POPC     H15R     HAL2     0.900000E-01   1.00800           0
     21627 MEMB     190      POPC     H15S     HAL2     0.900000E-01   1.00800           0
     21628 MEMB     190      POPC     C216     CTL2    -0.180000       12.0110           0
     21629 MEMB     190      POPC     H16R     HAL2     0.900000E-01   1.00800           0
     21630 MEMB     190      POPC     H16S     HAL2     0.900000E-01   1.00800           0
     21631 MEMB     190      POPC     C217     CTL2    -0.180000       12.0110           0
     21632 MEMB     190      POPC     H17R     HAL2     0.900000E-01   1.00800           0
     21633 MEMB     190      POPC     H17S     HAL2     0.900000E-01   1.00800           0
     21634 MEMB     190      POPC     C218     CTL3    -0.270000       12.0110           0
     21635 MEMB     190      POPC     H18R     HAL3     0.900000E-01   1.00800           0
     21636 MEMB     190      POPC     H18S     HAL3     0.900000E-01   1.00800           0
     21637 MEMB     190      POPC     H18T     HAL3     0.900000E-01   1.00800           0
     21638 MEMB     190      POPC     C33      CTL2    -0.180000       12.0110           0
     21639 MEMB     190      POPC     H3X      HAL2     0.900000E-01   1.00800           0
     21640 MEMB     190      POPC     H3Y      HAL2     0.900000E-01   1.00800           0
     21641 MEMB     190      POPC     C34      CTL2    -0.180000       12.0110           0
     21642 MEMB     190      POPC     H4X      HAL2     0.900000E-01   1.00800           0
     21643 MEMB     190      POPC     H4Y      HAL2     0.900000E-01   1.00800           0
     21644 MEMB     190      POPC     C35      CTL2    -0.180000       12.0110           0
     21645 MEMB     190      POPC     H5X      HAL2     0.900000E-01   1.00800           0
     21646 MEMB     190      POPC     H5Y      HAL2     0.900000E-01   1.00800           0
     21647 MEMB     190      POPC     C36      CTL2    -0.180000       12.0110           0
     21648 MEMB     190      POPC     H6X      HAL2     0.900000E-01   1.00800           0
     21649 MEMB     190      POPC     H6Y      HAL2     0.900000E-01   1.00800           0
     21650 MEMB     190      POPC     C37      CTL2    -0.180000       12.0110           0
     21651 MEMB     190      POPC     H7X      HAL2     0.900000E-01   1.00800           0
     21652 MEMB     190      POPC     H7Y      HAL2     0.900000E-01   1.00800           0
     21653 MEMB     190      POPC     C38      CTL2    -0.180000       12.0110           0
     21654 MEMB     190      POPC     H8X      HAL2     0.900000E-01   1.00800           0
     21655 MEMB     190      POPC     H8Y      HAL2     0.900000E-01   1.00800           0
     21656 MEMB     190      POPC     C39      CTL2    -0.180000       12.0110           0
     21657 MEMB     190      POPC     H9X      HAL2     0.900000E-01   1.00800           0
     21658 MEMB     190      POPC     H9Y      HAL2     0.900000E-01   1.00800           0
     21659 MEMB     190      POPC     C310     CTL2    -0.180000       12.0110           0
     21660 MEMB     190      POPC     H10X     HAL2     0.900000E-01   1.00800           0
     21661 MEMB     190      POPC     H10Y     HAL2     0.900000E-01   1.00800           0
     21662 MEMB     190      POPC     C311     CTL2    -0.180000       12.0110           0
     21663 MEMB     190      POPC     H11X     HAL2     0.900000E-01   1.00800           0
     21664 MEMB     190      POPC     H11Y     HAL2     0.900000E-01   1.00800           0
     21665 MEMB     190      POPC     C312     CTL2    -0.180000       12.0110           0
     21666 MEMB     190      POPC     H12X     HAL2     0.900000E-01   1.00800           0
     21667 MEMB     190      POPC     H12Y     HAL2     0.900000E-01   1.00800           0
     21668 MEMB     190      POPC     C313     CTL2    -0.180000       12.0110           0
     21669 MEMB     190      POPC     H13X     HAL2     0.900000E-01   1.00800           0
     21670 MEMB     190      POPC     H13Y     HAL2     0.900000E-01   1.00800           0
     21671 MEMB     190      POPC     C314     CTL2    -0.180000       12.0110           0
     21672 MEMB     190      POPC     H14X     HAL2     0.900000E-01   1.00800           0
     21673 MEMB     190      POPC     H14Y     HAL2     0.900000E-01   1.00800           0
     21674 MEMB     190      POPC     C315     CTL2    -0.180000       12.0110           0
     21675 MEMB     190      POPC     H15X     HAL2     0.900000E-01   1.00800           0
     21676 MEMB     190      POPC     H15Y     HAL2     0.900000E-01   1.00800           0
     21677 MEMB     190      POPC     C316     CTL3    -0.270000       12.0110           0
     21678 MEMB     190      POPC     H16X     HAL3     0.900000E-01   1.00800           0
     21679 MEMB     190      POPC     H16Y     HAL3     0.900000E-01   1.00800           0
     21680 MEMB     190      POPC     H16Z     HAL3     0.900000E-01   1.00800           0
     21681 MEMB     191      POPC     N        NTL     -0.600000       14.0070           0
     21682 MEMB     191      POPC     C12      CTL2    -0.100000       12.0110           0
     21683 MEMB     191      POPC     H12A     HL       0.250000       1.00800           0
     21684 MEMB     191      POPC     H12B     HL       0.250000       1.00800           0
     21685 MEMB     191      POPC     C13      CTL5    -0.350000       12.0110           0
     21686 MEMB     191      POPC     H13A     HL       0.250000       1.00800           0
     21687 MEMB     191      POPC     H13B     HL       0.250000       1.00800           0
     21688 MEMB     191      POPC     H13C     HL       0.250000       1.00800           0
     21689 MEMB     191      POPC     C14      CTL5    -0.350000       12.0110           0
     21690 MEMB     191      POPC     H14A     HL       0.250000       1.00800           0
     21691 MEMB     191      POPC     H14B     HL       0.250000       1.00800           0
     21692 MEMB     191      POPC     H14C     HL       0.250000       1.00800           0
     21693 MEMB     191      POPC     C15      CTL5    -0.350000       12.0110           0
     21694 MEMB     191      POPC     H15A     HL       0.250000       1.00800           0
     21695 MEMB     191      POPC     H15B     HL       0.250000       1.00800           0
     21696 MEMB     191      POPC     H15C     HL       0.250000       1.00800           0
     21697 MEMB     191      POPC     C11      CTL2    -0.800000E-01   12.0110           0
     21698 MEMB     191      POPC     H11A     HAL2     0.900000E-01   1.00800           0
     21699 MEMB     191      POPC     H11B     HAL2     0.900000E-01   1.00800           0
     21700 MEMB     191      POPC     P        PL        1.50000       30.9740           0
     21701 MEMB     191      POPC     O13      O2L     -0.780000       15.9994           0
     21702 MEMB     191      POPC     O14      O2L     -0.780000       15.9994           0
     21703 MEMB     191      POPC     O12      OSLP    -0.570000       15.9994           0
     21704 MEMB     191      POPC     O11      OSLP    -0.570000       15.9994           0
     21705 MEMB     191      POPC     C1       CTL2    -0.800000E-01   12.0110           0
     21706 MEMB     191      POPC     HA       HAL2     0.900000E-01   1.00800           0
     21707 MEMB     191      POPC     HB       HAL2     0.900000E-01   1.00800           0
     21708 MEMB     191      POPC     C2       CTL1     0.170000       12.0110           0
     21709 MEMB     191      POPC     HS       HAL1     0.900000E-01   1.00800           0
     21710 MEMB     191      POPC     O21      OSL     -0.490000       15.9994           0
     21711 MEMB     191      POPC     C21      CL       0.900000       12.0110           0
     21712 MEMB     191      POPC     O22      OBL     -0.630000       15.9994           0
     21713 MEMB     191      POPC     C22      CTL2    -0.220000       12.0110           0
     21714 MEMB     191      POPC     H2R      HAL2     0.900000E-01   1.00800           0
     21715 MEMB     191      POPC     H2S      HAL2     0.900000E-01   1.00800           0
     21716 MEMB     191      POPC     C3       CTL2     0.800000E-01   12.0110           0
     21717 MEMB     191      POPC     HX       HAL2     0.900000E-01   1.00800           0
     21718 MEMB     191      POPC     HY       HAL2     0.900000E-01   1.00800           0
     21719 MEMB     191      POPC     O31      OSL     -0.490000       15.9994           0
     21720 MEMB     191      POPC     C31      CL       0.900000       12.0110           0
     21721 MEMB     191      POPC     O32      OBL     -0.630000       15.9994           0
     21722 MEMB     191      POPC     C32      CTL2    -0.220000       12.0110           0
     21723 MEMB     191      POPC     H2X      HAL2     0.900000E-01   1.00800           0
     21724 MEMB     191      POPC     H2Y      HAL2     0.900000E-01   1.00800           0
     21725 MEMB     191      POPC     C23      CTL2    -0.180000       12.0110           0
     21726 MEMB     191      POPC     H3R      HAL2     0.900000E-01   1.00800           0
     21727 MEMB     191      POPC     H3S      HAL2     0.900000E-01   1.00800           0
     21728 MEMB     191      POPC     C24      CTL2    -0.180000       12.0110           0
     21729 MEMB     191      POPC     H4R      HAL2     0.900000E-01   1.00800           0
     21730 MEMB     191      POPC     H4S      HAL2     0.900000E-01   1.00800           0
     21731 MEMB     191      POPC     C25      CTL2    -0.180000       12.0110           0
     21732 MEMB     191      POPC     H5R      HAL2     0.900000E-01   1.00800           0
     21733 MEMB     191      POPC     H5S      HAL2     0.900000E-01   1.00800           0
     21734 MEMB     191      POPC     C26      CTL2    -0.180000       12.0110           0
     21735 MEMB     191      POPC     H6R      HAL2     0.900000E-01   1.00800           0
     21736 MEMB     191      POPC     H6S      HAL2     0.900000E-01   1.00800           0
     21737 MEMB     191      POPC     C27      CTL2    -0.180000       12.0110           0
     21738 MEMB     191      POPC     H7R      HAL2     0.900000E-01   1.00800           0
     21739 MEMB     191      POPC     H7S      HAL2     0.900000E-01   1.00800           0
     21740 MEMB     191      POPC     C28      CTL2    -0.180000       12.0110           0
     21741 MEMB     191      POPC     H8R      HAL2     0.900000E-01   1.00800           0
     21742 MEMB     191      POPC     H8S      HAL2     0.900000E-01   1.00800           0
     21743 MEMB     191      POPC     C29      CEL1    -0.150000       12.0110           0
     21744 MEMB     191      POPC     H91      HEL1     0.150000       1.00800           0
     21745 MEMB     191      POPC     C210     CEL1    -0.150000       12.0110           0
     21746 MEMB     191      POPC     H101     HEL1     0.150000       1.00800           0
     21747 MEMB     191      POPC     C211     CTL2    -0.180000       12.0110           0
     21748 MEMB     191      POPC     H11R     HAL2     0.900000E-01   1.00800           0
     21749 MEMB     191      POPC     H11S     HAL2     0.900000E-01   1.00800           0
     21750 MEMB     191      POPC     C212     CTL2    -0.180000       12.0110           0
     21751 MEMB     191      POPC     H12R     HAL2     0.900000E-01   1.00800           0
     21752 MEMB     191      POPC     H12S     HAL2     0.900000E-01   1.00800           0
     21753 MEMB     191      POPC     C213     CTL2    -0.180000       12.0110           0
     21754 MEMB     191      POPC     H13R     HAL2     0.900000E-01   1.00800           0
     21755 MEMB     191      POPC     H13S     HAL2     0.900000E-01   1.00800           0
     21756 MEMB     191      POPC     C214     CTL2    -0.180000       12.0110           0
     21757 MEMB     191      POPC     H14R     HAL2     0.900000E-01   1.00800           0
     21758 MEMB     191      POPC     H14S     HAL2     0.900000E-01   1.00800           0
     21759 MEMB     191      POPC     C215     CTL2    -0.180000       12.0110           0
     21760 MEMB     191      POPC     H15R     HAL2     0.900000E-01   1.00800           0
     21761 MEMB     191      POPC     H15S     HAL2     0.900000E-01   1.00800           0
     21762 MEMB     191      POPC     C216     CTL2    -0.180000       12.0110           0
     21763 MEMB     191      POPC     H16R     HAL2     0.900000E-01   1.00800           0
     21764 MEMB     191      POPC     H16S     HAL2     0.900000E-01   1.00800           0
     21765 MEMB     191      POPC     C217     CTL2    -0.180000       12.0110           0
     21766 MEMB     191      POPC     H17R     HAL2     0.900000E-01   1.00800           0
     21767 MEMB     191      POPC     H17S     HAL2     0.900000E-01   1.00800           0
     21768 MEMB     191      POPC     C218     CTL3    -0.270000       12.0110           0
     21769 MEMB     191      POPC     H18R     HAL3     0.900000E-01   1.00800           0
     21770 MEMB     191      POPC     H18S     HAL3     0.900000E-01   1.00800           0
     21771 MEMB     191      POPC     H18T     HAL3     0.900000E-01   1.00800           0
     21772 MEMB     191      POPC     C33      CTL2    -0.180000       12.0110           0
     21773 MEMB     191      POPC     H3X      HAL2     0.900000E-01   1.00800           0
     21774 MEMB     191      POPC     H3Y      HAL2     0.900000E-01   1.00800           0
     21775 MEMB     191      POPC     C34      CTL2    -0.180000       12.0110           0
     21776 MEMB     191      POPC     H4X      HAL2     0.900000E-01   1.00800           0
     21777 MEMB     191      POPC     H4Y      HAL2     0.900000E-01   1.00800           0
     21778 MEMB     191      POPC     C35      CTL2    -0.180000       12.0110           0
     21779 MEMB     191      POPC     H5X      HAL2     0.900000E-01   1.00800           0
     21780 MEMB     191      POPC     H5Y      HAL2     0.900000E-01   1.00800           0
     21781 MEMB     191      POPC     C36      CTL2    -0.180000       12.0110           0
     21782 MEMB     191      POPC     H6X      HAL2     0.900000E-01   1.00800           0
     21783 MEMB     191      POPC     H6Y      HAL2     0.900000E-01   1.00800           0
     21784 MEMB     191      POPC     C37      CTL2    -0.180000       12.0110           0
     21785 MEMB     191      POPC     H7X      HAL2     0.900000E-01   1.00800           0
     21786 MEMB     191      POPC     H7Y      HAL2     0.900000E-01   1.00800           0
     21787 MEMB     191      POPC     C38      CTL2    -0.180000       12.0110           0
     21788 MEMB     191      POPC     H8X      HAL2     0.900000E-01   1.00800           0
     21789 MEMB     191      POPC     H8Y      HAL2     0.900000E-01   1.00800           0
     21790 MEMB     191      POPC     C39      CTL2    -0.180000       12.0110           0
     21791 MEMB     191      POPC     H9X      HAL2     0.900000E-01   1.00800           0
     21792 MEMB     191      POPC     H9Y      HAL2     0.900000E-01   1.00800           0
     21793 MEMB     191      POPC     C310     CTL2    -0.180000       12.0110           0
     21794 MEMB     191      POPC     H10X     HAL2     0.900000E-01   1.00800           0
     21795 MEMB     191      POPC     H10Y     HAL2     0.900000E-01   1.00800           0
     21796 MEMB     191      POPC     C311     CTL2    -0.180000       12.0110           0
     21797 MEMB     191      POPC     H11X     HAL2     0.900000E-01   1.00800           0
     21798 MEMB     191      POPC     H11Y     HAL2     0.900000E-01   1.00800           0
     21799 MEMB     191      POPC     C312     CTL2    -0.180000       12.0110           0
     21800 MEMB     191      POPC     H12X     HAL2     0.900000E-01   1.00800           0
     21801 MEMB     191      POPC     H12Y     HAL2     0.900000E-01   1.00800           0
     21802 MEMB     191      POPC     C313     CTL2    -0.180000       12.0110           0
     21803 MEMB     191      POPC     H13X     HAL2     0.900000E-01   1.00800           0
     21804 MEMB     191      POPC     H13Y     HAL2     0.900000E-01   1.00800           0
     21805 MEMB     191      POPC     C314     CTL2    -0.180000       12.0110           0
     21806 MEMB     191      POPC     H14X     HAL2     0.900000E-01   1.00800           0
     21807 MEMB     191      POPC     H14Y     HAL2     0.900000E-01   1.00800           0
     21808 MEMB     191      POPC     C315     CTL2    -0.180000       12.0110           0
     21809 MEMB     191      POPC     H15X     HAL2     0.900000E-01   1.00800           0
     21810 MEMB     191      POPC     H15Y     HAL2     0.900000E-01   1.00800           0
     21811 MEMB     191      POPC     C316     CTL3    -0.270000       12.0110           0
     21812 MEMB     191      POPC     H16X     HAL3     0.900000E-01   1.00800           0
     21813 MEMB     191      POPC     H16Y     HAL3     0.900000E-01   1.00800           0
     21814 MEMB     191      POPC     H16Z     HAL3     0.900000E-01   1.00800           0
     21815 MEMB     192      POPC     N        NTL     -0.600000       14.0070           0
     21816 MEMB     192      POPC     C12      CTL2    -0.100000       12.0110           0
     21817 MEMB     192      POPC     H12A     HL       0.250000       1.00800           0
     21818 MEMB     192      POPC     H12B     HL       0.250000       1.00800           0
     21819 MEMB     192      POPC     C13      CTL5    -0.350000       12.0110           0
     21820 MEMB     192      POPC     H13A     HL       0.250000       1.00800           0
     21821 MEMB     192      POPC     H13B     HL       0.250000       1.00800           0
     21822 MEMB     192      POPC     H13C     HL       0.250000       1.00800           0
     21823 MEMB     192      POPC     C14      CTL5    -0.350000       12.0110           0
     21824 MEMB     192      POPC     H14A     HL       0.250000       1.00800           0
     21825 MEMB     192      POPC     H14B     HL       0.250000       1.00800           0
     21826 MEMB     192      POPC     H14C     HL       0.250000       1.00800           0
     21827 MEMB     192      POPC     C15      CTL5    -0.350000       12.0110           0
     21828 MEMB     192      POPC     H15A     HL       0.250000       1.00800           0
     21829 MEMB     192      POPC     H15B     HL       0.250000       1.00800           0
     21830 MEMB     192      POPC     H15C     HL       0.250000       1.00800           0
     21831 MEMB     192      POPC     C11      CTL2    -0.800000E-01   12.0110           0
     21832 MEMB     192      POPC     H11A     HAL2     0.900000E-01   1.00800           0
     21833 MEMB     192      POPC     H11B     HAL2     0.900000E-01   1.00800           0
     21834 MEMB     192      POPC     P        PL        1.50000       30.9740           0
     21835 MEMB     192      POPC     O13      O2L     -0.780000       15.9994           0
     21836 MEMB     192      POPC     O14      O2L     -0.780000       15.9994           0
     21837 MEMB     192      POPC     O12      OSLP    -0.570000       15.9994           0
     21838 MEMB     192      POPC     O11      OSLP    -0.570000       15.9994           0
     21839 MEMB     192      POPC     C1       CTL2    -0.800000E-01   12.0110           0
     21840 MEMB     192      POPC     HA       HAL2     0.900000E-01   1.00800           0
     21841 MEMB     192      POPC     HB       HAL2     0.900000E-01   1.00800           0
     21842 MEMB     192      POPC     C2       CTL1     0.170000       12.0110           0
     21843 MEMB     192      POPC     HS       HAL1     0.900000E-01   1.00800           0
     21844 MEMB     192      POPC     O21      OSL     -0.490000       15.9994           0
     21845 MEMB     192      POPC     C21      CL       0.900000       12.0110           0
     21846 MEMB     192      POPC     O22      OBL     -0.630000       15.9994           0
     21847 MEMB     192      POPC     C22      CTL2    -0.220000       12.0110           0
     21848 MEMB     192      POPC     H2R      HAL2     0.900000E-01   1.00800           0
     21849 MEMB     192      POPC     H2S      HAL2     0.900000E-01   1.00800           0
     21850 MEMB     192      POPC     C3       CTL2     0.800000E-01   12.0110           0
     21851 MEMB     192      POPC     HX       HAL2     0.900000E-01   1.00800           0
     21852 MEMB     192      POPC     HY       HAL2     0.900000E-01   1.00800           0
     21853 MEMB     192      POPC     O31      OSL     -0.490000       15.9994           0
     21854 MEMB     192      POPC     C31      CL       0.900000       12.0110           0
     21855 MEMB     192      POPC     O32      OBL     -0.630000       15.9994           0
     21856 MEMB     192      POPC     C32      CTL2    -0.220000       12.0110           0
     21857 MEMB     192      POPC     H2X      HAL2     0.900000E-01   1.00800           0
     21858 MEMB     192      POPC     H2Y      HAL2     0.900000E-01   1.00800           0
     21859 MEMB     192      POPC     C23      CTL2    -0.180000       12.0110           0
     21860 MEMB     192      POPC     H3R      HAL2     0.900000E-01   1.00800           0
     21861 MEMB     192      POPC     H3S      HAL2     0.900000E-01   1.00800           0
     21862 MEMB     192      POPC     C24      CTL2    -0.180000       12.0110           0
     21863 MEMB     192      POPC     H4R      HAL2     0.900000E-01   1.00800           0
     21864 MEMB     192      POPC     H4S      HAL2     0.900000E-01   1.00800           0
     21865 MEMB     192      POPC     C25      CTL2    -0.180000       12.0110           0
     21866 MEMB     192      POPC     H5R      HAL2     0.900000E-01   1.00800           0
     21867 MEMB     192      POPC     H5S      HAL2     0.900000E-01   1.00800           0
     21868 MEMB     192      POPC     C26      CTL2    -0.180000       12.0110           0
     21869 MEMB     192      POPC     H6R      HAL2     0.900000E-01   1.00800           0
     21870 MEMB     192      POPC     H6S      HAL2     0.900000E-01   1.00800           0
     21871 MEMB     192      POPC     C27      CTL2    -0.180000       12.0110           0
     21872 MEMB     192      POPC     H7R      HAL2     0.900000E-01   1.00800           0
     21873 MEMB     192      POPC     H7S      HAL2     0.900000E-01   1.00800           0
     21874 MEMB     192      POPC     C28      CTL2    -0.180000       12.0110           0
     21875 MEMB     192      POPC     H8R      HAL2     0.900000E-01   1.00800           0
     21876 MEMB     192      POPC     H8S      HAL2     0.900000E-01   1.00800           0
     21877 MEMB     192      POPC     C29      CEL1    -0.150000       12.0110           0
     21878 MEMB     192      POPC     H91      HEL1     0.150000       1.00800           0
     21879 MEMB     192      POPC     C210     CEL1    -0.150000       12.0110           0
     21880 MEMB     192      POPC     H101     HEL1     0.150000       1.00800           0
     21881 MEMB     192      POPC     C211     CTL2    -0.180000       12.0110           0
     21882 MEMB     192      POPC     H11R     HAL2     0.900000E-01   1.00800           0
     21883 MEMB     192      POPC     H11S     HAL2     0.900000E-01   1.00800           0
     21884 MEMB     192      POPC     C212     CTL2    -0.180000       12.0110           0
     21885 MEMB     192      POPC     H12R     HAL2     0.900000E-01   1.00800           0
     21886 MEMB     192      POPC     H12S     HAL2     0.900000E-01   1.00800           0
     21887 MEMB     192      POPC     C213     CTL2    -0.180000       12.0110           0
     21888 MEMB     192      POPC     H13R     HAL2     0.900000E-01   1.00800           0
     21889 MEMB     192      POPC     H13S     HAL2     0.900000E-01   1.00800           0
     21890 MEMB     192      POPC     C214     CTL2    -0.180000       12.0110           0
     21891 MEMB     192      POPC     H14R     HAL2     0.900000E-01   1.00800           0
     21892 MEMB     192      POPC     H14S     HAL2     0.900000E-01   1.00800           0
     21893 MEMB     192      POPC     C215     CTL2    -0.180000       12.0110           0
     21894 MEMB     192      POPC     H15R     HAL2     0.900000E-01   1.00800           0
     21895 MEMB     192      POPC     H15S     HAL2     0.900000E-01   1.00800           0
     21896 MEMB     192      POPC     C216     CTL2    -0.180000       12.0110           0
     21897 MEMB     192      POPC     H16R     HAL2     0.900000E-01   1.00800           0
     21898 MEMB     192      POPC     H16S     HAL2     0.900000E-01   1.00800           0
     21899 MEMB     192      POPC     C217     CTL2    -0.180000       12.0110           0
     21900 MEMB     192      POPC     H17R     HAL2     0.900000E-01   1.00800           0
     21901 MEMB     192      POPC     H17S     HAL2     0.900000E-01   1.00800           0
     21902 MEMB     192      POPC     C218     CTL3    -0.270000       12.0110           0
     21903 MEMB     192      POPC     H18R     HAL3     0.900000E-01   1.00800           0
     21904 MEMB     192      POPC     H18S     HAL3     0.900000E-01   1.00800           0
     21905 MEMB     192      POPC     H18T     HAL3     0.900000E-01   1.00800           0
     21906 MEMB     192      POPC     C33      CTL2    -0.180000       12.0110           0
     21907 MEMB     192      POPC     H3X      HAL2     0.900000E-01   1.00800           0
     21908 MEMB     192      POPC     H3Y      HAL2     0.900000E-01   1.00800           0
     21909 MEMB     192      POPC     C34      CTL2    -0.180000       12.0110           0
     21910 MEMB     192      POPC     H4X      HAL2     0.900000E-01   1.00800           0
     21911 MEMB     192      POPC     H4Y      HAL2     0.900000E-01   1.00800           0
     21912 MEMB     192      POPC     C35      CTL2    -0.180000       12.0110           0
     21913 MEMB     192      POPC     H5X      HAL2     0.900000E-01   1.00800           0
     21914 MEMB     192      POPC     H5Y      HAL2     0.900000E-01   1.00800           0
     21915 MEMB     192      POPC     C36      CTL2    -0.180000       12.0110           0
     21916 MEMB     192      POPC     H6X      HAL2     0.900000E-01   1.00800           0
     21917 MEMB     192      POPC     H6Y      HAL2     0.900000E-01   1.00800           0
     21918 MEMB     192      POPC     C37      CTL2    -0.180000       12.0110           0
     21919 MEMB     192      POPC     H7X      HAL2     0.900000E-01   1.00800           0
     21920 MEMB     192      POPC     H7Y      HAL2     0.900000E-01   1.00800           0
     21921 MEMB     192      POPC     C38      CTL2    -0.180000       12.0110           0
     21922 MEMB     192      POPC     H8X      HAL2     0.900000E-01   1.00800           0
     21923 MEMB     192      POPC     H8Y      HAL2     0.900000E-01   1.00800           0
     21924 MEMB     192      POPC     C39      CTL2    -0.180000       12.0110           0
     21925 MEMB     192      POPC     H9X      HAL2     0.900000E-01   1.00800           0
     21926 MEMB     192      POPC     H9Y      HAL2     0.900000E-01   1.00800           0
     21927 MEMB     192      POPC     C310     CTL2    -0.180000       12.0110           0
     21928 MEMB     192      POPC     H10X     HAL2     0.900000E-01   1.00800           0
     21929 MEMB     192      POPC     H10Y     HAL2     0.900000E-01   1.00800           0
     21930 MEMB     192      POPC     C311     CTL2    -0.180000       12.0110           0
     21931 MEMB     192      POPC     H11X     HAL2     0.900000E-01   1.00800           0
     21932 MEMB     192      POPC     H11Y     HAL2     0.900000E-01   1.00800           0
     21933 MEMB     192      POPC     C312     CTL2    -0.180000       12.0110           0
     21934 MEMB     192      POPC     H12X     HAL2     0.900000E-01   1.00800           0
     21935 MEMB     192      POPC     H12Y     HAL2     0.900000E-01   1.00800           0
     21936 MEMB     192      POPC     C313     CTL2    -0.180000       12.0110           0
     21937 MEMB     192      POPC     H13X     HAL2     0.900000E-01   1.00800           0
     21938 MEMB     192      POPC     H13Y     HAL2     0.900000E-01   1.00800           0
     21939 MEMB     192      POPC     C314     CTL2    -0.180000       12.0110           0
     21940 MEMB     192      POPC     H14X     HAL2     0.900000E-01   1.00800           0
     21941 MEMB     192      POPC     H14Y     HAL2     0.900000E-01   1.00800           0
     21942 MEMB     192      POPC     C315     CTL2    -0.180000       12.0110           0
     21943 MEMB     192      POPC     H15X     HAL2     0.900000E-01   1.00800           0
     21944 MEMB     192      POPC     H15Y     HAL2     0.900000E-01   1.00800           0
     21945 MEMB     192      POPC     C316     CTL3    -0.270000       12.0110           0
     21946 MEMB     192      POPC     H16X     HAL3     0.900000E-01   1.00800           0
     21947 MEMB     192      POPC     H16Y     HAL3     0.900000E-01   1.00800           0
     21948 MEMB     192      POPC     H16Z     HAL3     0.900000E-01   1.00800           0
     21949 MEMB     193      POPC     N        NTL     -0.600000       14.0070           0
     21950 MEMB     193      POPC     C12      CTL2    -0.100000       12.0110           0
     21951 MEMB     193      POPC     H12A     HL       0.250000       1.00800           0
     21952 MEMB     193      POPC     H12B     HL       0.250000       1.00800           0
     21953 MEMB     193      POPC     C13      CTL5    -0.350000       12.0110           0
     21954 MEMB     193      POPC     H13A     HL       0.250000       1.00800           0
     21955 MEMB     193      POPC     H13B     HL       0.250000       1.00800           0
     21956 MEMB     193      POPC     H13C     HL       0.250000       1.00800           0
     21957 MEMB     193      POPC     C14      CTL5    -0.350000       12.0110           0
     21958 MEMB     193      POPC     H14A     HL       0.250000       1.00800           0
     21959 MEMB     193      POPC     H14B     HL       0.250000       1.00800           0
     21960 MEMB     193      POPC     H14C     HL       0.250000       1.00800           0
     21961 MEMB     193      POPC     C15      CTL5    -0.350000       12.0110           0
     21962 MEMB     193      POPC     H15A     HL       0.250000       1.00800           0
     21963 MEMB     193      POPC     H15B     HL       0.250000       1.00800           0
     21964 MEMB     193      POPC     H15C     HL       0.250000       1.00800           0
     21965 MEMB     193      POPC     C11      CTL2    -0.800000E-01   12.0110           0
     21966 MEMB     193      POPC     H11A     HAL2     0.900000E-01   1.00800           0
     21967 MEMB     193      POPC     H11B     HAL2     0.900000E-01   1.00800           0
     21968 MEMB     193      POPC     P        PL        1.50000       30.9740           0
     21969 MEMB     193      POPC     O13      O2L     -0.780000       15.9994           0
     21970 MEMB     193      POPC     O14      O2L     -0.780000       15.9994           0
     21971 MEMB     193      POPC     O12      OSLP    -0.570000       15.9994           0
     21972 MEMB     193      POPC     O11      OSLP    -0.570000       15.9994           0
     21973 MEMB     193      POPC     C1       CTL2    -0.800000E-01   12.0110           0
     21974 MEMB     193      POPC     HA       HAL2     0.900000E-01   1.00800           0
     21975 MEMB     193      POPC     HB       HAL2     0.900000E-01   1.00800           0
     21976 MEMB     193      POPC     C2       CTL1     0.170000       12.0110           0
     21977 MEMB     193      POPC     HS       HAL1     0.900000E-01   1.00800           0
     21978 MEMB     193      POPC     O21      OSL     -0.490000       15.9994           0
     21979 MEMB     193      POPC     C21      CL       0.900000       12.0110           0
     21980 MEMB     193      POPC     O22      OBL     -0.630000       15.9994           0
     21981 MEMB     193      POPC     C22      CTL2    -0.220000       12.0110           0
     21982 MEMB     193      POPC     H2R      HAL2     0.900000E-01   1.00800           0
     21983 MEMB     193      POPC     H2S      HAL2     0.900000E-01   1.00800           0
     21984 MEMB     193      POPC     C3       CTL2     0.800000E-01   12.0110           0
     21985 MEMB     193      POPC     HX       HAL2     0.900000E-01   1.00800           0
     21986 MEMB     193      POPC     HY       HAL2     0.900000E-01   1.00800           0
     21987 MEMB     193      POPC     O31      OSL     -0.490000       15.9994           0
     21988 MEMB     193      POPC     C31      CL       0.900000       12.0110           0
     21989 MEMB     193      POPC     O32      OBL     -0.630000       15.9994           0
     21990 MEMB     193      POPC     C32      CTL2    -0.220000       12.0110           0
     21991 MEMB     193      POPC     H2X      HAL2     0.900000E-01   1.00800           0
     21992 MEMB     193      POPC     H2Y      HAL2     0.900000E-01   1.00800           0
     21993 MEMB     193      POPC     C23      CTL2    -0.180000       12.0110           0
     21994 MEMB     193      POPC     H3R      HAL2     0.900000E-01   1.00800           0
     21995 MEMB     193      POPC     H3S      HAL2     0.900000E-01   1.00800           0
     21996 MEMB     193      POPC     C24      CTL2    -0.180000       12.0110           0
     21997 MEMB     193      POPC     H4R      HAL2     0.900000E-01   1.00800           0
     21998 MEMB     193      POPC     H4S      HAL2     0.900000E-01   1.00800           0
     21999 MEMB     193      POPC     C25      CTL2    -0.180000       12.0110           0
     22000 MEMB     193      POPC     H5R      HAL2     0.900000E-01   1.00800           0
     22001 MEMB     193      POPC     H5S      HAL2     0.900000E-01   1.00800           0
     22002 MEMB     193      POPC     C26      CTL2    -0.180000       12.0110           0
     22003 MEMB     193      POPC     H6R      HAL2     0.900000E-01   1.00800           0
     22004 MEMB     193      POPC     H6S      HAL2     0.900000E-01   1.00800           0
     22005 MEMB     193      POPC     C27      CTL2    -0.180000       12.0110           0
     22006 MEMB     193      POPC     H7R      HAL2     0.900000E-01   1.00800           0
     22007 MEMB     193      POPC     H7S      HAL2     0.900000E-01   1.00800           0
     22008 MEMB     193      POPC     C28      CTL2    -0.180000       12.0110           0
     22009 MEMB     193      POPC     H8R      HAL2     0.900000E-01   1.00800           0
     22010 MEMB     193      POPC     H8S      HAL2     0.900000E-01   1.00800           0
     22011 MEMB     193      POPC     C29      CEL1    -0.150000       12.0110           0
     22012 MEMB     193      POPC     H91      HEL1     0.150000       1.00800           0
     22013 MEMB     193      POPC     C210     CEL1    -0.150000       12.0110           0
     22014 MEMB     193      POPC     H101     HEL1     0.150000       1.00800           0
     22015 MEMB     193      POPC     C211     CTL2    -0.180000       12.0110           0
     22016 MEMB     193      POPC     H11R     HAL2     0.900000E-01   1.00800           0
     22017 MEMB     193      POPC     H11S     HAL2     0.900000E-01   1.00800           0
     22018 MEMB     193      POPC     C212     CTL2    -0.180000       12.0110           0
     22019 MEMB     193      POPC     H12R     HAL2     0.900000E-01   1.00800           0
     22020 MEMB     193      POPC     H12S     HAL2     0.900000E-01   1.00800           0
     22021 MEMB     193      POPC     C213     CTL2    -0.180000       12.0110           0
     22022 MEMB     193      POPC     H13R     HAL2     0.900000E-01   1.00800           0
     22023 MEMB     193      POPC     H13S     HAL2     0.900000E-01   1.00800           0
     22024 MEMB     193      POPC     C214     CTL2    -0.180000       12.0110           0
     22025 MEMB     193      POPC     H14R     HAL2     0.900000E-01   1.00800           0
     22026 MEMB     193      POPC     H14S     HAL2     0.900000E-01   1.00800           0
     22027 MEMB     193      POPC     C215     CTL2    -0.180000       12.0110           0
     22028 MEMB     193      POPC     H15R     HAL2     0.900000E-01   1.00800           0
     22029 MEMB     193      POPC     H15S     HAL2     0.900000E-01   1.00800           0
     22030 MEMB     193      POPC     C216     CTL2    -0.180000       12.0110           0
     22031 MEMB     193      POPC     H16R     HAL2     0.900000E-01   1.00800           0
     22032 MEMB     193      POPC     H16S     HAL2     0.900000E-01   1.00800           0
     22033 MEMB     193      POPC     C217     CTL2    -0.180000       12.0110           0
     22034 MEMB     193      POPC     H17R     HAL2     0.900000E-01   1.00800           0
     22035 MEMB     193      POPC     H17S     HAL2     0.900000E-01   1.00800           0
     22036 MEMB     193      POPC     C218     CTL3    -0.270000       12.0110           0
     22037 MEMB     193      POPC     H18R     HAL3     0.900000E-01   1.00800           0
     22038 MEMB     193      POPC     H18S     HAL3     0.900000E-01   1.00800           0
     22039 MEMB     193      POPC     H18T     HAL3     0.900000E-01   1.00800           0
     22040 MEMB     193      POPC     C33      CTL2    -0.180000       12.0110           0
     22041 MEMB     193      POPC     H3X      HAL2     0.900000E-01   1.00800           0
     22042 MEMB     193      POPC     H3Y      HAL2     0.900000E-01   1.00800           0
     22043 MEMB     193      POPC     C34      CTL2    -0.180000       12.0110           0
     22044 MEMB     193      POPC     H4X      HAL2     0.900000E-01   1.00800           0
     22045 MEMB     193      POPC     H4Y      HAL2     0.900000E-01   1.00800           0
     22046 MEMB     193      POPC     C35      CTL2    -0.180000       12.0110           0
     22047 MEMB     193      POPC     H5X      HAL2     0.900000E-01   1.00800           0
     22048 MEMB     193      POPC     H5Y      HAL2     0.900000E-01   1.00800           0
     22049 MEMB     193      POPC     C36      CTL2    -0.180000       12.0110           0
     22050 MEMB     193      POPC     H6X      HAL2     0.900000E-01   1.00800           0
     22051 MEMB     193      POPC     H6Y      HAL2     0.900000E-01   1.00800           0
     22052 MEMB     193      POPC     C37      CTL2    -0.180000       12.0110           0
     22053 MEMB     193      POPC     H7X      HAL2     0.900000E-01   1.00800           0
     22054 MEMB     193      POPC     H7Y      HAL2     0.900000E-01   1.00800           0
     22055 MEMB     193      POPC     C38      CTL2    -0.180000       12.0110           0
     22056 MEMB     193      POPC     H8X      HAL2     0.900000E-01   1.00800           0
     22057 MEMB     193      POPC     H8Y      HAL2     0.900000E-01   1.00800           0
     22058 MEMB     193      POPC     C39      CTL2    -0.180000       12.0110           0
     22059 MEMB     193      POPC     H9X      HAL2     0.900000E-01   1.00800           0
     22060 MEMB     193      POPC     H9Y      HAL2     0.900000E-01   1.00800           0
     22061 MEMB     193      POPC     C310     CTL2    -0.180000       12.0110           0
     22062 MEMB     193      POPC     H10X     HAL2     0.900000E-01   1.00800           0
     22063 MEMB     193      POPC     H10Y     HAL2     0.900000E-01   1.00800           0
     22064 MEMB     193      POPC     C311     CTL2    -0.180000       12.0110           0
     22065 MEMB     193      POPC     H11X     HAL2     0.900000E-01   1.00800           0
     22066 MEMB     193      POPC     H11Y     HAL2     0.900000E-01   1.00800           0
     22067 MEMB     193      POPC     C312     CTL2    -0.180000       12.0110           0
     22068 MEMB     193      POPC     H12X     HAL2     0.900000E-01   1.00800           0
     22069 MEMB     193      POPC     H12Y     HAL2     0.900000E-01   1.00800           0
     22070 MEMB     193      POPC     C313     CTL2    -0.180000       12.0110           0
     22071 MEMB     193      POPC     H13X     HAL2     0.900000E-01   1.00800           0
     22072 MEMB     193      POPC     H13Y     HAL2     0.900000E-01   1.00800           0
     22073 MEMB     193      POPC     C314     CTL2    -0.180000       12.0110           0
     22074 MEMB     193      POPC     H14X     HAL2     0.900000E-01   1.00800           0
     22075 MEMB     193      POPC     H14Y     HAL2     0.900000E-01   1.00800           0
     22076 MEMB     193      POPC     C315     CTL2    -0.180000       12.0110           0
     22077 MEMB     193      POPC     H15X     HAL2     0.900000E-01   1.00800           0
     22078 MEMB     193      POPC     H15Y     HAL2     0.900000E-01   1.00800           0
     22079 MEMB     193      POPC     C316     CTL3    -0.270000       12.0110           0
     22080 MEMB     193      POPC     H16X     HAL3     0.900000E-01   1.00800           0
     22081 MEMB     193      POPC     H16Y     HAL3     0.900000E-01   1.00800           0
     22082 MEMB     193      POPC     H16Z     HAL3     0.900000E-01   1.00800           0
     22083 MEMB     194      POPC     N        NTL     -0.600000       14.0070           0
     22084 MEMB     194      POPC     C12      CTL2    -0.100000       12.0110           0
     22085 MEMB     194      POPC     H12A     HL       0.250000       1.00800           0
     22086 MEMB     194      POPC     H12B     HL       0.250000       1.00800           0
     22087 MEMB     194      POPC     C13      CTL5    -0.350000       12.0110           0
     22088 MEMB     194      POPC     H13A     HL       0.250000       1.00800           0
     22089 MEMB     194      POPC     H13B     HL       0.250000       1.00800           0
     22090 MEMB     194      POPC     H13C     HL       0.250000       1.00800           0
     22091 MEMB     194      POPC     C14      CTL5    -0.350000       12.0110           0
     22092 MEMB     194      POPC     H14A     HL       0.250000       1.00800           0
     22093 MEMB     194      POPC     H14B     HL       0.250000       1.00800           0
     22094 MEMB     194      POPC     H14C     HL       0.250000       1.00800           0
     22095 MEMB     194      POPC     C15      CTL5    -0.350000       12.0110           0
     22096 MEMB     194      POPC     H15A     HL       0.250000       1.00800           0
     22097 MEMB     194      POPC     H15B     HL       0.250000       1.00800           0
     22098 MEMB     194      POPC     H15C     HL       0.250000       1.00800           0
     22099 MEMB     194      POPC     C11      CTL2    -0.800000E-01   12.0110           0
     22100 MEMB     194      POPC     H11A     HAL2     0.900000E-01   1.00800           0
     22101 MEMB     194      POPC     H11B     HAL2     0.900000E-01   1.00800           0
     22102 MEMB     194      POPC     P        PL        1.50000       30.9740           0
     22103 MEMB     194      POPC     O13      O2L     -0.780000       15.9994           0
     22104 MEMB     194      POPC     O14      O2L     -0.780000       15.9994           0
     22105 MEMB     194      POPC     O12      OSLP    -0.570000       15.9994           0
     22106 MEMB     194      POPC     O11      OSLP    -0.570000       15.9994           0
     22107 MEMB     194      POPC     C1       CTL2    -0.800000E-01   12.0110           0
     22108 MEMB     194      POPC     HA       HAL2     0.900000E-01   1.00800           0
     22109 MEMB     194      POPC     HB       HAL2     0.900000E-01   1.00800           0
     22110 MEMB     194      POPC     C2       CTL1     0.170000       12.0110           0
     22111 MEMB     194      POPC     HS       HAL1     0.900000E-01   1.00800           0
     22112 MEMB     194      POPC     O21      OSL     -0.490000       15.9994           0
     22113 MEMB     194      POPC     C21      CL       0.900000       12.0110           0
     22114 MEMB     194      POPC     O22      OBL     -0.630000       15.9994           0
     22115 MEMB     194      POPC     C22      CTL2    -0.220000       12.0110           0
     22116 MEMB     194      POPC     H2R      HAL2     0.900000E-01   1.00800           0
     22117 MEMB     194      POPC     H2S      HAL2     0.900000E-01   1.00800           0
     22118 MEMB     194      POPC     C3       CTL2     0.800000E-01   12.0110           0
     22119 MEMB     194      POPC     HX       HAL2     0.900000E-01   1.00800           0
     22120 MEMB     194      POPC     HY       HAL2     0.900000E-01   1.00800           0
     22121 MEMB     194      POPC     O31      OSL     -0.490000       15.9994           0
     22122 MEMB     194      POPC     C31      CL       0.900000       12.0110           0
     22123 MEMB     194      POPC     O32      OBL     -0.630000       15.9994           0
     22124 MEMB     194      POPC     C32      CTL2    -0.220000       12.0110           0
     22125 MEMB     194      POPC     H2X      HAL2     0.900000E-01   1.00800           0
     22126 MEMB     194      POPC     H2Y      HAL2     0.900000E-01   1.00800           0
     22127 MEMB     194      POPC     C23      CTL2    -0.180000       12.0110           0
     22128 MEMB     194      POPC     H3R      HAL2     0.900000E-01   1.00800           0
     22129 MEMB     194      POPC     H3S      HAL2     0.900000E-01   1.00800           0
     22130 MEMB     194      POPC     C24      CTL2    -0.180000       12.0110           0
     22131 MEMB     194      POPC     H4R      HAL2     0.900000E-01   1.00800           0
     22132 MEMB     194      POPC     H4S      HAL2     0.900000E-01   1.00800           0
     22133 MEMB     194      POPC     C25      CTL2    -0.180000       12.0110           0
     22134 MEMB     194      POPC     H5R      HAL2     0.900000E-01   1.00800           0
     22135 MEMB     194      POPC     H5S      HAL2     0.900000E-01   1.00800           0
     22136 MEMB     194      POPC     C26      CTL2    -0.180000       12.0110           0
     22137 MEMB     194      POPC     H6R      HAL2     0.900000E-01   1.00800           0
     22138 MEMB     194      POPC     H6S      HAL2     0.900000E-01   1.00800           0
     22139 MEMB     194      POPC     C27      CTL2    -0.180000       12.0110           0
     22140 MEMB     194      POPC     H7R      HAL2     0.900000E-01   1.00800           0
     22141 MEMB     194      POPC     H7S      HAL2     0.900000E-01   1.00800           0
     22142 MEMB     194      POPC     C28      CTL2    -0.180000       12.0110           0
     22143 MEMB     194      POPC     H8R      HAL2     0.900000E-01   1.00800           0
     22144 MEMB     194      POPC     H8S      HAL2     0.900000E-01   1.00800           0
     22145 MEMB     194      POPC     C29      CEL1    -0.150000       12.0110           0
     22146 MEMB     194      POPC     H91      HEL1     0.150000       1.00800           0
     22147 MEMB     194      POPC     C210     CEL1    -0.150000       12.0110           0
     22148 MEMB     194      POPC     H101     HEL1     0.150000       1.00800           0
     22149 MEMB     194      POPC     C211     CTL2    -0.180000       12.0110           0
     22150 MEMB     194      POPC     H11R     HAL2     0.900000E-01   1.00800           0
     22151 MEMB     194      POPC     H11S     HAL2     0.900000E-01   1.00800           0
     22152 MEMB     194      POPC     C212     CTL2    -0.180000       12.0110           0
     22153 MEMB     194      POPC     H12R     HAL2     0.900000E-01   1.00800           0
     22154 MEMB     194      POPC     H12S     HAL2     0.900000E-01   1.00800           0
     22155 MEMB     194      POPC     C213     CTL2    -0.180000       12.0110           0
     22156 MEMB     194      POPC     H13R     HAL2     0.900000E-01   1.00800           0
     22157 MEMB     194      POPC     H13S     HAL2     0.900000E-01   1.00800           0
     22158 MEMB     194      POPC     C214     CTL2    -0.180000       12.0110           0
     22159 MEMB     194      POPC     H14R     HAL2     0.900000E-01   1.00800           0
     22160 MEMB     194      POPC     H14S     HAL2     0.900000E-01   1.00800           0
     22161 MEMB     194      POPC     C215     CTL2    -0.180000       12.0110           0
     22162 MEMB     194      POPC     H15R     HAL2     0.900000E-01   1.00800           0
     22163 MEMB     194      POPC     H15S     HAL2     0.900000E-01   1.00800           0
     22164 MEMB     194      POPC     C216     CTL2    -0.180000       12.0110           0
     22165 MEMB     194      POPC     H16R     HAL2     0.900000E-01   1.00800           0
     22166 MEMB     194      POPC     H16S     HAL2     0.900000E-01   1.00800           0
     22167 MEMB     194      POPC     C217     CTL2    -0.180000       12.0110           0
     22168 MEMB     194      POPC     H17R     HAL2     0.900000E-01   1.00800           0
     22169 MEMB     194      POPC     H17S     HAL2     0.900000E-01   1.00800           0
     22170 MEMB     194      POPC     C218     CTL3    -0.270000       12.0110           0
     22171 MEMB     194      POPC     H18R     HAL3     0.900000E-01   1.00800           0
     22172 MEMB     194      POPC     H18S     HAL3     0.900000E-01   1.00800           0
     22173 MEMB     194      POPC     H18T     HAL3     0.900000E-01   1.00800           0
     22174 MEMB     194      POPC     C33      CTL2    -0.180000       12.0110           0
     22175 MEMB     194      POPC     H3X      HAL2     0.900000E-01   1.00800           0
     22176 MEMB     194      POPC     H3Y      HAL2     0.900000E-01   1.00800           0
     22177 MEMB     194      POPC     C34      CTL2    -0.180000       12.0110           0
     22178 MEMB     194      POPC     H4X      HAL2     0.900000E-01   1.00800           0
     22179 MEMB     194      POPC     H4Y      HAL2     0.900000E-01   1.00800           0
     22180 MEMB     194      POPC     C35      CTL2    -0.180000       12.0110           0
     22181 MEMB     194      POPC     H5X      HAL2     0.900000E-01   1.00800           0
     22182 MEMB     194      POPC     H5Y      HAL2     0.900000E-01   1.00800           0
     22183 MEMB     194      POPC     C36      CTL2    -0.180000       12.0110           0
     22184 MEMB     194      POPC     H6X      HAL2     0.900000E-01   1.00800           0
     22185 MEMB     194      POPC     H6Y      HAL2     0.900000E-01   1.00800           0
     22186 MEMB     194      POPC     C37      CTL2    -0.180000       12.0110           0
     22187 MEMB     194      POPC     H7X      HAL2     0.900000E-01   1.00800           0
     22188 MEMB     194      POPC     H7Y      HAL2     0.900000E-01   1.00800           0
     22189 MEMB     194      POPC     C38      CTL2    -0.180000       12.0110           0
     22190 MEMB     194      POPC     H8X      HAL2     0.900000E-01   1.00800           0
     22191 MEMB     194      POPC     H8Y      HAL2     0.900000E-01   1.00800           0
     22192 MEMB     194      POPC     C39      CTL2    -0.180000       12.0110           0
     22193 MEMB     194      POPC     H9X      HAL2     0.900000E-01   1.00800           0
     22194 MEMB     194      POPC     H9Y      HAL2     0.900000E-01   1.00800           0
     22195 MEMB     194      POPC     C310     CTL2    -0.180000       12.0110           0
     22196 MEMB     194      POPC     H10X     HAL2     0.900000E-01   1.00800           0
     22197 MEMB     194      POPC     H10Y     HAL2     0.900000E-01   1.00800           0
     22198 MEMB     194      POPC     C311     CTL2    -0.180000       12.0110           0
     22199 MEMB     194      POPC     H11X     HAL2     0.900000E-01   1.00800           0
     22200 MEMB     194      POPC     H11Y     HAL2     0.900000E-01   1.00800           0
     22201 MEMB     194      POPC     C312     CTL2    -0.180000       12.0110           0
     22202 MEMB     194      POPC     H12X     HAL2     0.900000E-01   1.00800           0
     22203 MEMB     194      POPC     H12Y     HAL2     0.900000E-01   1.00800           0
     22204 MEMB     194      POPC     C313     CTL2    -0.180000       12.0110           0
     22205 MEMB     194      POPC     H13X     HAL2     0.900000E-01   1.00800           0
     22206 MEMB     194      POPC     H13Y     HAL2     0.900000E-01   1.00800           0
     22207 MEMB     194      POPC     C314     CTL2    -0.180000       12.0110           0
     22208 MEMB     194      POPC     H14X     HAL2     0.900000E-01   1.00800           0
     22209 MEMB     194      POPC     H14Y     HAL2     0.900000E-01   1.00800           0
     22210 MEMB     194      POPC     C315     CTL2    -0.180000       12.0110           0
     22211 MEMB     194      POPC     H15X     HAL2     0.900000E-01   1.00800           0
     22212 MEMB     194      POPC     H15Y     HAL2     0.900000E-01   1.00800           0
     22213 MEMB     194      POPC     C316     CTL3    -0.270000       12.0110           0
     22214 MEMB     194      POPC     H16X     HAL3     0.900000E-01   1.00800           0
     22215 MEMB     194      POPC     H16Y     HAL3     0.900000E-01   1.00800           0
     22216 MEMB     194      POPC     H16Z     HAL3     0.900000E-01   1.00800           0
     22217 MEMB     195      POPC     N        NTL     -0.600000       14.0070           0
     22218 MEMB     195      POPC     C12      CTL2    -0.100000       12.0110           0
     22219 MEMB     195      POPC     H12A     HL       0.250000       1.00800           0
     22220 MEMB     195      POPC     H12B     HL       0.250000       1.00800           0
     22221 MEMB     195      POPC     C13      CTL5    -0.350000       12.0110           0
     22222 MEMB     195      POPC     H13A     HL       0.250000       1.00800           0
     22223 MEMB     195      POPC     H13B     HL       0.250000       1.00800           0
     22224 MEMB     195      POPC     H13C     HL       0.250000       1.00800           0
     22225 MEMB     195      POPC     C14      CTL5    -0.350000       12.0110           0
     22226 MEMB     195      POPC     H14A     HL       0.250000       1.00800           0
     22227 MEMB     195      POPC     H14B     HL       0.250000       1.00800           0
     22228 MEMB     195      POPC     H14C     HL       0.250000       1.00800           0
     22229 MEMB     195      POPC     C15      CTL5    -0.350000       12.0110           0
     22230 MEMB     195      POPC     H15A     HL       0.250000       1.00800           0
     22231 MEMB     195      POPC     H15B     HL       0.250000       1.00800           0
     22232 MEMB     195      POPC     H15C     HL       0.250000       1.00800           0
     22233 MEMB     195      POPC     C11      CTL2    -0.800000E-01   12.0110           0
     22234 MEMB     195      POPC     H11A     HAL2     0.900000E-01   1.00800           0
     22235 MEMB     195      POPC     H11B     HAL2     0.900000E-01   1.00800           0
     22236 MEMB     195      POPC     P        PL        1.50000       30.9740           0
     22237 MEMB     195      POPC     O13      O2L     -0.780000       15.9994           0
     22238 MEMB     195      POPC     O14      O2L     -0.780000       15.9994           0
     22239 MEMB     195      POPC     O12      OSLP    -0.570000       15.9994           0
     22240 MEMB     195      POPC     O11      OSLP    -0.570000       15.9994           0
     22241 MEMB     195      POPC     C1       CTL2    -0.800000E-01   12.0110           0
     22242 MEMB     195      POPC     HA       HAL2     0.900000E-01   1.00800           0
     22243 MEMB     195      POPC     HB       HAL2     0.900000E-01   1.00800           0
     22244 MEMB     195      POPC     C2       CTL1     0.170000       12.0110           0
     22245 MEMB     195      POPC     HS       HAL1     0.900000E-01   1.00800           0
     22246 MEMB     195      POPC     O21      OSL     -0.490000       15.9994           0
     22247 MEMB     195      POPC     C21      CL       0.900000       12.0110           0
     22248 MEMB     195      POPC     O22      OBL     -0.630000       15.9994           0
     22249 MEMB     195      POPC     C22      CTL2    -0.220000       12.0110           0
     22250 MEMB     195      POPC     H2R      HAL2     0.900000E-01   1.00800           0
     22251 MEMB     195      POPC     H2S      HAL2     0.900000E-01   1.00800           0
     22252 MEMB     195      POPC     C3       CTL2     0.800000E-01   12.0110           0
     22253 MEMB     195      POPC     HX       HAL2     0.900000E-01   1.00800           0
     22254 MEMB     195      POPC     HY       HAL2     0.900000E-01   1.00800           0
     22255 MEMB     195      POPC     O31      OSL     -0.490000       15.9994           0
     22256 MEMB     195      POPC     C31      CL       0.900000       12.0110           0
     22257 MEMB     195      POPC     O32      OBL     -0.630000       15.9994           0
     22258 MEMB     195      POPC     C32      CTL2    -0.220000       12.0110           0
     22259 MEMB     195      POPC     H2X      HAL2     0.900000E-01   1.00800           0
     22260 MEMB     195      POPC     H2Y      HAL2     0.900000E-01   1.00800           0
     22261 MEMB     195      POPC     C23      CTL2    -0.180000       12.0110           0
     22262 MEMB     195      POPC     H3R      HAL2     0.900000E-01   1.00800           0
     22263 MEMB     195      POPC     H3S      HAL2     0.900000E-01   1.00800           0
     22264 MEMB     195      POPC     C24      CTL2    -0.180000       12.0110           0
     22265 MEMB     195      POPC     H4R      HAL2     0.900000E-01   1.00800           0
     22266 MEMB     195      POPC     H4S      HAL2     0.900000E-01   1.00800           0
     22267 MEMB     195      POPC     C25      CTL2    -0.180000       12.0110           0
     22268 MEMB     195      POPC     H5R      HAL2     0.900000E-01   1.00800           0
     22269 MEMB     195      POPC     H5S      HAL2     0.900000E-01   1.00800           0
     22270 MEMB     195      POPC     C26      CTL2    -0.180000       12.0110           0
     22271 MEMB     195      POPC     H6R      HAL2     0.900000E-01   1.00800           0
     22272 MEMB     195      POPC     H6S      HAL2     0.900000E-01   1.00800           0
     22273 MEMB     195      POPC     C27      CTL2    -0.180000       12.0110           0
     22274 MEMB     195      POPC     H7R      HAL2     0.900000E-01   1.00800           0
     22275 MEMB     195      POPC     H7S      HAL2     0.900000E-01   1.00800           0
     22276 MEMB     195      POPC     C28      CTL2    -0.180000       12.0110           0
     22277 MEMB     195      POPC     H8R      HAL2     0.900000E-01   1.00800           0
     22278 MEMB     195      POPC     H8S      HAL2     0.900000E-01   1.00800           0
     22279 MEMB     195      POPC     C29      CEL1    -0.150000       12.0110           0
     22280 MEMB     195      POPC     H91      HEL1     0.150000       1.00800           0
     22281 MEMB     195      POPC     C210     CEL1    -0.150000       12.0110           0
     22282 MEMB     195      POPC     H101     HEL1     0.150000       1.00800           0
     22283 MEMB     195      POPC     C211     CTL2    -0.180000       12.0110           0
     22284 MEMB     195      POPC     H11R     HAL2     0.900000E-01   1.00800           0
     22285 MEMB     195      POPC     H11S     HAL2     0.900000E-01   1.00800           0
     22286 MEMB     195      POPC     C212     CTL2    -0.180000       12.0110           0
     22287 MEMB     195      POPC     H12R     HAL2     0.900000E-01   1.00800           0
     22288 MEMB     195      POPC     H12S     HAL2     0.900000E-01   1.00800           0
     22289 MEMB     195      POPC     C213     CTL2    -0.180000       12.0110           0
     22290 MEMB     195      POPC     H13R     HAL2     0.900000E-01   1.00800           0
     22291 MEMB     195      POPC     H13S     HAL2     0.900000E-01   1.00800           0
     22292 MEMB     195      POPC     C214     CTL2    -0.180000       12.0110           0
     22293 MEMB     195      POPC     H14R     HAL2     0.900000E-01   1.00800           0
     22294 MEMB     195      POPC     H14S     HAL2     0.900000E-01   1.00800           0
     22295 MEMB     195      POPC     C215     CTL2    -0.180000       12.0110           0
     22296 MEMB     195      POPC     H15R     HAL2     0.900000E-01   1.00800           0
     22297 MEMB     195      POPC     H15S     HAL2     0.900000E-01   1.00800           0
     22298 MEMB     195      POPC     C216     CTL2    -0.180000       12.0110           0
     22299 MEMB     195      POPC     H16R     HAL2     0.900000E-01   1.00800           0
     22300 MEMB     195      POPC     H16S     HAL2     0.900000E-01   1.00800           0
     22301 MEMB     195      POPC     C217     CTL2    -0.180000       12.0110           0
     22302 MEMB     195      POPC     H17R     HAL2     0.900000E-01   1.00800           0
     22303 MEMB     195      POPC     H17S     HAL2     0.900000E-01   1.00800           0
     22304 MEMB     195      POPC     C218     CTL3    -0.270000       12.0110           0
     22305 MEMB     195      POPC     H18R     HAL3     0.900000E-01   1.00800           0
     22306 MEMB     195      POPC     H18S     HAL3     0.900000E-01   1.00800           0
     22307 MEMB     195      POPC     H18T     HAL3     0.900000E-01   1.00800           0
     22308 MEMB     195      POPC     C33      CTL2    -0.180000       12.0110           0
     22309 MEMB     195      POPC     H3X      HAL2     0.900000E-01   1.00800           0
     22310 MEMB     195      POPC     H3Y      HAL2     0.900000E-01   1.00800           0
     22311 MEMB     195      POPC     C34      CTL2    -0.180000       12.0110           0
     22312 MEMB     195      POPC     H4X      HAL2     0.900000E-01   1.00800           0
     22313 MEMB     195      POPC     H4Y      HAL2     0.900000E-01   1.00800           0
     22314 MEMB     195      POPC     C35      CTL2    -0.180000       12.0110           0
     22315 MEMB     195      POPC     H5X      HAL2     0.900000E-01   1.00800           0
     22316 MEMB     195      POPC     H5Y      HAL2     0.900000E-01   1.00800           0
     22317 MEMB     195      POPC     C36      CTL2    -0.180000       12.0110           0
     22318 MEMB     195      POPC     H6X      HAL2     0.900000E-01   1.00800           0
     22319 MEMB     195      POPC     H6Y      HAL2     0.900000E-01   1.00800           0
     22320 MEMB     195      POPC     C37      CTL2    -0.180000       12.0110           0
     22321 MEMB     195      POPC     H7X      HAL2     0.900000E-01   1.00800           0
     22322 MEMB     195      POPC     H7Y      HAL2     0.900000E-01   1.00800           0
     22323 MEMB     195      POPC     C38      CTL2    -0.180000       12.0110           0
     22324 MEMB     195      POPC     H8X      HAL2     0.900000E-01   1.00800           0
     22325 MEMB     195      POPC     H8Y      HAL2     0.900000E-01   1.00800           0
     22326 MEMB     195      POPC     C39      CTL2    -0.180000       12.0110           0
     22327 MEMB     195      POPC     H9X      HAL2     0.900000E-01   1.00800           0
     22328 MEMB     195      POPC     H9Y      HAL2     0.900000E-01   1.00800           0
     22329 MEMB     195      POPC     C310     CTL2    -0.180000       12.0110           0
     22330 MEMB     195      POPC     H10X     HAL2     0.900000E-01   1.00800           0
     22331 MEMB     195      POPC     H10Y     HAL2     0.900000E-01   1.00800           0
     22332 MEMB     195      POPC     C311     CTL2    -0.180000       12.0110           0
     22333 MEMB     195      POPC     H11X     HAL2     0.900000E-01   1.00800           0
     22334 MEMB     195      POPC     H11Y     HAL2     0.900000E-01   1.00800           0
     22335 MEMB     195      POPC     C312     CTL2    -0.180000       12.0110           0
     22336 MEMB     195      POPC     H12X     HAL2     0.900000E-01   1.00800           0
     22337 MEMB     195      POPC     H12Y     HAL2     0.900000E-01   1.00800           0
     22338 MEMB     195      POPC     C313     CTL2    -0.180000       12.0110           0
     22339 MEMB     195      POPC     H13X     HAL2     0.900000E-01   1.00800           0
     22340 MEMB     195      POPC     H13Y     HAL2     0.900000E-01   1.00800           0
     22341 MEMB     195      POPC     C314     CTL2    -0.180000       12.0110           0
     22342 MEMB     195      POPC     H14X     HAL2     0.900000E-01   1.00800           0
     22343 MEMB     195      POPC     H14Y     HAL2     0.900000E-01   1.00800           0
     22344 MEMB     195      POPC     C315     CTL2    -0.180000       12.0110           0
     22345 MEMB     195      POPC     H15X     HAL2     0.900000E-01   1.00800           0
     22346 MEMB     195      POPC     H15Y     HAL2     0.900000E-01   1.00800           0
     22347 MEMB     195      POPC     C316     CTL3    -0.270000       12.0110           0
     22348 MEMB     195      POPC     H16X     HAL3     0.900000E-01   1.00800           0
     22349 MEMB     195      POPC     H16Y     HAL3     0.900000E-01   1.00800           0
     22350 MEMB     195      POPC     H16Z     HAL3     0.900000E-01   1.00800           0
     22351 MEMB     196      POPC     N        NTL     -0.600000       14.0070           0
     22352 MEMB     196      POPC     C12      CTL2    -0.100000       12.0110           0
     22353 MEMB     196      POPC     H12A     HL       0.250000       1.00800           0
     22354 MEMB     196      POPC     H12B     HL       0.250000       1.00800           0
     22355 MEMB     196      POPC     C13      CTL5    -0.350000       12.0110           0
     22356 MEMB     196      POPC     H13A     HL       0.250000       1.00800           0
     22357 MEMB     196      POPC     H13B     HL       0.250000       1.00800           0
     22358 MEMB     196      POPC     H13C     HL       0.250000       1.00800           0
     22359 MEMB     196      POPC     C14      CTL5    -0.350000       12.0110           0
     22360 MEMB     196      POPC     H14A     HL       0.250000       1.00800           0
     22361 MEMB     196      POPC     H14B     HL       0.250000       1.00800           0
     22362 MEMB     196      POPC     H14C     HL       0.250000       1.00800           0
     22363 MEMB     196      POPC     C15      CTL5    -0.350000       12.0110           0
     22364 MEMB     196      POPC     H15A     HL       0.250000       1.00800           0
     22365 MEMB     196      POPC     H15B     HL       0.250000       1.00800           0
     22366 MEMB     196      POPC     H15C     HL       0.250000       1.00800           0
     22367 MEMB     196      POPC     C11      CTL2    -0.800000E-01   12.0110           0
     22368 MEMB     196      POPC     H11A     HAL2     0.900000E-01   1.00800           0
     22369 MEMB     196      POPC     H11B     HAL2     0.900000E-01   1.00800           0
     22370 MEMB     196      POPC     P        PL        1.50000       30.9740           0
     22371 MEMB     196      POPC     O13      O2L     -0.780000       15.9994           0
     22372 MEMB     196      POPC     O14      O2L     -0.780000       15.9994           0
     22373 MEMB     196      POPC     O12      OSLP    -0.570000       15.9994           0
     22374 MEMB     196      POPC     O11      OSLP    -0.570000       15.9994           0
     22375 MEMB     196      POPC     C1       CTL2    -0.800000E-01   12.0110           0
     22376 MEMB     196      POPC     HA       HAL2     0.900000E-01   1.00800           0
     22377 MEMB     196      POPC     HB       HAL2     0.900000E-01   1.00800           0
     22378 MEMB     196      POPC     C2       CTL1     0.170000       12.0110           0
     22379 MEMB     196      POPC     HS       HAL1     0.900000E-01   1.00800           0
     22380 MEMB     196      POPC     O21      OSL     -0.490000       15.9994           0
     22381 MEMB     196      POPC     C21      CL       0.900000       12.0110           0
     22382 MEMB     196      POPC     O22      OBL     -0.630000       15.9994           0
     22383 MEMB     196      POPC     C22      CTL2    -0.220000       12.0110           0
     22384 MEMB     196      POPC     H2R      HAL2     0.900000E-01   1.00800           0
     22385 MEMB     196      POPC     H2S      HAL2     0.900000E-01   1.00800           0
     22386 MEMB     196      POPC     C3       CTL2     0.800000E-01   12.0110           0
     22387 MEMB     196      POPC     HX       HAL2     0.900000E-01   1.00800           0
     22388 MEMB     196      POPC     HY       HAL2     0.900000E-01   1.00800           0
     22389 MEMB     196      POPC     O31      OSL     -0.490000       15.9994           0
     22390 MEMB     196      POPC     C31      CL       0.900000       12.0110           0
     22391 MEMB     196      POPC     O32      OBL     -0.630000       15.9994           0
     22392 MEMB     196      POPC     C32      CTL2    -0.220000       12.0110           0
     22393 MEMB     196      POPC     H2X      HAL2     0.900000E-01   1.00800           0
     22394 MEMB     196      POPC     H2Y      HAL2     0.900000E-01   1.00800           0
     22395 MEMB     196      POPC     C23      CTL2    -0.180000       12.0110           0
     22396 MEMB     196      POPC     H3R      HAL2     0.900000E-01   1.00800           0
     22397 MEMB     196      POPC     H3S      HAL2     0.900000E-01   1.00800           0
     22398 MEMB     196      POPC     C24      CTL2    -0.180000       12.0110           0
     22399 MEMB     196      POPC     H4R      HAL2     0.900000E-01   1.00800           0
     22400 MEMB     196      POPC     H4S      HAL2     0.900000E-01   1.00800           0
     22401 MEMB     196      POPC     C25      CTL2    -0.180000       12.0110           0
     22402 MEMB     196      POPC     H5R      HAL2     0.900000E-01   1.00800           0
     22403 MEMB     196      POPC     H5S      HAL2     0.900000E-01   1.00800           0
     22404 MEMB     196      POPC     C26      CTL2    -0.180000       12.0110           0
     22405 MEMB     196      POPC     H6R      HAL2     0.900000E-01   1.00800           0
     22406 MEMB     196      POPC     H6S      HAL2     0.900000E-01   1.00800           0
     22407 MEMB     196      POPC     C27      CTL2    -0.180000       12.0110           0
     22408 MEMB     196      POPC     H7R      HAL2     0.900000E-01   1.00800           0
     22409 MEMB     196      POPC     H7S      HAL2     0.900000E-01   1.00800           0
     22410 MEMB     196      POPC     C28      CTL2    -0.180000       12.0110           0
     22411 MEMB     196      POPC     H8R      HAL2     0.900000E-01   1.00800           0
     22412 MEMB     196      POPC     H8S      HAL2     0.900000E-01   1.00800           0
     22413 MEMB     196      POPC     C29      CEL1    -0.150000       12.0110           0
     22414 MEMB     196      POPC     H91      HEL1     0.150000       1.00800           0
     22415 MEMB     196      POPC     C210     CEL1    -0.150000       12.0110           0
     22416 MEMB     196      POPC     H101     HEL1     0.150000       1.00800           0
     22417 MEMB     196      POPC     C211     CTL2    -0.180000       12.0110           0
     22418 MEMB     196      POPC     H11R     HAL2     0.900000E-01   1.00800           0
     22419 MEMB     196      POPC     H11S     HAL2     0.900000E-01   1.00800           0
     22420 MEMB     196      POPC     C212     CTL2    -0.180000       12.0110           0
     22421 MEMB     196      POPC     H12R     HAL2     0.900000E-01   1.00800           0
     22422 MEMB     196      POPC     H12S     HAL2     0.900000E-01   1.00800           0
     22423 MEMB     196      POPC     C213     CTL2    -0.180000       12.0110           0
     22424 MEMB     196      POPC     H13R     HAL2     0.900000E-01   1.00800           0
     22425 MEMB     196      POPC     H13S     HAL2     0.900000E-01   1.00800           0
     22426 MEMB     196      POPC     C214     CTL2    -0.180000       12.0110           0
     22427 MEMB     196      POPC     H14R     HAL2     0.900000E-01   1.00800           0
     22428 MEMB     196      POPC     H14S     HAL2     0.900000E-01   1.00800           0
     22429 MEMB     196      POPC     C215     CTL2    -0.180000       12.0110           0
     22430 MEMB     196      POPC     H15R     HAL2     0.900000E-01   1.00800           0
     22431 MEMB     196      POPC     H15S     HAL2     0.900000E-01   1.00800           0
     22432 MEMB     196      POPC     C216     CTL2    -0.180000       12.0110           0
     22433 MEMB     196      POPC     H16R     HAL2     0.900000E-01   1.00800           0
     22434 MEMB     196      POPC     H16S     HAL2     0.900000E-01   1.00800           0
     22435 MEMB     196      POPC     C217     CTL2    -0.180000       12.0110           0
     22436 MEMB     196      POPC     H17R     HAL2     0.900000E-01   1.00800           0
     22437 MEMB     196      POPC     H17S     HAL2     0.900000E-01   1.00800           0
     22438 MEMB     196      POPC     C218     CTL3    -0.270000       12.0110           0
     22439 MEMB     196      POPC     H18R     HAL3     0.900000E-01   1.00800           0
     22440 MEMB     196      POPC     H18S     HAL3     0.900000E-01   1.00800           0
     22441 MEMB     196      POPC     H18T     HAL3     0.900000E-01   1.00800           0
     22442 MEMB     196      POPC     C33      CTL2    -0.180000       12.0110           0
     22443 MEMB     196      POPC     H3X      HAL2     0.900000E-01   1.00800           0
     22444 MEMB     196      POPC     H3Y      HAL2     0.900000E-01   1.00800           0
     22445 MEMB     196      POPC     C34      CTL2    -0.180000       12.0110           0
     22446 MEMB     196      POPC     H4X      HAL2     0.900000E-01   1.00800           0
     22447 MEMB     196      POPC     H4Y      HAL2     0.900000E-01   1.00800           0
     22448 MEMB     196      POPC     C35      CTL2    -0.180000       12.0110           0
     22449 MEMB     196      POPC     H5X      HAL2     0.900000E-01   1.00800           0
     22450 MEMB     196      POPC     H5Y      HAL2     0.900000E-01   1.00800           0
     22451 MEMB     196      POPC     C36      CTL2    -0.180000       12.0110           0
     22452 MEMB     196      POPC     H6X      HAL2     0.900000E-01   1.00800           0
     22453 MEMB     196      POPC     H6Y      HAL2     0.900000E-01   1.00800           0
     22454 MEMB     196      POPC     C37      CTL2    -0.180000       12.0110           0
     22455 MEMB     196      POPC     H7X      HAL2     0.900000E-01   1.00800           0
     22456 MEMB     196      POPC     H7Y      HAL2     0.900000E-01   1.00800           0
     22457 MEMB     196      POPC     C38      CTL2    -0.180000       12.0110           0
     22458 MEMB     196      POPC     H8X      HAL2     0.900000E-01   1.00800           0
     22459 MEMB     196      POPC     H8Y      HAL2     0.900000E-01   1.00800           0
     22460 MEMB     196      POPC     C39      CTL2    -0.180000       12.0110           0
     22461 MEMB     196      POPC     H9X      HAL2     0.900000E-01   1.00800           0
     22462 MEMB     196      POPC     H9Y      HAL2     0.900000E-01   1.00800           0
     22463 MEMB     196      POPC     C310     CTL2    -0.180000       12.0110           0
     22464 MEMB     196      POPC     H10X     HAL2     0.900000E-01   1.00800           0
     22465 MEMB     196      POPC     H10Y     HAL2     0.900000E-01   1.00800           0
     22466 MEMB     196      POPC     C311     CTL2    -0.180000       12.0110           0
     22467 MEMB     196      POPC     H11X     HAL2     0.900000E-01   1.00800           0
     22468 MEMB     196      POPC     H11Y     HAL2     0.900000E-01   1.00800           0
     22469 MEMB     196      POPC     C312     CTL2    -0.180000       12.0110           0
     22470 MEMB     196      POPC     H12X     HAL2     0.900000E-01   1.00800           0
     22471 MEMB     196      POPC     H12Y     HAL2     0.900000E-01   1.00800           0
     22472 MEMB     196      POPC     C313     CTL2    -0.180000       12.0110           0
     22473 MEMB     196      POPC     H13X     HAL2     0.900000E-01   1.00800           0
     22474 MEMB     196      POPC     H13Y     HAL2     0.900000E-01   1.00800           0
     22475 MEMB     196      POPC     C314     CTL2    -0.180000       12.0110           0
     22476 MEMB     196      POPC     H14X     HAL2     0.900000E-01   1.00800           0
     22477 MEMB     196      POPC     H14Y     HAL2     0.900000E-01   1.00800           0
     22478 MEMB     196      POPC     C315     CTL2    -0.180000       12.0110           0
     22479 MEMB     196      POPC     H15X     HAL2     0.900000E-01   1.00800           0
     22480 MEMB     196      POPC     H15Y     HAL2     0.900000E-01   1.00800           0
     22481 MEMB     196      POPC     C316     CTL3    -0.270000       12.0110           0
     22482 MEMB     196      POPC     H16X     HAL3     0.900000E-01   1.00800           0
     22483 MEMB     196      POPC     H16Y     HAL3     0.900000E-01   1.00800           0
     22484 MEMB     196      POPC     H16Z     HAL3     0.900000E-01   1.00800           0
     22485 MEMB     197      POPC     N        NTL     -0.600000       14.0070           0
     22486 MEMB     197      POPC     C12      CTL2    -0.100000       12.0110           0
     22487 MEMB     197      POPC     H12A     HL       0.250000       1.00800           0
     22488 MEMB     197      POPC     H12B     HL       0.250000       1.00800           0
     22489 MEMB     197      POPC     C13      CTL5    -0.350000       12.0110           0
     22490 MEMB     197      POPC     H13A     HL       0.250000       1.00800           0
     22491 MEMB     197      POPC     H13B     HL       0.250000       1.00800           0
     22492 MEMB     197      POPC     H13C     HL       0.250000       1.00800           0
     22493 MEMB     197      POPC     C14      CTL5    -0.350000       12.0110           0
     22494 MEMB     197      POPC     H14A     HL       0.250000       1.00800           0
     22495 MEMB     197      POPC     H14B     HL       0.250000       1.00800           0
     22496 MEMB     197      POPC     H14C     HL       0.250000       1.00800           0
     22497 MEMB     197      POPC     C15      CTL5    -0.350000       12.0110           0
     22498 MEMB     197      POPC     H15A     HL       0.250000       1.00800           0
     22499 MEMB     197      POPC     H15B     HL       0.250000       1.00800           0
     22500 MEMB     197      POPC     H15C     HL       0.250000       1.00800           0
     22501 MEMB     197      POPC     C11      CTL2    -0.800000E-01   12.0110           0
     22502 MEMB     197      POPC     H11A     HAL2     0.900000E-01   1.00800           0
     22503 MEMB     197      POPC     H11B     HAL2     0.900000E-01   1.00800           0
     22504 MEMB     197      POPC     P        PL        1.50000       30.9740           0
     22505 MEMB     197      POPC     O13      O2L     -0.780000       15.9994           0
     22506 MEMB     197      POPC     O14      O2L     -0.780000       15.9994           0
     22507 MEMB     197      POPC     O12      OSLP    -0.570000       15.9994           0
     22508 MEMB     197      POPC     O11      OSLP    -0.570000       15.9994           0
     22509 MEMB     197      POPC     C1       CTL2    -0.800000E-01   12.0110           0
     22510 MEMB     197      POPC     HA       HAL2     0.900000E-01   1.00800           0
     22511 MEMB     197      POPC     HB       HAL2     0.900000E-01   1.00800           0
     22512 MEMB     197      POPC     C2       CTL1     0.170000       12.0110           0
     22513 MEMB     197      POPC     HS       HAL1     0.900000E-01   1.00800           0
     22514 MEMB     197      POPC     O21      OSL     -0.490000       15.9994           0
     22515 MEMB     197      POPC     C21      CL       0.900000       12.0110           0
     22516 MEMB     197      POPC     O22      OBL     -0.630000       15.9994           0
     22517 MEMB     197      POPC     C22      CTL2    -0.220000       12.0110           0
     22518 MEMB     197      POPC     H2R      HAL2     0.900000E-01   1.00800           0
     22519 MEMB     197      POPC     H2S      HAL2     0.900000E-01   1.00800           0
     22520 MEMB     197      POPC     C3       CTL2     0.800000E-01   12.0110           0
     22521 MEMB     197      POPC     HX       HAL2     0.900000E-01   1.00800           0
     22522 MEMB     197      POPC     HY       HAL2     0.900000E-01   1.00800           0
     22523 MEMB     197      POPC     O31      OSL     -0.490000       15.9994           0
     22524 MEMB     197      POPC     C31      CL       0.900000       12.0110           0
     22525 MEMB     197      POPC     O32      OBL     -0.630000       15.9994           0
     22526 MEMB     197      POPC     C32      CTL2    -0.220000       12.0110           0
     22527 MEMB     197      POPC     H2X      HAL2     0.900000E-01   1.00800           0
     22528 MEMB     197      POPC     H2Y      HAL2     0.900000E-01   1.00800           0
     22529 MEMB     197      POPC     C23      CTL2    -0.180000       12.0110           0
     22530 MEMB     197      POPC     H3R      HAL2     0.900000E-01   1.00800           0
     22531 MEMB     197      POPC     H3S      HAL2     0.900000E-01   1.00800           0
     22532 MEMB     197      POPC     C24      CTL2    -0.180000       12.0110           0
     22533 MEMB     197      POPC     H4R      HAL2     0.900000E-01   1.00800           0
     22534 MEMB     197      POPC     H4S      HAL2     0.900000E-01   1.00800           0
     22535 MEMB     197      POPC     C25      CTL2    -0.180000       12.0110           0
     22536 MEMB     197      POPC     H5R      HAL2     0.900000E-01   1.00800           0
     22537 MEMB     197      POPC     H5S      HAL2     0.900000E-01   1.00800           0
     22538 MEMB     197      POPC     C26      CTL2    -0.180000       12.0110           0
     22539 MEMB     197      POPC     H6R      HAL2     0.900000E-01   1.00800           0
     22540 MEMB     197      POPC     H6S      HAL2     0.900000E-01   1.00800           0
     22541 MEMB     197      POPC     C27      CTL2    -0.180000       12.0110           0
     22542 MEMB     197      POPC     H7R      HAL2     0.900000E-01   1.00800           0
     22543 MEMB     197      POPC     H7S      HAL2     0.900000E-01   1.00800           0
     22544 MEMB     197      POPC     C28      CTL2    -0.180000       12.0110           0
     22545 MEMB     197      POPC     H8R      HAL2     0.900000E-01   1.00800           0
     22546 MEMB     197      POPC     H8S      HAL2     0.900000E-01   1.00800           0
     22547 MEMB     197      POPC     C29      CEL1    -0.150000       12.0110           0
     22548 MEMB     197      POPC     H91      HEL1     0.150000       1.00800           0
     22549 MEMB     197      POPC     C210     CEL1    -0.150000       12.0110           0
     22550 MEMB     197      POPC     H101     HEL1     0.150000       1.00800           0
     22551 MEMB     197      POPC     C211     CTL2    -0.180000       12.0110           0
     22552 MEMB     197      POPC     H11R     HAL2     0.900000E-01   1.00800           0
     22553 MEMB     197      POPC     H11S     HAL2     0.900000E-01   1.00800           0
     22554 MEMB     197      POPC     C212     CTL2    -0.180000       12.0110           0
     22555 MEMB     197      POPC     H12R     HAL2     0.900000E-01   1.00800           0
     22556 MEMB     197      POPC     H12S     HAL2     0.900000E-01   1.00800           0
     22557 MEMB     197      POPC     C213     CTL2    -0.180000       12.0110           0
     22558 MEMB     197      POPC     H13R     HAL2     0.900000E-01   1.00800           0
     22559 MEMB     197      POPC     H13S     HAL2     0.900000E-01   1.00800           0
     22560 MEMB     197      POPC     C214     CTL2    -0.180000       12.0110           0
     22561 MEMB     197      POPC     H14R     HAL2     0.900000E-01   1.00800           0
     22562 MEMB     197      POPC     H14S     HAL2     0.900000E-01   1.00800           0
     22563 MEMB     197      POPC     C215     CTL2    -0.180000       12.0110           0
     22564 MEMB     197      POPC     H15R     HAL2     0.900000E-01   1.00800           0
     22565 MEMB     197      POPC     H15S     HAL2     0.900000E-01   1.00800           0
     22566 MEMB     197      POPC     C216     CTL2    -0.180000       12.0110           0
     22567 MEMB     197      POPC     H16R     HAL2     0.900000E-01   1.00800           0
     22568 MEMB     197      POPC     H16S     HAL2     0.900000E-01   1.00800           0
     22569 MEMB     197      POPC     C217     CTL2    -0.180000       12.0110           0
     22570 MEMB     197      POPC     H17R     HAL2     0.900000E-01   1.00800           0
     22571 MEMB     197      POPC     H17S     HAL2     0.900000E-01   1.00800           0
     22572 MEMB     197      POPC     C218     CTL3    -0.270000       12.0110           0
     22573 MEMB     197      POPC     H18R     HAL3     0.900000E-01   1.00800           0
     22574 MEMB     197      POPC     H18S     HAL3     0.900000E-01   1.00800           0
     22575 MEMB     197      POPC     H18T     HAL3     0.900000E-01   1.00800           0
     22576 MEMB     197      POPC     C33      CTL2    -0.180000       12.0110           0
     22577 MEMB     197      POPC     H3X      HAL2     0.900000E-01   1.00800           0
     22578 MEMB     197      POPC     H3Y      HAL2     0.900000E-01   1.00800           0
     22579 MEMB     197      POPC     C34      CTL2    -0.180000       12.0110           0
     22580 MEMB     197      POPC     H4X      HAL2     0.900000E-01   1.00800           0
     22581 MEMB     197      POPC     H4Y      HAL2     0.900000E-01   1.00800           0
     22582 MEMB     197      POPC     C35      CTL2    -0.180000       12.0110           0
     22583 MEMB     197      POPC     H5X      HAL2     0.900000E-01   1.00800           0
     22584 MEMB     197      POPC     H5Y      HAL2     0.900000E-01   1.00800           0
     22585 MEMB     197      POPC     C36      CTL2    -0.180000       12.0110           0
     22586 MEMB     197      POPC     H6X      HAL2     0.900000E-01   1.00800           0
     22587 MEMB     197      POPC     H6Y      HAL2     0.900000E-01   1.00800           0
     22588 MEMB     197      POPC     C37      CTL2    -0.180000       12.0110           0
     22589 MEMB     197      POPC     H7X      HAL2     0.900000E-01   1.00800           0
     22590 MEMB     197      POPC     H7Y      HAL2     0.900000E-01   1.00800           0
     22591 MEMB     197      POPC     C38      CTL2    -0.180000       12.0110           0
     22592 MEMB     197      POPC     H8X      HAL2     0.900000E-01   1.00800           0
     22593 MEMB     197      POPC     H8Y      HAL2     0.900000E-01   1.00800           0
     22594 MEMB     197      POPC     C39      CTL2    -0.180000       12.0110           0
     22595 MEMB     197      POPC     H9X      HAL2     0.900000E-01   1.00800           0
     22596 MEMB     197      POPC     H9Y      HAL2     0.900000E-01   1.00800           0
     22597 MEMB     197      POPC     C310     CTL2    -0.180000       12.0110           0
     22598 MEMB     197      POPC     H10X     HAL2     0.900000E-01   1.00800           0
     22599 MEMB     197      POPC     H10Y     HAL2     0.900000E-01   1.00800           0
     22600 MEMB     197      POPC     C311     CTL2    -0.180000       12.0110           0
     22601 MEMB     197      POPC     H11X     HAL2     0.900000E-01   1.00800           0
     22602 MEMB     197      POPC     H11Y     HAL2     0.900000E-01   1.00800           0
     22603 MEMB     197      POPC     C312     CTL2    -0.180000       12.0110           0
     22604 MEMB     197      POPC     H12X     HAL2     0.900000E-01   1.00800           0
     22605 MEMB     197      POPC     H12Y     HAL2     0.900000E-01   1.00800           0
     22606 MEMB     197      POPC     C313     CTL2    -0.180000       12.0110           0
     22607 MEMB     197      POPC     H13X     HAL2     0.900000E-01   1.00800           0
     22608 MEMB     197      POPC     H13Y     HAL2     0.900000E-01   1.00800           0
     22609 MEMB     197      POPC     C314     CTL2    -0.180000       12.0110           0
     22610 MEMB     197      POPC     H14X     HAL2     0.900000E-01   1.00800           0
     22611 MEMB     197      POPC     H14Y     HAL2     0.900000E-01   1.00800           0
     22612 MEMB     197      POPC     C315     CTL2    -0.180000       12.0110           0
     22613 MEMB     197      POPC     H15X     HAL2     0.900000E-01   1.00800           0
     22614 MEMB     197      POPC     H15Y     HAL2     0.900000E-01   1.00800           0
     22615 MEMB     197      POPC     C316     CTL3    -0.270000       12.0110           0
     22616 MEMB     197      POPC     H16X     HAL3     0.900000E-01   1.00800           0
     22617 MEMB     197      POPC     H16Y     HAL3     0.900000E-01   1.00800           0
     22618 MEMB     197      POPC     H16Z     HAL3     0.900000E-01   1.00800           0
     22619 MEMB     198      POPC     N        NTL     -0.600000       14.0070           0
     22620 MEMB     198      POPC     C12      CTL2    -0.100000       12.0110           0
     22621 MEMB     198      POPC     H12A     HL       0.250000       1.00800           0
     22622 MEMB     198      POPC     H12B     HL       0.250000       1.00800           0
     22623 MEMB     198      POPC     C13      CTL5    -0.350000       12.0110           0
     22624 MEMB     198      POPC     H13A     HL       0.250000       1.00800           0
     22625 MEMB     198      POPC     H13B     HL       0.250000       1.00800           0
     22626 MEMB     198      POPC     H13C     HL       0.250000       1.00800           0
     22627 MEMB     198      POPC     C14      CTL5    -0.350000       12.0110           0
     22628 MEMB     198      POPC     H14A     HL       0.250000       1.00800           0
     22629 MEMB     198      POPC     H14B     HL       0.250000       1.00800           0
     22630 MEMB     198      POPC     H14C     HL       0.250000       1.00800           0
     22631 MEMB     198      POPC     C15      CTL5    -0.350000       12.0110           0
     22632 MEMB     198      POPC     H15A     HL       0.250000       1.00800           0
     22633 MEMB     198      POPC     H15B     HL       0.250000       1.00800           0
     22634 MEMB     198      POPC     H15C     HL       0.250000       1.00800           0
     22635 MEMB     198      POPC     C11      CTL2    -0.800000E-01   12.0110           0
     22636 MEMB     198      POPC     H11A     HAL2     0.900000E-01   1.00800           0
     22637 MEMB     198      POPC     H11B     HAL2     0.900000E-01   1.00800           0
     22638 MEMB     198      POPC     P        PL        1.50000       30.9740           0
     22639 MEMB     198      POPC     O13      O2L     -0.780000       15.9994           0
     22640 MEMB     198      POPC     O14      O2L     -0.780000       15.9994           0
     22641 MEMB     198      POPC     O12      OSLP    -0.570000       15.9994           0
     22642 MEMB     198      POPC     O11      OSLP    -0.570000       15.9994           0
     22643 MEMB     198      POPC     C1       CTL2    -0.800000E-01   12.0110           0
     22644 MEMB     198      POPC     HA       HAL2     0.900000E-01   1.00800           0
     22645 MEMB     198      POPC     HB       HAL2     0.900000E-01   1.00800           0
     22646 MEMB     198      POPC     C2       CTL1     0.170000       12.0110           0
     22647 MEMB     198      POPC     HS       HAL1     0.900000E-01   1.00800           0
     22648 MEMB     198      POPC     O21      OSL     -0.490000       15.9994           0
     22649 MEMB     198      POPC     C21      CL       0.900000       12.0110           0
     22650 MEMB     198      POPC     O22      OBL     -0.630000       15.9994           0
     22651 MEMB     198      POPC     C22      CTL2    -0.220000       12.0110           0
     22652 MEMB     198      POPC     H2R      HAL2     0.900000E-01   1.00800           0
     22653 MEMB     198      POPC     H2S      HAL2     0.900000E-01   1.00800           0
     22654 MEMB     198      POPC     C3       CTL2     0.800000E-01   12.0110           0
     22655 MEMB     198      POPC     HX       HAL2     0.900000E-01   1.00800           0
     22656 MEMB     198      POPC     HY       HAL2     0.900000E-01   1.00800           0
     22657 MEMB     198      POPC     O31      OSL     -0.490000       15.9994           0
     22658 MEMB     198      POPC     C31      CL       0.900000       12.0110           0
     22659 MEMB     198      POPC     O32      OBL     -0.630000       15.9994           0
     22660 MEMB     198      POPC     C32      CTL2    -0.220000       12.0110           0
     22661 MEMB     198      POPC     H2X      HAL2     0.900000E-01   1.00800           0
     22662 MEMB     198      POPC     H2Y      HAL2     0.900000E-01   1.00800           0
     22663 MEMB     198      POPC     C23      CTL2    -0.180000       12.0110           0
     22664 MEMB     198      POPC     H3R      HAL2     0.900000E-01   1.00800           0
     22665 MEMB     198      POPC     H3S      HAL2     0.900000E-01   1.00800           0
     22666 MEMB     198      POPC     C24      CTL2    -0.180000       12.0110           0
     22667 MEMB     198      POPC     H4R      HAL2     0.900000E-01   1.00800           0
     22668 MEMB     198      POPC     H4S      HAL2     0.900000E-01   1.00800           0
     22669 MEMB     198      POPC     C25      CTL2    -0.180000       12.0110           0
     22670 MEMB     198      POPC     H5R      HAL2     0.900000E-01   1.00800           0
     22671 MEMB     198      POPC     H5S      HAL2     0.900000E-01   1.00800           0
     22672 MEMB     198      POPC     C26      CTL2    -0.180000       12.0110           0
     22673 MEMB     198      POPC     H6R      HAL2     0.900000E-01   1.00800           0
     22674 MEMB     198      POPC     H6S      HAL2     0.900000E-01   1.00800           0
     22675 MEMB     198      POPC     C27      CTL2    -0.180000       12.0110           0
     22676 MEMB     198      POPC     H7R      HAL2     0.900000E-01   1.00800           0
     22677 MEMB     198      POPC     H7S      HAL2     0.900000E-01   1.00800           0
     22678 MEMB     198      POPC     C28      CTL2    -0.180000       12.0110           0
     22679 MEMB     198      POPC     H8R      HAL2     0.900000E-01   1.00800           0
     22680 MEMB     198      POPC     H8S      HAL2     0.900000E-01   1.00800           0
     22681 MEMB     198      POPC     C29      CEL1    -0.150000       12.0110           0
     22682 MEMB     198      POPC     H91      HEL1     0.150000       1.00800           0
     22683 MEMB     198      POPC     C210     CEL1    -0.150000       12.0110           0
     22684 MEMB     198      POPC     H101     HEL1     0.150000       1.00800           0
     22685 MEMB     198      POPC     C211     CTL2    -0.180000       12.0110           0
     22686 MEMB     198      POPC     H11R     HAL2     0.900000E-01   1.00800           0
     22687 MEMB     198      POPC     H11S     HAL2     0.900000E-01   1.00800           0
     22688 MEMB     198      POPC     C212     CTL2    -0.180000       12.0110           0
     22689 MEMB     198      POPC     H12R     HAL2     0.900000E-01   1.00800           0
     22690 MEMB     198      POPC     H12S     HAL2     0.900000E-01   1.00800           0
     22691 MEMB     198      POPC     C213     CTL2    -0.180000       12.0110           0
     22692 MEMB     198      POPC     H13R     HAL2     0.900000E-01   1.00800           0
     22693 MEMB     198      POPC     H13S     HAL2     0.900000E-01   1.00800           0
     22694 MEMB     198      POPC     C214     CTL2    -0.180000       12.0110           0
     22695 MEMB     198      POPC     H14R     HAL2     0.900000E-01   1.00800           0
     22696 MEMB     198      POPC     H14S     HAL2     0.900000E-01   1.00800           0
     22697 MEMB     198      POPC     C215     CTL2    -0.180000       12.0110           0
     22698 MEMB     198      POPC     H15R     HAL2     0.900000E-01   1.00800           0
     22699 MEMB     198      POPC     H15S     HAL2     0.900000E-01   1.00800           0
     22700 MEMB     198      POPC     C216     CTL2    -0.180000       12.0110           0
     22701 MEMB     198      POPC     H16R     HAL2     0.900000E-01   1.00800           0
     22702 MEMB     198      POPC     H16S     HAL2     0.900000E-01   1.00800           0
     22703 MEMB     198      POPC     C217     CTL2    -0.180000       12.0110           0
     22704 MEMB     198      POPC     H17R     HAL2     0.900000E-01   1.00800           0
     22705 MEMB     198      POPC     H17S     HAL2     0.900000E-01   1.00800           0
     22706 MEMB     198      POPC     C218     CTL3    -0.270000       12.0110           0
     22707 MEMB     198      POPC     H18R     HAL3     0.900000E-01   1.00800           0
     22708 MEMB     198      POPC     H18S     HAL3     0.900000E-01   1.00800           0
     22709 MEMB     198      POPC     H18T     HAL3     0.900000E-01   1.00800           0
     22710 MEMB     198      POPC     C33      CTL2    -0.180000       12.0110           0
     22711 MEMB     198      POPC     H3X      HAL2     0.900000E-01   1.00800           0
     22712 MEMB     198      POPC     H3Y      HAL2     0.900000E-01   1.00800           0
     22713 MEMB     198      POPC     C34      CTL2    -0.180000       12.0110           0
     22714 MEMB     198      POPC     H4X      HAL2     0.900000E-01   1.00800           0
     22715 MEMB     198      POPC     H4Y      HAL2     0.900000E-01   1.00800           0
     22716 MEMB     198      POPC     C35      CTL2    -0.180000       12.0110           0
     22717 MEMB     198      POPC     H5X      HAL2     0.900000E-01   1.00800           0
     22718 MEMB     198      POPC     H5Y      HAL2     0.900000E-01   1.00800           0
     22719 MEMB     198      POPC     C36      CTL2    -0.180000       12.0110           0
     22720 MEMB     198      POPC     H6X      HAL2     0.900000E-01   1.00800           0
     22721 MEMB     198      POPC     H6Y      HAL2     0.900000E-01   1.00800           0
     22722 MEMB     198      POPC     C37      CTL2    -0.180000       12.0110           0
     22723 MEMB     198      POPC     H7X      HAL2     0.900000E-01   1.00800           0
     22724 MEMB     198      POPC     H7Y      HAL2     0.900000E-01   1.00800           0
     22725 MEMB     198      POPC     C38      CTL2    -0.180000       12.0110           0
     22726 MEMB     198      POPC     H8X      HAL2     0.900000E-01   1.00800           0
     22727 MEMB     198      POPC     H8Y      HAL2     0.900000E-01   1.00800           0
     22728 MEMB     198      POPC     C39      CTL2    -0.180000       12.0110           0
     22729 MEMB     198      POPC     H9X      HAL2     0.900000E-01   1.00800           0
     22730 MEMB     198      POPC     H9Y      HAL2     0.900000E-01   1.00800           0
     22731 MEMB     198      POPC     C310     CTL2    -0.180000       12.0110           0
     22732 MEMB     198      POPC     H10X     HAL2     0.900000E-01   1.00800           0
     22733 MEMB     198      POPC     H10Y     HAL2     0.900000E-01   1.00800           0
     22734 MEMB     198      POPC     C311     CTL2    -0.180000       12.0110           0
     22735 MEMB     198      POPC     H11X     HAL2     0.900000E-01   1.00800           0
     22736 MEMB     198      POPC     H11Y     HAL2     0.900000E-01   1.00800           0
     22737 MEMB     198      POPC     C312     CTL2    -0.180000       12.0110           0
     22738 MEMB     198      POPC     H12X     HAL2     0.900000E-01   1.00800           0
     22739 MEMB     198      POPC     H12Y     HAL2     0.900000E-01   1.00800           0
     22740 MEMB     198      POPC     C313     CTL2    -0.180000       12.0110           0
     22741 MEMB     198      POPC     H13X     HAL2     0.900000E-01   1.00800           0
     22742 MEMB     198      POPC     H13Y     HAL2     0.900000E-01   1.00800           0
     22743 MEMB     198      POPC     C314     CTL2    -0.180000       12.0110           0
     22744 MEMB     198      POPC     H14X     HAL2     0.900000E-01   1.00800           0
     22745 MEMB     198      POPC     H14Y     HAL2     0.900000E-01   1.00800           0
     22746 MEMB     198      POPC     C315     CTL2    -0.180000       12.0110           0
     22747 MEMB     198      POPC     H15X     HAL2     0.900000E-01   1.00800           0
     22748 MEMB     198      POPC     H15Y     HAL2     0.900000E-01   1.00800           0
     22749 MEMB     198      POPC     C316     CTL3    -0.270000       12.0110           0
     22750 MEMB     198      POPC     H16X     HAL3     0.900000E-01   1.00800           0
     22751 MEMB     198      POPC     H16Y     HAL3     0.900000E-01   1.00800           0
     22752 MEMB     198      POPC     H16Z     HAL3     0.900000E-01   1.00800           0
     22753 MEMB     199      POPC     N        NTL     -0.600000       14.0070           0
     22754 MEMB     199      POPC     C12      CTL2    -0.100000       12.0110           0
     22755 MEMB     199      POPC     H12A     HL       0.250000       1.00800           0
     22756 MEMB     199      POPC     H12B     HL       0.250000       1.00800           0
     22757 MEMB     199      POPC     C13      CTL5    -0.350000       12.0110           0
     22758 MEMB     199      POPC     H13A     HL       0.250000       1.00800           0
     22759 MEMB     199      POPC     H13B     HL       0.250000       1.00800           0
     22760 MEMB     199      POPC     H13C     HL       0.250000       1.00800           0
     22761 MEMB     199      POPC     C14      CTL5    -0.350000       12.0110           0
     22762 MEMB     199      POPC     H14A     HL       0.250000       1.00800           0
     22763 MEMB     199      POPC     H14B     HL       0.250000       1.00800           0
     22764 MEMB     199      POPC     H14C     HL       0.250000       1.00800           0
     22765 MEMB     199      POPC     C15      CTL5    -0.350000       12.0110           0
     22766 MEMB     199      POPC     H15A     HL       0.250000       1.00800           0
     22767 MEMB     199      POPC     H15B     HL       0.250000       1.00800           0
     22768 MEMB     199      POPC     H15C     HL       0.250000       1.00800           0
     22769 MEMB     199      POPC     C11      CTL2    -0.800000E-01   12.0110           0
     22770 MEMB     199      POPC     H11A     HAL2     0.900000E-01   1.00800           0
     22771 MEMB     199      POPC     H11B     HAL2     0.900000E-01   1.00800           0
     22772 MEMB     199      POPC     P        PL        1.50000       30.9740           0
     22773 MEMB     199      POPC     O13      O2L     -0.780000       15.9994           0
     22774 MEMB     199      POPC     O14      O2L     -0.780000       15.9994           0
     22775 MEMB     199      POPC     O12      OSLP    -0.570000       15.9994           0
     22776 MEMB     199      POPC     O11      OSLP    -0.570000       15.9994           0
     22777 MEMB     199      POPC     C1       CTL2    -0.800000E-01   12.0110           0
     22778 MEMB     199      POPC     HA       HAL2     0.900000E-01   1.00800           0
     22779 MEMB     199      POPC     HB       HAL2     0.900000E-01   1.00800           0
     22780 MEMB     199      POPC     C2       CTL1     0.170000       12.0110           0
     22781 MEMB     199      POPC     HS       HAL1     0.900000E-01   1.00800           0
     22782 MEMB     199      POPC     O21      OSL     -0.490000       15.9994           0
     22783 MEMB     199      POPC     C21      CL       0.900000       12.0110           0
     22784 MEMB     199      POPC     O22      OBL     -0.630000       15.9994           0
     22785 MEMB     199      POPC     C22      CTL2    -0.220000       12.0110           0
     22786 MEMB     199      POPC     H2R      HAL2     0.900000E-01   1.00800           0
     22787 MEMB     199      POPC     H2S      HAL2     0.900000E-01   1.00800           0
     22788 MEMB     199      POPC     C3       CTL2     0.800000E-01   12.0110           0
     22789 MEMB     199      POPC     HX       HAL2     0.900000E-01   1.00800           0
     22790 MEMB     199      POPC     HY       HAL2     0.900000E-01   1.00800           0
     22791 MEMB     199      POPC     O31      OSL     -0.490000       15.9994           0
     22792 MEMB     199      POPC     C31      CL       0.900000       12.0110           0
     22793 MEMB     199      POPC     O32      OBL     -0.630000       15.9994           0
     22794 MEMB     199      POPC     C32      CTL2    -0.220000       12.0110           0
     22795 MEMB     199      POPC     H2X      HAL2     0.900000E-01   1.00800           0
     22796 MEMB     199      POPC     H2Y      HAL2     0.900000E-01   1.00800           0
     22797 MEMB     199      POPC     C23      CTL2    -0.180000       12.0110           0
     22798 MEMB     199      POPC     H3R      HAL2     0.900000E-01   1.00800           0
     22799 MEMB     199      POPC     H3S      HAL2     0.900000E-01   1.00800           0
     22800 MEMB     199      POPC     C24      CTL2    -0.180000       12.0110           0
     22801 MEMB     199      POPC     H4R      HAL2     0.900000E-01   1.00800           0
     22802 MEMB     199      POPC     H4S      HAL2     0.900000E-01   1.00800           0
     22803 MEMB     199      POPC     C25      CTL2    -0.180000       12.0110           0
     22804 MEMB     199      POPC     H5R      HAL2     0.900000E-01   1.00800           0
     22805 MEMB     199      POPC     H5S      HAL2     0.900000E-01   1.00800           0
     22806 MEMB     199      POPC     C26      CTL2    -0.180000       12.0110           0
     22807 MEMB     199      POPC     H6R      HAL2     0.900000E-01   1.00800           0
     22808 MEMB     199      POPC     H6S      HAL2     0.900000E-01   1.00800           0
     22809 MEMB     199      POPC     C27      CTL2    -0.180000       12.0110           0
     22810 MEMB     199      POPC     H7R      HAL2     0.900000E-01   1.00800           0
     22811 MEMB     199      POPC     H7S      HAL2     0.900000E-01   1.00800           0
     22812 MEMB     199      POPC     C28      CTL2    -0.180000       12.0110           0
     22813 MEMB     199      POPC     H8R      HAL2     0.900000E-01   1.00800           0
     22814 MEMB     199      POPC     H8S      HAL2     0.900000E-01   1.00800           0
     22815 MEMB     199      POPC     C29      CEL1    -0.150000       12.0110           0
     22816 MEMB     199      POPC     H91      HEL1     0.150000       1.00800           0
     22817 MEMB     199      POPC     C210     CEL1    -0.150000       12.0110           0
     22818 MEMB     199      POPC     H101     HEL1     0.150000       1.00800           0
     22819 MEMB     199      POPC     C211     CTL2    -0.180000       12.0110           0
     22820 MEMB     199      POPC     H11R     HAL2     0.900000E-01   1.00800           0
     22821 MEMB     199      POPC     H11S     HAL2     0.900000E-01   1.00800           0
     22822 MEMB     199      POPC     C212     CTL2    -0.180000       12.0110           0
     22823 MEMB     199      POPC     H12R     HAL2     0.900000E-01   1.00800           0
     22824 MEMB     199      POPC     H12S     HAL2     0.900000E-01   1.00800           0
     22825 MEMB     199      POPC     C213     CTL2    -0.180000       12.0110           0
     22826 MEMB     199      POPC     H13R     HAL2     0.900000E-01   1.00800           0
     22827 MEMB     199      POPC     H13S     HAL2     0.900000E-01   1.00800           0
     22828 MEMB     199      POPC     C214     CTL2    -0.180000       12.0110           0
     22829 MEMB     199      POPC     H14R     HAL2     0.900000E-01   1.00800           0
     22830 MEMB     199      POPC     H14S     HAL2     0.900000E-01   1.00800           0
     22831 MEMB     199      POPC     C215     CTL2    -0.180000       12.0110           0
     22832 MEMB     199      POPC     H15R     HAL2     0.900000E-01   1.00800           0
     22833 MEMB     199      POPC     H15S     HAL2     0.900000E-01   1.00800           0
     22834 MEMB     199      POPC     C216     CTL2    -0.180000       12.0110           0
     22835 MEMB     199      POPC     H16R     HAL2     0.900000E-01   1.00800           0
     22836 MEMB     199      POPC     H16S     HAL2     0.900000E-01   1.00800           0
     22837 MEMB     199      POPC     C217     CTL2    -0.180000       12.0110           0
     22838 MEMB     199      POPC     H17R     HAL2     0.900000E-01   1.00800           0
     22839 MEMB     199      POPC     H17S     HAL2     0.900000E-01   1.00800           0
     22840 MEMB     199      POPC     C218     CTL3    -0.270000       12.0110           0
     22841 MEMB     199      POPC     H18R     HAL3     0.900000E-01   1.00800           0
     22842 MEMB     199      POPC     H18S     HAL3     0.900000E-01   1.00800           0
     22843 MEMB     199      POPC     H18T     HAL3     0.900000E-01   1.00800           0
     22844 MEMB     199      POPC     C33      CTL2    -0.180000       12.0110           0
     22845 MEMB     199      POPC     H3X      HAL2     0.900000E-01   1.00800           0
     22846 MEMB     199      POPC     H3Y      HAL2     0.900000E-01   1.00800           0
     22847 MEMB     199      POPC     C34      CTL2    -0.180000       12.0110           0
     22848 MEMB     199      POPC     H4X      HAL2     0.900000E-01   1.00800           0
     22849 MEMB     199      POPC     H4Y      HAL2     0.900000E-01   1.00800           0
     22850 MEMB     199      POPC     C35      CTL2    -0.180000       12.0110           0
     22851 MEMB     199      POPC     H5X      HAL2     0.900000E-01   1.00800           0
     22852 MEMB     199      POPC     H5Y      HAL2     0.900000E-01   1.00800           0
     22853 MEMB     199      POPC     C36      CTL2    -0.180000       12.0110           0
     22854 MEMB     199      POPC     H6X      HAL2     0.900000E-01   1.00800           0
     22855 MEMB     199      POPC     H6Y      HAL2     0.900000E-01   1.00800           0
     22856 MEMB     199      POPC     C37      CTL2    -0.180000       12.0110           0
     22857 MEMB     199      POPC     H7X      HAL2     0.900000E-01   1.00800           0
     22858 MEMB     199      POPC     H7Y      HAL2     0.900000E-01   1.00800           0
     22859 MEMB     199      POPC     C38      CTL2    -0.180000       12.0110           0
     22860 MEMB     199      POPC     H8X      HAL2     0.900000E-01   1.00800           0
     22861 MEMB     199      POPC     H8Y      HAL2     0.900000E-01   1.00800           0
     22862 MEMB     199      POPC     C39      CTL2    -0.180000       12.0110           0
     22863 MEMB     199      POPC     H9X      HAL2     0.900000E-01   1.00800           0
     22864 MEMB     199      POPC     H9Y      HAL2     0.900000E-01   1.00800           0
     22865 MEMB     199      POPC     C310     CTL2    -0.180000       12.0110           0
     22866 MEMB     199      POPC     H10X     HAL2     0.900000E-01   1.00800           0
     22867 MEMB     199      POPC     H10Y     HAL2     0.900000E-01   1.00800           0
     22868 MEMB     199      POPC     C311     CTL2    -0.180000       12.0110           0
     22869 MEMB     199      POPC     H11X     HAL2     0.900000E-01   1.00800           0
     22870 MEMB     199      POPC     H11Y     HAL2     0.900000E-01   1.00800           0
     22871 MEMB     199      POPC     C312     CTL2    -0.180000       12.0110           0
     22872 MEMB     199      POPC     H12X     HAL2     0.900000E-01   1.00800           0
     22873 MEMB     199      POPC     H12Y     HAL2     0.900000E-01   1.00800           0
     22874 MEMB     199      POPC     C313     CTL2    -0.180000       12.0110           0
     22875 MEMB     199      POPC     H13X     HAL2     0.900000E-01   1.00800           0
     22876 MEMB     199      POPC     H13Y     HAL2     0.900000E-01   1.00800           0
     22877 MEMB     199      POPC     C314     CTL2    -0.180000       12.0110           0
     22878 MEMB     199      POPC     H14X     HAL2     0.900000E-01   1.00800           0
     22879 MEMB     199      POPC     H14Y     HAL2     0.900000E-01   1.00800           0
     22880 MEMB     199      POPC     C315     CTL2    -0.180000       12.0110           0
     22881 MEMB     199      POPC     H15X     HAL2     0.900000E-01   1.00800           0
     22882 MEMB     199      POPC     H15Y     HAL2     0.900000E-01   1.00800           0
     22883 MEMB     199      POPC     C316     CTL3    -0.270000       12.0110           0
     22884 MEMB     199      POPC     H16X     HAL3     0.900000E-01   1.00800           0
     22885 MEMB     199      POPC     H16Y     HAL3     0.900000E-01   1.00800           0
     22886 MEMB     199      POPC     H16Z     HAL3     0.900000E-01   1.00800           0
     22887 MEMB     200      POPC     N        NTL     -0.600000       14.0070           0
     22888 MEMB     200      POPC     C12      CTL2    -0.100000       12.0110           0
     22889 MEMB     200      POPC     H12A     HL       0.250000       1.00800           0
     22890 MEMB     200      POPC     H12B     HL       0.250000       1.00800           0
     22891 MEMB     200      POPC     C13      CTL5    -0.350000       12.0110           0
     22892 MEMB     200      POPC     H13A     HL       0.250000       1.00800           0
     22893 MEMB     200      POPC     H13B     HL       0.250000       1.00800           0
     22894 MEMB     200      POPC     H13C     HL       0.250000       1.00800           0
     22895 MEMB     200      POPC     C14      CTL5    -0.350000       12.0110           0
     22896 MEMB     200      POPC     H14A     HL       0.250000       1.00800           0
     22897 MEMB     200      POPC     H14B     HL       0.250000       1.00800           0
     22898 MEMB     200      POPC     H14C     HL       0.250000       1.00800           0
     22899 MEMB     200      POPC     C15      CTL5    -0.350000       12.0110           0
     22900 MEMB     200      POPC     H15A     HL       0.250000       1.00800           0
     22901 MEMB     200      POPC     H15B     HL       0.250000       1.00800           0
     22902 MEMB     200      POPC     H15C     HL       0.250000       1.00800           0
     22903 MEMB     200      POPC     C11      CTL2    -0.800000E-01   12.0110           0
     22904 MEMB     200      POPC     H11A     HAL2     0.900000E-01   1.00800           0
     22905 MEMB     200      POPC     H11B     HAL2     0.900000E-01   1.00800           0
     22906 MEMB     200      POPC     P        PL        1.50000       30.9740           0
     22907 MEMB     200      POPC     O13      O2L     -0.780000       15.9994           0
     22908 MEMB     200      POPC     O14      O2L     -0.780000       15.9994           0
     22909 MEMB     200      POPC     O12      OSLP    -0.570000       15.9994           0
     22910 MEMB     200      POPC     O11      OSLP    -0.570000       15.9994           0
     22911 MEMB     200      POPC     C1       CTL2    -0.800000E-01   12.0110           0
     22912 MEMB     200      POPC     HA       HAL2     0.900000E-01   1.00800           0
     22913 MEMB     200      POPC     HB       HAL2     0.900000E-01   1.00800           0
     22914 MEMB     200      POPC     C2       CTL1     0.170000       12.0110           0
     22915 MEMB     200      POPC     HS       HAL1     0.900000E-01   1.00800           0
     22916 MEMB     200      POPC     O21      OSL     -0.490000       15.9994           0
     22917 MEMB     200      POPC     C21      CL       0.900000       12.0110           0
     22918 MEMB     200      POPC     O22      OBL     -0.630000       15.9994           0
     22919 MEMB     200      POPC     C22      CTL2    -0.220000       12.0110           0
     22920 MEMB     200      POPC     H2R      HAL2     0.900000E-01   1.00800           0
     22921 MEMB     200      POPC     H2S      HAL2     0.900000E-01   1.00800           0
     22922 MEMB     200      POPC     C3       CTL2     0.800000E-01   12.0110           0
     22923 MEMB     200      POPC     HX       HAL2     0.900000E-01   1.00800           0
     22924 MEMB     200      POPC     HY       HAL2     0.900000E-01   1.00800           0
     22925 MEMB     200      POPC     O31      OSL     -0.490000       15.9994           0
     22926 MEMB     200      POPC     C31      CL       0.900000       12.0110           0
     22927 MEMB     200      POPC     O32      OBL     -0.630000       15.9994           0
     22928 MEMB     200      POPC     C32      CTL2    -0.220000       12.0110           0
     22929 MEMB     200      POPC     H2X      HAL2     0.900000E-01   1.00800           0
     22930 MEMB     200      POPC     H2Y      HAL2     0.900000E-01   1.00800           0
     22931 MEMB     200      POPC     C23      CTL2    -0.180000       12.0110           0
     22932 MEMB     200      POPC     H3R      HAL2     0.900000E-01   1.00800           0
     22933 MEMB     200      POPC     H3S      HAL2     0.900000E-01   1.00800           0
     22934 MEMB     200      POPC     C24      CTL2    -0.180000       12.0110           0
     22935 MEMB     200      POPC     H4R      HAL2     0.900000E-01   1.00800           0
     22936 MEMB     200      POPC     H4S      HAL2     0.900000E-01   1.00800           0
     22937 MEMB     200      POPC     C25      CTL2    -0.180000       12.0110           0
     22938 MEMB     200      POPC     H5R      HAL2     0.900000E-01   1.00800           0
     22939 MEMB     200      POPC     H5S      HAL2     0.900000E-01   1.00800           0
     22940 MEMB     200      POPC     C26      CTL2    -0.180000       12.0110           0
     22941 MEMB     200      POPC     H6R      HAL2     0.900000E-01   1.00800           0
     22942 MEMB     200      POPC     H6S      HAL2     0.900000E-01   1.00800           0
     22943 MEMB     200      POPC     C27      CTL2    -0.180000       12.0110           0
     22944 MEMB     200      POPC     H7R      HAL2     0.900000E-01   1.00800           0
     22945 MEMB     200      POPC     H7S      HAL2     0.900000E-01   1.00800           0
     22946 MEMB     200      POPC     C28      CTL2    -0.180000       12.0110           0
     22947 MEMB     200      POPC     H8R      HAL2     0.900000E-01   1.00800           0
     22948 MEMB     200      POPC     H8S      HAL2     0.900000E-01   1.00800           0
     22949 MEMB     200      POPC     C29      CEL1    -0.150000       12.0110           0
     22950 MEMB     200      POPC     H91      HEL1     0.150000       1.00800           0
     22951 MEMB     200      POPC     C210     CEL1    -0.150000       12.0110           0
     22952 MEMB     200      POPC     H101     HEL1     0.150000       1.00800           0
     22953 MEMB     200      POPC     C211     CTL2    -0.180000       12.0110           0
     22954 MEMB     200      POPC     H11R     HAL2     0.900000E-01   1.00800           0
     22955 MEMB     200      POPC     H11S     HAL2     0.900000E-01   1.00800           0
     22956 MEMB     200      POPC     C212     CTL2    -0.180000       12.0110           0
     22957 MEMB     200      POPC     H12R     HAL2     0.900000E-01   1.00800           0
     22958 MEMB     200      POPC     H12S     HAL2     0.900000E-01   1.00800           0
     22959 MEMB     200      POPC     C213     CTL2    -0.180000       12.0110           0
     22960 MEMB     200      POPC     H13R     HAL2     0.900000E-01   1.00800           0
     22961 MEMB     200      POPC     H13S     HAL2     0.900000E-01   1.00800           0
     22962 MEMB     200      POPC     C214     CTL2    -0.180000       12.0110           0
     22963 MEMB     200      POPC     H14R     HAL2     0.900000E-01   1.00800           0
     22964 MEMB     200      POPC     H14S     HAL2     0.900000E-01   1.00800           0
     22965 MEMB     200      POPC     C215     CTL2    -0.180000       12.0110           0
     22966 MEMB     200      POPC     H15R     HAL2     0.900000E-01   1.00800           0
     22967 MEMB     200      POPC     H15S     HAL2     0.900000E-01   1.00800           0
     22968 MEMB     200      POPC     C216     CTL2    -0.180000       12.0110           0
     22969 MEMB     200      POPC     H16R     HAL2     0.900000E-01   1.00800           0
     22970 MEMB     200      POPC     H16S     HAL2     0.900000E-01   1.00800           0
     22971 MEMB     200      POPC     C217     CTL2    -0.180000       12.0110           0
     22972 MEMB     200      POPC     H17R     HAL2     0.900000E-01   1.00800           0
     22973 MEMB     200      POPC     H17S     HAL2     0.900000E-01   1.00800           0
     22974 MEMB     200      POPC     C218     CTL3    -0.270000       12.0110           0
     22975 MEMB     200      POPC     H18R     HAL3     0.900000E-01   1.00800           0
     22976 MEMB     200      POPC     H18S     HAL3     0.900000E-01   1.00800           0
     22977 MEMB     200      POPC     H18T     HAL3     0.900000E-01   1.00800           0
     22978 MEMB     200      POPC     C33      CTL2    -0.180000       12.0110           0
     22979 MEMB     200      POPC     H3X      HAL2     0.900000E-01   1.00800           0
     22980 MEMB     200      POPC     H3Y      HAL2     0.900000E-01   1.00800           0
     22981 MEMB     200      POPC     C34      CTL2    -0.180000       12.0110           0
     22982 MEMB     200      POPC     H4X      HAL2     0.900000E-01   1.00800           0
     22983 MEMB     200      POPC     H4Y      HAL2     0.900000E-01   1.00800           0
     22984 MEMB     200      POPC     C35      CTL2    -0.180000       12.0110           0
     22985 MEMB     200      POPC     H5X      HAL2     0.900000E-01   1.00800           0
     22986 MEMB     200      POPC     H5Y      HAL2     0.900000E-01   1.00800           0
     22987 MEMB     200      POPC     C36      CTL2    -0.180000       12.0110           0
     22988 MEMB     200      POPC     H6X      HAL2     0.900000E-01   1.00800           0
     22989 MEMB     200      POPC     H6Y      HAL2     0.900000E-01   1.00800           0
     22990 MEMB     200      POPC     C37      CTL2    -0.180000       12.0110           0
     22991 MEMB     200      POPC     H7X      HAL2     0.900000E-01   1.00800           0
     22992 MEMB     200      POPC     H7Y      HAL2     0.900000E-01   1.00800           0
     22993 MEMB     200      POPC     C38      CTL2    -0.180000       12.0110           0
     22994 MEMB     200      POPC     H8X      HAL2     0.900000E-01   1.00800           0
     22995 MEMB     200      POPC     H8Y      HAL2     0.900000E-01   1.00800           0
     22996 MEMB     200      POPC     C39      CTL2    -0.180000       12.0110           0
     22997 MEMB     200      POPC     H9X      HAL2     0.900000E-01   1.00800           0
     22998 MEMB     200      POPC     H9Y      HAL2     0.900000E-01   1.00800           0
     22999 MEMB     200      POPC     C310     CTL2    -0.180000       12.0110           0
     23000 MEMB     200      POPC     H10X     HAL2     0.900000E-01   1.00800           0
     23001 MEMB     200      POPC     H10Y     HAL2     0.900000E-01   1.00800           0
     23002 MEMB     200      POPC     C311     CTL2    -0.180000       12.0110           0
     23003 MEMB     200      POPC     H11X     HAL2     0.900000E-01   1.00800           0
     23004 MEMB     200      POPC     H11Y     HAL2     0.900000E-01   1.00800           0
     23005 MEMB     200      POPC     C312     CTL2    -0.180000       12.0110           0
     23006 MEMB     200      POPC     H12X     HAL2     0.900000E-01   1.00800           0
     23007 MEMB     200      POPC     H12Y     HAL2     0.900000E-01   1.00800           0
     23008 MEMB     200      POPC     C313     CTL2    -0.180000       12.0110           0
     23009 MEMB     200      POPC     H13X     HAL2     0.900000E-01   1.00800           0
     23010 MEMB     200      POPC     H13Y     HAL2     0.900000E-01   1.00800           0
     23011 MEMB     200      POPC     C314     CTL2    -0.180000       12.0110           0
     23012 MEMB     200      POPC     H14X     HAL2     0.900000E-01   1.00800           0
     23013 MEMB     200      POPC     H14Y     HAL2     0.900000E-01   1.00800           0
     23014 MEMB     200      POPC     C315     CTL2    -0.180000       12.0110           0
     23015 MEMB     200      POPC     H15X     HAL2     0.900000E-01   1.00800           0
     23016 MEMB     200      POPC     H15Y     HAL2     0.900000E-01   1.00800           0
     23017 MEMB     200      POPC     C316     CTL3    -0.270000       12.0110           0
     23018 MEMB     200      POPC     H16X     HAL3     0.900000E-01   1.00800           0
     23019 MEMB     200      POPC     H16Y     HAL3     0.900000E-01   1.00800           0
     23020 MEMB     200      POPC     H16Z     HAL3     0.900000E-01   1.00800           0
     23021 MEMB     201      POPC     N        NTL     -0.600000       14.0070           0
     23022 MEMB     201      POPC     C12      CTL2    -0.100000       12.0110           0
     23023 MEMB     201      POPC     H12A     HL       0.250000       1.00800           0
     23024 MEMB     201      POPC     H12B     HL       0.250000       1.00800           0
     23025 MEMB     201      POPC     C13      CTL5    -0.350000       12.0110           0
     23026 MEMB     201      POPC     H13A     HL       0.250000       1.00800           0
     23027 MEMB     201      POPC     H13B     HL       0.250000       1.00800           0
     23028 MEMB     201      POPC     H13C     HL       0.250000       1.00800           0
     23029 MEMB     201      POPC     C14      CTL5    -0.350000       12.0110           0
     23030 MEMB     201      POPC     H14A     HL       0.250000       1.00800           0
     23031 MEMB     201      POPC     H14B     HL       0.250000       1.00800           0
     23032 MEMB     201      POPC     H14C     HL       0.250000       1.00800           0
     23033 MEMB     201      POPC     C15      CTL5    -0.350000       12.0110           0
     23034 MEMB     201      POPC     H15A     HL       0.250000       1.00800           0
     23035 MEMB     201      POPC     H15B     HL       0.250000       1.00800           0
     23036 MEMB     201      POPC     H15C     HL       0.250000       1.00800           0
     23037 MEMB     201      POPC     C11      CTL2    -0.800000E-01   12.0110           0
     23038 MEMB     201      POPC     H11A     HAL2     0.900000E-01   1.00800           0
     23039 MEMB     201      POPC     H11B     HAL2     0.900000E-01   1.00800           0
     23040 MEMB     201      POPC     P        PL        1.50000       30.9740           0
     23041 MEMB     201      POPC     O13      O2L     -0.780000       15.9994           0
     23042 MEMB     201      POPC     O14      O2L     -0.780000       15.9994           0
     23043 MEMB     201      POPC     O12      OSLP    -0.570000       15.9994           0
     23044 MEMB     201      POPC     O11      OSLP    -0.570000       15.9994           0
     23045 MEMB     201      POPC     C1       CTL2    -0.800000E-01   12.0110           0
     23046 MEMB     201      POPC     HA       HAL2     0.900000E-01   1.00800           0
     23047 MEMB     201      POPC     HB       HAL2     0.900000E-01   1.00800           0
     23048 MEMB     201      POPC     C2       CTL1     0.170000       12.0110           0
     23049 MEMB     201      POPC     HS       HAL1     0.900000E-01   1.00800           0
     23050 MEMB     201      POPC     O21      OSL     -0.490000       15.9994           0
     23051 MEMB     201      POPC     C21      CL       0.900000       12.0110           0
     23052 MEMB     201      POPC     O22      OBL     -0.630000       15.9994           0
     23053 MEMB     201      POPC     C22      CTL2    -0.220000       12.0110           0
     23054 MEMB     201      POPC     H2R      HAL2     0.900000E-01   1.00800           0
     23055 MEMB     201      POPC     H2S      HAL2     0.900000E-01   1.00800           0
     23056 MEMB     201      POPC     C3       CTL2     0.800000E-01   12.0110           0
     23057 MEMB     201      POPC     HX       HAL2     0.900000E-01   1.00800           0
     23058 MEMB     201      POPC     HY       HAL2     0.900000E-01   1.00800           0
     23059 MEMB     201      POPC     O31      OSL     -0.490000       15.9994           0
     23060 MEMB     201      POPC     C31      CL       0.900000       12.0110           0
     23061 MEMB     201      POPC     O32      OBL     -0.630000       15.9994           0
     23062 MEMB     201      POPC     C32      CTL2    -0.220000       12.0110           0
     23063 MEMB     201      POPC     H2X      HAL2     0.900000E-01   1.00800           0
     23064 MEMB     201      POPC     H2Y      HAL2     0.900000E-01   1.00800           0
     23065 MEMB     201      POPC     C23      CTL2    -0.180000       12.0110           0
     23066 MEMB     201      POPC     H3R      HAL2     0.900000E-01   1.00800           0
     23067 MEMB     201      POPC     H3S      HAL2     0.900000E-01   1.00800           0
     23068 MEMB     201      POPC     C24      CTL2    -0.180000       12.0110           0
     23069 MEMB     201      POPC     H4R      HAL2     0.900000E-01   1.00800           0
     23070 MEMB     201      POPC     H4S      HAL2     0.900000E-01   1.00800           0
     23071 MEMB     201      POPC     C25      CTL2    -0.180000       12.0110           0
     23072 MEMB     201      POPC     H5R      HAL2     0.900000E-01   1.00800           0
     23073 MEMB     201      POPC     H5S      HAL2     0.900000E-01   1.00800           0
     23074 MEMB     201      POPC     C26      CTL2    -0.180000       12.0110           0
     23075 MEMB     201      POPC     H6R      HAL2     0.900000E-01   1.00800           0
     23076 MEMB     201      POPC     H6S      HAL2     0.900000E-01   1.00800           0
     23077 MEMB     201      POPC     C27      CTL2    -0.180000       12.0110           0
     23078 MEMB     201      POPC     H7R      HAL2     0.900000E-01   1.00800           0
     23079 MEMB     201      POPC     H7S      HAL2     0.900000E-01   1.00800           0
     23080 MEMB     201      POPC     C28      CTL2    -0.180000       12.0110           0
     23081 MEMB     201      POPC     H8R      HAL2     0.900000E-01   1.00800           0
     23082 MEMB     201      POPC     H8S      HAL2     0.900000E-01   1.00800           0
     23083 MEMB     201      POPC     C29      CEL1    -0.150000       12.0110           0
     23084 MEMB     201      POPC     H91      HEL1     0.150000       1.00800           0
     23085 MEMB     201      POPC     C210     CEL1    -0.150000       12.0110           0
     23086 MEMB     201      POPC     H101     HEL1     0.150000       1.00800           0
     23087 MEMB     201      POPC     C211     CTL2    -0.180000       12.0110           0
     23088 MEMB     201      POPC     H11R     HAL2     0.900000E-01   1.00800           0
     23089 MEMB     201      POPC     H11S     HAL2     0.900000E-01   1.00800           0
     23090 MEMB     201      POPC     C212     CTL2    -0.180000       12.0110           0
     23091 MEMB     201      POPC     H12R     HAL2     0.900000E-01   1.00800           0
     23092 MEMB     201      POPC     H12S     HAL2     0.900000E-01   1.00800           0
     23093 MEMB     201      POPC     C213     CTL2    -0.180000       12.0110           0
     23094 MEMB     201      POPC     H13R     HAL2     0.900000E-01   1.00800           0
     23095 MEMB     201      POPC     H13S     HAL2     0.900000E-01   1.00800           0
     23096 MEMB     201      POPC     C214     CTL2    -0.180000       12.0110           0
     23097 MEMB     201      POPC     H14R     HAL2     0.900000E-01   1.00800           0
     23098 MEMB     201      POPC     H14S     HAL2     0.900000E-01   1.00800           0
     23099 MEMB     201      POPC     C215     CTL2    -0.180000       12.0110           0
     23100 MEMB     201      POPC     H15R     HAL2     0.900000E-01   1.00800           0
     23101 MEMB     201      POPC     H15S     HAL2     0.900000E-01   1.00800           0
     23102 MEMB     201      POPC     C216     CTL2    -0.180000       12.0110           0
     23103 MEMB     201      POPC     H16R     HAL2     0.900000E-01   1.00800           0
     23104 MEMB     201      POPC     H16S     HAL2     0.900000E-01   1.00800           0
     23105 MEMB     201      POPC     C217     CTL2    -0.180000       12.0110           0
     23106 MEMB     201      POPC     H17R     HAL2     0.900000E-01   1.00800           0
     23107 MEMB     201      POPC     H17S     HAL2     0.900000E-01   1.00800           0
     23108 MEMB     201      POPC     C218     CTL3    -0.270000       12.0110           0
     23109 MEMB     201      POPC     H18R     HAL3     0.900000E-01   1.00800           0
     23110 MEMB     201      POPC     H18S     HAL3     0.900000E-01   1.00800           0
     23111 MEMB     201      POPC     H18T     HAL3     0.900000E-01   1.00800           0
     23112 MEMB     201      POPC     C33      CTL2    -0.180000       12.0110           0
     23113 MEMB     201      POPC     H3X      HAL2     0.900000E-01   1.00800           0
     23114 MEMB     201      POPC     H3Y      HAL2     0.900000E-01   1.00800           0
     23115 MEMB     201      POPC     C34      CTL2    -0.180000       12.0110           0
     23116 MEMB     201      POPC     H4X      HAL2     0.900000E-01   1.00800           0
     23117 MEMB     201      POPC     H4Y      HAL2     0.900000E-01   1.00800           0
     23118 MEMB     201      POPC     C35      CTL2    -0.180000       12.0110           0
     23119 MEMB     201      POPC     H5X      HAL2     0.900000E-01   1.00800           0
     23120 MEMB     201      POPC     H5Y      HAL2     0.900000E-01   1.00800           0
     23121 MEMB     201      POPC     C36      CTL2    -0.180000       12.0110           0
     23122 MEMB     201      POPC     H6X      HAL2     0.900000E-01   1.00800           0
     23123 MEMB     201      POPC     H6Y      HAL2     0.900000E-01   1.00800           0
     23124 MEMB     201      POPC     C37      CTL2    -0.180000       12.0110           0
     23125 MEMB     201      POPC     H7X      HAL2     0.900000E-01   1.00800           0
     23126 MEMB     201      POPC     H7Y      HAL2     0.900000E-01   1.00800           0
     23127 MEMB     201      POPC     C38      CTL2    -0.180000       12.0110           0
     23128 MEMB     201      POPC     H8X      HAL2     0.900000E-01   1.00800           0
     23129 MEMB     201      POPC     H8Y      HAL2     0.900000E-01   1.00800           0
     23130 MEMB     201      POPC     C39      CTL2    -0.180000       12.0110           0
     23131 MEMB     201      POPC     H9X      HAL2     0.900000E-01   1.00800           0
     23132 MEMB     201      POPC     H9Y      HAL2     0.900000E-01   1.00800           0
     23133 MEMB     201      POPC     C310     CTL2    -0.180000       12.0110           0
     23134 MEMB     201      POPC     H10X     HAL2     0.900000E-01   1.00800           0
     23135 MEMB     201      POPC     H10Y     HAL2     0.900000E-01   1.00800           0
     23136 MEMB     201      POPC     C311     CTL2    -0.180000       12.0110           0
     23137 MEMB     201      POPC     H11X     HAL2     0.900000E-01   1.00800           0
     23138 MEMB     201      POPC     H11Y     HAL2     0.900000E-01   1.00800           0
     23139 MEMB     201      POPC     C312     CTL2    -0.180000       12.0110           0
     23140 MEMB     201      POPC     H12X     HAL2     0.900000E-01   1.00800           0
     23141 MEMB     201      POPC     H12Y     HAL2     0.900000E-01   1.00800           0
     23142 MEMB     201      POPC     C313     CTL2    -0.180000       12.0110           0
     23143 MEMB     201      POPC     H13X     HAL2     0.900000E-01   1.00800           0
     23144 MEMB     201      POPC     H13Y     HAL2     0.900000E-01   1.00800           0
     23145 MEMB     201      POPC     C314     CTL2    -0.180000       12.0110           0
     23146 MEMB     201      POPC     H14X     HAL2     0.900000E-01   1.00800           0
     23147 MEMB     201      POPC     H14Y     HAL2     0.900000E-01   1.00800           0
     23148 MEMB     201      POPC     C315     CTL2    -0.180000       12.0110           0
     23149 MEMB     201      POPC     H15X     HAL2     0.900000E-01   1.00800           0
     23150 MEMB     201      POPC     H15Y     HAL2     0.900000E-01   1.00800           0
     23151 MEMB     201      POPC     C316     CTL3    -0.270000       12.0110           0
     23152 MEMB     201      POPC     H16X     HAL3     0.900000E-01   1.00800           0
     23153 MEMB     201      POPC     H16Y     HAL3     0.900000E-01   1.00800           0
     23154 MEMB     201      POPC     H16Z     HAL3     0.900000E-01   1.00800           0
     23155 MEMB     202      POPC     N        NTL     -0.600000       14.0070           0
     23156 MEMB     202      POPC     C12      CTL2    -0.100000       12.0110           0
     23157 MEMB     202      POPC     H12A     HL       0.250000       1.00800           0
     23158 MEMB     202      POPC     H12B     HL       0.250000       1.00800           0
     23159 MEMB     202      POPC     C13      CTL5    -0.350000       12.0110           0
     23160 MEMB     202      POPC     H13A     HL       0.250000       1.00800           0
     23161 MEMB     202      POPC     H13B     HL       0.250000       1.00800           0
     23162 MEMB     202      POPC     H13C     HL       0.250000       1.00800           0
     23163 MEMB     202      POPC     C14      CTL5    -0.350000       12.0110           0
     23164 MEMB     202      POPC     H14A     HL       0.250000       1.00800           0
     23165 MEMB     202      POPC     H14B     HL       0.250000       1.00800           0
     23166 MEMB     202      POPC     H14C     HL       0.250000       1.00800           0
     23167 MEMB     202      POPC     C15      CTL5    -0.350000       12.0110           0
     23168 MEMB     202      POPC     H15A     HL       0.250000       1.00800           0
     23169 MEMB     202      POPC     H15B     HL       0.250000       1.00800           0
     23170 MEMB     202      POPC     H15C     HL       0.250000       1.00800           0
     23171 MEMB     202      POPC     C11      CTL2    -0.800000E-01   12.0110           0
     23172 MEMB     202      POPC     H11A     HAL2     0.900000E-01   1.00800           0
     23173 MEMB     202      POPC     H11B     HAL2     0.900000E-01   1.00800           0
     23174 MEMB     202      POPC     P        PL        1.50000       30.9740           0
     23175 MEMB     202      POPC     O13      O2L     -0.780000       15.9994           0
     23176 MEMB     202      POPC     O14      O2L     -0.780000       15.9994           0
     23177 MEMB     202      POPC     O12      OSLP    -0.570000       15.9994           0
     23178 MEMB     202      POPC     O11      OSLP    -0.570000       15.9994           0
     23179 MEMB     202      POPC     C1       CTL2    -0.800000E-01   12.0110           0
     23180 MEMB     202      POPC     HA       HAL2     0.900000E-01   1.00800           0
     23181 MEMB     202      POPC     HB       HAL2     0.900000E-01   1.00800           0
     23182 MEMB     202      POPC     C2       CTL1     0.170000       12.0110           0
     23183 MEMB     202      POPC     HS       HAL1     0.900000E-01   1.00800           0
     23184 MEMB     202      POPC     O21      OSL     -0.490000       15.9994           0
     23185 MEMB     202      POPC     C21      CL       0.900000       12.0110           0
     23186 MEMB     202      POPC     O22      OBL     -0.630000       15.9994           0
     23187 MEMB     202      POPC     C22      CTL2    -0.220000       12.0110           0
     23188 MEMB     202      POPC     H2R      HAL2     0.900000E-01   1.00800           0
     23189 MEMB     202      POPC     H2S      HAL2     0.900000E-01   1.00800           0
     23190 MEMB     202      POPC     C3       CTL2     0.800000E-01   12.0110           0
     23191 MEMB     202      POPC     HX       HAL2     0.900000E-01   1.00800           0
     23192 MEMB     202      POPC     HY       HAL2     0.900000E-01   1.00800           0
     23193 MEMB     202      POPC     O31      OSL     -0.490000       15.9994           0
     23194 MEMB     202      POPC     C31      CL       0.900000       12.0110           0
     23195 MEMB     202      POPC     O32      OBL     -0.630000       15.9994           0
     23196 MEMB     202      POPC     C32      CTL2    -0.220000       12.0110           0
     23197 MEMB     202      POPC     H2X      HAL2     0.900000E-01   1.00800           0
     23198 MEMB     202      POPC     H2Y      HAL2     0.900000E-01   1.00800           0
     23199 MEMB     202      POPC     C23      CTL2    -0.180000       12.0110           0
     23200 MEMB     202      POPC     H3R      HAL2     0.900000E-01   1.00800           0
     23201 MEMB     202      POPC     H3S      HAL2     0.900000E-01   1.00800           0
     23202 MEMB     202      POPC     C24      CTL2    -0.180000       12.0110           0
     23203 MEMB     202      POPC     H4R      HAL2     0.900000E-01   1.00800           0
     23204 MEMB     202      POPC     H4S      HAL2     0.900000E-01   1.00800           0
     23205 MEMB     202      POPC     C25      CTL2    -0.180000       12.0110           0
     23206 MEMB     202      POPC     H5R      HAL2     0.900000E-01   1.00800           0
     23207 MEMB     202      POPC     H5S      HAL2     0.900000E-01   1.00800           0
     23208 MEMB     202      POPC     C26      CTL2    -0.180000       12.0110           0
     23209 MEMB     202      POPC     H6R      HAL2     0.900000E-01   1.00800           0
     23210 MEMB     202      POPC     H6S      HAL2     0.900000E-01   1.00800           0
     23211 MEMB     202      POPC     C27      CTL2    -0.180000       12.0110           0
     23212 MEMB     202      POPC     H7R      HAL2     0.900000E-01   1.00800           0
     23213 MEMB     202      POPC     H7S      HAL2     0.900000E-01   1.00800           0
     23214 MEMB     202      POPC     C28      CTL2    -0.180000       12.0110           0
     23215 MEMB     202      POPC     H8R      HAL2     0.900000E-01   1.00800           0
     23216 MEMB     202      POPC     H8S      HAL2     0.900000E-01   1.00800           0
     23217 MEMB     202      POPC     C29      CEL1    -0.150000       12.0110           0
     23218 MEMB     202      POPC     H91      HEL1     0.150000       1.00800           0
     23219 MEMB     202      POPC     C210     CEL1    -0.150000       12.0110           0
     23220 MEMB     202      POPC     H101     HEL1     0.150000       1.00800           0
     23221 MEMB     202      POPC     C211     CTL2    -0.180000       12.0110           0
     23222 MEMB     202      POPC     H11R     HAL2     0.900000E-01   1.00800           0
     23223 MEMB     202      POPC     H11S     HAL2     0.900000E-01   1.00800           0
     23224 MEMB     202      POPC     C212     CTL2    -0.180000       12.0110           0
     23225 MEMB     202      POPC     H12R     HAL2     0.900000E-01   1.00800           0
     23226 MEMB     202      POPC     H12S     HAL2     0.900000E-01   1.00800           0
     23227 MEMB     202      POPC     C213     CTL2    -0.180000       12.0110           0
     23228 MEMB     202      POPC     H13R     HAL2     0.900000E-01   1.00800           0
     23229 MEMB     202      POPC     H13S     HAL2     0.900000E-01   1.00800           0
     23230 MEMB     202      POPC     C214     CTL2    -0.180000       12.0110           0
     23231 MEMB     202      POPC     H14R     HAL2     0.900000E-01   1.00800           0
     23232 MEMB     202      POPC     H14S     HAL2     0.900000E-01   1.00800           0
     23233 MEMB     202      POPC     C215     CTL2    -0.180000       12.0110           0
     23234 MEMB     202      POPC     H15R     HAL2     0.900000E-01   1.00800           0
     23235 MEMB     202      POPC     H15S     HAL2     0.900000E-01   1.00800           0
     23236 MEMB     202      POPC     C216     CTL2    -0.180000       12.0110           0
     23237 MEMB     202      POPC     H16R     HAL2     0.900000E-01   1.00800           0
     23238 MEMB     202      POPC     H16S     HAL2     0.900000E-01   1.00800           0
     23239 MEMB     202      POPC     C217     CTL2    -0.180000       12.0110           0
     23240 MEMB     202      POPC     H17R     HAL2     0.900000E-01   1.00800           0
     23241 MEMB     202      POPC     H17S     HAL2     0.900000E-01   1.00800           0
     23242 MEMB     202      POPC     C218     CTL3    -0.270000       12.0110           0
     23243 MEMB     202      POPC     H18R     HAL3     0.900000E-01   1.00800           0
     23244 MEMB     202      POPC     H18S     HAL3     0.900000E-01   1.00800           0
     23245 MEMB     202      POPC     H18T     HAL3     0.900000E-01   1.00800           0
     23246 MEMB     202      POPC     C33      CTL2    -0.180000       12.0110           0
     23247 MEMB     202      POPC     H3X      HAL2     0.900000E-01   1.00800           0
     23248 MEMB     202      POPC     H3Y      HAL2     0.900000E-01   1.00800           0
     23249 MEMB     202      POPC     C34      CTL2    -0.180000       12.0110           0
     23250 MEMB     202      POPC     H4X      HAL2     0.900000E-01   1.00800           0
     23251 MEMB     202      POPC     H4Y      HAL2     0.900000E-01   1.00800           0
     23252 MEMB     202      POPC     C35      CTL2    -0.180000       12.0110           0
     23253 MEMB     202      POPC     H5X      HAL2     0.900000E-01   1.00800           0
     23254 MEMB     202      POPC     H5Y      HAL2     0.900000E-01   1.00800           0
     23255 MEMB     202      POPC     C36      CTL2    -0.180000       12.0110           0
     23256 MEMB     202      POPC     H6X      HAL2     0.900000E-01   1.00800           0
     23257 MEMB     202      POPC     H6Y      HAL2     0.900000E-01   1.00800           0
     23258 MEMB     202      POPC     C37      CTL2    -0.180000       12.0110           0
     23259 MEMB     202      POPC     H7X      HAL2     0.900000E-01   1.00800           0
     23260 MEMB     202      POPC     H7Y      HAL2     0.900000E-01   1.00800           0
     23261 MEMB     202      POPC     C38      CTL2    -0.180000       12.0110           0
     23262 MEMB     202      POPC     H8X      HAL2     0.900000E-01   1.00800           0
     23263 MEMB     202      POPC     H8Y      HAL2     0.900000E-01   1.00800           0
     23264 MEMB     202      POPC     C39      CTL2    -0.180000       12.0110           0
     23265 MEMB     202      POPC     H9X      HAL2     0.900000E-01   1.00800           0
     23266 MEMB     202      POPC     H9Y      HAL2     0.900000E-01   1.00800           0
     23267 MEMB     202      POPC     C310     CTL2    -0.180000       12.0110           0
     23268 MEMB     202      POPC     H10X     HAL2     0.900000E-01   1.00800           0
     23269 MEMB     202      POPC     H10Y     HAL2     0.900000E-01   1.00800           0
     23270 MEMB     202      POPC     C311     CTL2    -0.180000       12.0110           0
     23271 MEMB     202      POPC     H11X     HAL2     0.900000E-01   1.00800           0
     23272 MEMB     202      POPC     H11Y     HAL2     0.900000E-01   1.00800           0
     23273 MEMB     202      POPC     C312     CTL2    -0.180000       12.0110           0
     23274 MEMB     202      POPC     H12X     HAL2     0.900000E-01   1.00800           0
     23275 MEMB     202      POPC     H12Y     HAL2     0.900000E-01   1.00800           0
     23276 MEMB     202      POPC     C313     CTL2    -0.180000       12.0110           0
     23277 MEMB     202      POPC     H13X     HAL2     0.900000E-01   1.00800           0
     23278 MEMB     202      POPC     H13Y     HAL2     0.900000E-01   1.00800           0
     23279 MEMB     202      POPC     C314     CTL2    -0.180000       12.0110           0
     23280 MEMB     202      POPC     H14X     HAL2     0.900000E-01   1.00800           0
     23281 MEMB     202      POPC     H14Y     HAL2     0.900000E-01   1.00800           0
     23282 MEMB     202      POPC     C315     CTL2    -0.180000       12.0110           0
     23283 MEMB     202      POPC     H15X     HAL2     0.900000E-01   1.00800           0
     23284 MEMB     202      POPC     H15Y     HAL2     0.900000E-01   1.00800           0
     23285 MEMB     202      POPC     C316     CTL3    -0.270000       12.0110           0
     23286 MEMB     202      POPC     H16X     HAL3     0.900000E-01   1.00800           0
     23287 MEMB     202      POPC     H16Y     HAL3     0.900000E-01   1.00800           0
     23288 MEMB     202      POPC     H16Z     HAL3     0.900000E-01   1.00800           0
     23289 MEMB     203      POPC     N        NTL     -0.600000       14.0070           0
     23290 MEMB     203      POPC     C12      CTL2    -0.100000       12.0110           0
     23291 MEMB     203      POPC     H12A     HL       0.250000       1.00800           0
     23292 MEMB     203      POPC     H12B     HL       0.250000       1.00800           0
     23293 MEMB     203      POPC     C13      CTL5    -0.350000       12.0110           0
     23294 MEMB     203      POPC     H13A     HL       0.250000       1.00800           0
     23295 MEMB     203      POPC     H13B     HL       0.250000       1.00800           0
     23296 MEMB     203      POPC     H13C     HL       0.250000       1.00800           0
     23297 MEMB     203      POPC     C14      CTL5    -0.350000       12.0110           0
     23298 MEMB     203      POPC     H14A     HL       0.250000       1.00800           0
     23299 MEMB     203      POPC     H14B     HL       0.250000       1.00800           0
     23300 MEMB     203      POPC     H14C     HL       0.250000       1.00800           0
     23301 MEMB     203      POPC     C15      CTL5    -0.350000       12.0110           0
     23302 MEMB     203      POPC     H15A     HL       0.250000       1.00800           0
     23303 MEMB     203      POPC     H15B     HL       0.250000       1.00800           0
     23304 MEMB     203      POPC     H15C     HL       0.250000       1.00800           0
     23305 MEMB     203      POPC     C11      CTL2    -0.800000E-01   12.0110           0
     23306 MEMB     203      POPC     H11A     HAL2     0.900000E-01   1.00800           0
     23307 MEMB     203      POPC     H11B     HAL2     0.900000E-01   1.00800           0
     23308 MEMB     203      POPC     P        PL        1.50000       30.9740           0
     23309 MEMB     203      POPC     O13      O2L     -0.780000       15.9994           0
     23310 MEMB     203      POPC     O14      O2L     -0.780000       15.9994           0
     23311 MEMB     203      POPC     O12      OSLP    -0.570000       15.9994           0
     23312 MEMB     203      POPC     O11      OSLP    -0.570000       15.9994           0
     23313 MEMB     203      POPC     C1       CTL2    -0.800000E-01   12.0110           0
     23314 MEMB     203      POPC     HA       HAL2     0.900000E-01   1.00800           0
     23315 MEMB     203      POPC     HB       HAL2     0.900000E-01   1.00800           0
     23316 MEMB     203      POPC     C2       CTL1     0.170000       12.0110           0
     23317 MEMB     203      POPC     HS       HAL1     0.900000E-01   1.00800           0
     23318 MEMB     203      POPC     O21      OSL     -0.490000       15.9994           0
     23319 MEMB     203      POPC     C21      CL       0.900000       12.0110           0
     23320 MEMB     203      POPC     O22      OBL     -0.630000       15.9994           0
     23321 MEMB     203      POPC     C22      CTL2    -0.220000       12.0110           0
     23322 MEMB     203      POPC     H2R      HAL2     0.900000E-01   1.00800           0
     23323 MEMB     203      POPC     H2S      HAL2     0.900000E-01   1.00800           0
     23324 MEMB     203      POPC     C3       CTL2     0.800000E-01   12.0110           0
     23325 MEMB     203      POPC     HX       HAL2     0.900000E-01   1.00800           0
     23326 MEMB     203      POPC     HY       HAL2     0.900000E-01   1.00800           0
     23327 MEMB     203      POPC     O31      OSL     -0.490000       15.9994           0
     23328 MEMB     203      POPC     C31      CL       0.900000       12.0110           0
     23329 MEMB     203      POPC     O32      OBL     -0.630000       15.9994           0
     23330 MEMB     203      POPC     C32      CTL2    -0.220000       12.0110           0
     23331 MEMB     203      POPC     H2X      HAL2     0.900000E-01   1.00800           0
     23332 MEMB     203      POPC     H2Y      HAL2     0.900000E-01   1.00800           0
     23333 MEMB     203      POPC     C23      CTL2    -0.180000       12.0110           0
     23334 MEMB     203      POPC     H3R      HAL2     0.900000E-01   1.00800           0
     23335 MEMB     203      POPC     H3S      HAL2     0.900000E-01   1.00800           0
     23336 MEMB     203      POPC     C24      CTL2    -0.180000       12.0110           0
     23337 MEMB     203      POPC     H4R      HAL2     0.900000E-01   1.00800           0
     23338 MEMB     203      POPC     H4S      HAL2     0.900000E-01   1.00800           0
     23339 MEMB     203      POPC     C25      CTL2    -0.180000       12.0110           0
     23340 MEMB     203      POPC     H5R      HAL2     0.900000E-01   1.00800           0
     23341 MEMB     203      POPC     H5S      HAL2     0.900000E-01   1.00800           0
     23342 MEMB     203      POPC     C26      CTL2    -0.180000       12.0110           0
     23343 MEMB     203      POPC     H6R      HAL2     0.900000E-01   1.00800           0
     23344 MEMB     203      POPC     H6S      HAL2     0.900000E-01   1.00800           0
     23345 MEMB     203      POPC     C27      CTL2    -0.180000       12.0110           0
     23346 MEMB     203      POPC     H7R      HAL2     0.900000E-01   1.00800           0
     23347 MEMB     203      POPC     H7S      HAL2     0.900000E-01   1.00800           0
     23348 MEMB     203      POPC     C28      CTL2    -0.180000       12.0110           0
     23349 MEMB     203      POPC     H8R      HAL2     0.900000E-01   1.00800           0
     23350 MEMB     203      POPC     H8S      HAL2     0.900000E-01   1.00800           0
     23351 MEMB     203      POPC     C29      CEL1    -0.150000       12.0110           0
     23352 MEMB     203      POPC     H91      HEL1     0.150000       1.00800           0
     23353 MEMB     203      POPC     C210     CEL1    -0.150000       12.0110           0
     23354 MEMB     203      POPC     H101     HEL1     0.150000       1.00800           0
     23355 MEMB     203      POPC     C211     CTL2    -0.180000       12.0110           0
     23356 MEMB     203      POPC     H11R     HAL2     0.900000E-01   1.00800           0
     23357 MEMB     203      POPC     H11S     HAL2     0.900000E-01   1.00800           0
     23358 MEMB     203      POPC     C212     CTL2    -0.180000       12.0110           0
     23359 MEMB     203      POPC     H12R     HAL2     0.900000E-01   1.00800           0
     23360 MEMB     203      POPC     H12S     HAL2     0.900000E-01   1.00800           0
     23361 MEMB     203      POPC     C213     CTL2    -0.180000       12.0110           0
     23362 MEMB     203      POPC     H13R     HAL2     0.900000E-01   1.00800           0
     23363 MEMB     203      POPC     H13S     HAL2     0.900000E-01   1.00800           0
     23364 MEMB     203      POPC     C214     CTL2    -0.180000       12.0110           0
     23365 MEMB     203      POPC     H14R     HAL2     0.900000E-01   1.00800           0
     23366 MEMB     203      POPC     H14S     HAL2     0.900000E-01   1.00800           0
     23367 MEMB     203      POPC     C215     CTL2    -0.180000       12.0110           0
     23368 MEMB     203      POPC     H15R     HAL2     0.900000E-01   1.00800           0
     23369 MEMB     203      POPC     H15S     HAL2     0.900000E-01   1.00800           0
     23370 MEMB     203      POPC     C216     CTL2    -0.180000       12.0110           0
     23371 MEMB     203      POPC     H16R     HAL2     0.900000E-01   1.00800           0
     23372 MEMB     203      POPC     H16S     HAL2     0.900000E-01   1.00800           0
     23373 MEMB     203      POPC     C217     CTL2    -0.180000       12.0110           0
     23374 MEMB     203      POPC     H17R     HAL2     0.900000E-01   1.00800           0
     23375 MEMB     203      POPC     H17S     HAL2     0.900000E-01   1.00800           0
     23376 MEMB     203      POPC     C218     CTL3    -0.270000       12.0110           0
     23377 MEMB     203      POPC     H18R     HAL3     0.900000E-01   1.00800           0
     23378 MEMB     203      POPC     H18S     HAL3     0.900000E-01   1.00800           0
     23379 MEMB     203      POPC     H18T     HAL3     0.900000E-01   1.00800           0
     23380 MEMB     203      POPC     C33      CTL2    -0.180000       12.0110           0
     23381 MEMB     203      POPC     H3X      HAL2     0.900000E-01   1.00800           0
     23382 MEMB     203      POPC     H3Y      HAL2     0.900000E-01   1.00800           0
     23383 MEMB     203      POPC     C34      CTL2    -0.180000       12.0110           0
     23384 MEMB     203      POPC     H4X      HAL2     0.900000E-01   1.00800           0
     23385 MEMB     203      POPC     H4Y      HAL2     0.900000E-01   1.00800           0
     23386 MEMB     203      POPC     C35      CTL2    -0.180000       12.0110           0
     23387 MEMB     203      POPC     H5X      HAL2     0.900000E-01   1.00800           0
     23388 MEMB     203      POPC     H5Y      HAL2     0.900000E-01   1.00800           0
     23389 MEMB     203      POPC     C36      CTL2    -0.180000       12.0110           0
     23390 MEMB     203      POPC     H6X      HAL2     0.900000E-01   1.00800           0
     23391 MEMB     203      POPC     H6Y      HAL2     0.900000E-01   1.00800           0
     23392 MEMB     203      POPC     C37      CTL2    -0.180000       12.0110           0
     23393 MEMB     203      POPC     H7X      HAL2     0.900000E-01   1.00800           0
     23394 MEMB     203      POPC     H7Y      HAL2     0.900000E-01   1.00800           0
     23395 MEMB     203      POPC     C38      CTL2    -0.180000       12.0110           0
     23396 MEMB     203      POPC     H8X      HAL2     0.900000E-01   1.00800           0
     23397 MEMB     203      POPC     H8Y      HAL2     0.900000E-01   1.00800           0
     23398 MEMB     203      POPC     C39      CTL2    -0.180000       12.0110           0
     23399 MEMB     203      POPC     H9X      HAL2     0.900000E-01   1.00800           0
     23400 MEMB     203      POPC     H9Y      HAL2     0.900000E-01   1.00800           0
     23401 MEMB     203      POPC     C310     CTL2    -0.180000       12.0110           0
     23402 MEMB     203      POPC     H10X     HAL2     0.900000E-01   1.00800           0
     23403 MEMB     203      POPC     H10Y     HAL2     0.900000E-01   1.00800           0
     23404 MEMB     203      POPC     C311     CTL2    -0.180000       12.0110           0
     23405 MEMB     203      POPC     H11X     HAL2     0.900000E-01   1.00800           0
     23406 MEMB     203      POPC     H11Y     HAL2     0.900000E-01   1.00800           0
     23407 MEMB     203      POPC     C312     CTL2    -0.180000       12.0110           0
     23408 MEMB     203      POPC     H12X     HAL2     0.900000E-01   1.00800           0
     23409 MEMB     203      POPC     H12Y     HAL2     0.900000E-01   1.00800           0
     23410 MEMB     203      POPC     C313     CTL2    -0.180000       12.0110           0
     23411 MEMB     203      POPC     H13X     HAL2     0.900000E-01   1.00800           0
     23412 MEMB     203      POPC     H13Y     HAL2     0.900000E-01   1.00800           0
     23413 MEMB     203      POPC     C314     CTL2    -0.180000       12.0110           0
     23414 MEMB     203      POPC     H14X     HAL2     0.900000E-01   1.00800           0
     23415 MEMB     203      POPC     H14Y     HAL2     0.900000E-01   1.00800           0
     23416 MEMB     203      POPC     C315     CTL2    -0.180000       12.0110           0
     23417 MEMB     203      POPC     H15X     HAL2     0.900000E-01   1.00800           0
     23418 MEMB     203      POPC     H15Y     HAL2     0.900000E-01   1.00800           0
     23419 MEMB     203      POPC     C316     CTL3    -0.270000       12.0110           0
     23420 MEMB     203      POPC     H16X     HAL3     0.900000E-01   1.00800           0
     23421 MEMB     203      POPC     H16Y     HAL3     0.900000E-01   1.00800           0
     23422 MEMB     203      POPC     H16Z     HAL3     0.900000E-01   1.00800           0
     23423 MEMB     204      POPC     N        NTL     -0.600000       14.0070           0
     23424 MEMB     204      POPC     C12      CTL2    -0.100000       12.0110           0
     23425 MEMB     204      POPC     H12A     HL       0.250000       1.00800           0
     23426 MEMB     204      POPC     H12B     HL       0.250000       1.00800           0
     23427 MEMB     204      POPC     C13      CTL5    -0.350000       12.0110           0
     23428 MEMB     204      POPC     H13A     HL       0.250000       1.00800           0
     23429 MEMB     204      POPC     H13B     HL       0.250000       1.00800           0
     23430 MEMB     204      POPC     H13C     HL       0.250000       1.00800           0
     23431 MEMB     204      POPC     C14      CTL5    -0.350000       12.0110           0
     23432 MEMB     204      POPC     H14A     HL       0.250000       1.00800           0
     23433 MEMB     204      POPC     H14B     HL       0.250000       1.00800           0
     23434 MEMB     204      POPC     H14C     HL       0.250000       1.00800           0
     23435 MEMB     204      POPC     C15      CTL5    -0.350000       12.0110           0
     23436 MEMB     204      POPC     H15A     HL       0.250000       1.00800           0
     23437 MEMB     204      POPC     H15B     HL       0.250000       1.00800           0
     23438 MEMB     204      POPC     H15C     HL       0.250000       1.00800           0
     23439 MEMB     204      POPC     C11      CTL2    -0.800000E-01   12.0110           0
     23440 MEMB     204      POPC     H11A     HAL2     0.900000E-01   1.00800           0
     23441 MEMB     204      POPC     H11B     HAL2     0.900000E-01   1.00800           0
     23442 MEMB     204      POPC     P        PL        1.50000       30.9740           0
     23443 MEMB     204      POPC     O13      O2L     -0.780000       15.9994           0
     23444 MEMB     204      POPC     O14      O2L     -0.780000       15.9994           0
     23445 MEMB     204      POPC     O12      OSLP    -0.570000       15.9994           0
     23446 MEMB     204      POPC     O11      OSLP    -0.570000       15.9994           0
     23447 MEMB     204      POPC     C1       CTL2    -0.800000E-01   12.0110           0
     23448 MEMB     204      POPC     HA       HAL2     0.900000E-01   1.00800           0
     23449 MEMB     204      POPC     HB       HAL2     0.900000E-01   1.00800           0
     23450 MEMB     204      POPC     C2       CTL1     0.170000       12.0110           0
     23451 MEMB     204      POPC     HS       HAL1     0.900000E-01   1.00800           0
     23452 MEMB     204      POPC     O21      OSL     -0.490000       15.9994           0
     23453 MEMB     204      POPC     C21      CL       0.900000       12.0110           0
     23454 MEMB     204      POPC     O22      OBL     -0.630000       15.9994           0
     23455 MEMB     204      POPC     C22      CTL2    -0.220000       12.0110           0
     23456 MEMB     204      POPC     H2R      HAL2     0.900000E-01   1.00800           0
     23457 MEMB     204      POPC     H2S      HAL2     0.900000E-01   1.00800           0
     23458 MEMB     204      POPC     C3       CTL2     0.800000E-01   12.0110           0
     23459 MEMB     204      POPC     HX       HAL2     0.900000E-01   1.00800           0
     23460 MEMB     204      POPC     HY       HAL2     0.900000E-01   1.00800           0
     23461 MEMB     204      POPC     O31      OSL     -0.490000       15.9994           0
     23462 MEMB     204      POPC     C31      CL       0.900000       12.0110           0
     23463 MEMB     204      POPC     O32      OBL     -0.630000       15.9994           0
     23464 MEMB     204      POPC     C32      CTL2    -0.220000       12.0110           0
     23465 MEMB     204      POPC     H2X      HAL2     0.900000E-01   1.00800           0
     23466 MEMB     204      POPC     H2Y      HAL2     0.900000E-01   1.00800           0
     23467 MEMB     204      POPC     C23      CTL2    -0.180000       12.0110           0
     23468 MEMB     204      POPC     H3R      HAL2     0.900000E-01   1.00800           0
     23469 MEMB     204      POPC     H3S      HAL2     0.900000E-01   1.00800           0
     23470 MEMB     204      POPC     C24      CTL2    -0.180000       12.0110           0
     23471 MEMB     204      POPC     H4R      HAL2     0.900000E-01   1.00800           0
     23472 MEMB     204      POPC     H4S      HAL2     0.900000E-01   1.00800           0
     23473 MEMB     204      POPC     C25      CTL2    -0.180000       12.0110           0
     23474 MEMB     204      POPC     H5R      HAL2     0.900000E-01   1.00800           0
     23475 MEMB     204      POPC     H5S      HAL2     0.900000E-01   1.00800           0
     23476 MEMB     204      POPC     C26      CTL2    -0.180000       12.0110           0
     23477 MEMB     204      POPC     H6R      HAL2     0.900000E-01   1.00800           0
     23478 MEMB     204      POPC     H6S      HAL2     0.900000E-01   1.00800           0
     23479 MEMB     204      POPC     C27      CTL2    -0.180000       12.0110           0
     23480 MEMB     204      POPC     H7R      HAL2     0.900000E-01   1.00800           0
     23481 MEMB     204      POPC     H7S      HAL2     0.900000E-01   1.00800           0
     23482 MEMB     204      POPC     C28      CTL2    -0.180000       12.0110           0
     23483 MEMB     204      POPC     H8R      HAL2     0.900000E-01   1.00800           0
     23484 MEMB     204      POPC     H8S      HAL2     0.900000E-01   1.00800           0
     23485 MEMB     204      POPC     C29      CEL1    -0.150000       12.0110           0
     23486 MEMB     204      POPC     H91      HEL1     0.150000       1.00800           0
     23487 MEMB     204      POPC     C210     CEL1    -0.150000       12.0110           0
     23488 MEMB     204      POPC     H101     HEL1     0.150000       1.00800           0
     23489 MEMB     204      POPC     C211     CTL2    -0.180000       12.0110           0
     23490 MEMB     204      POPC     H11R     HAL2     0.900000E-01   1.00800           0
     23491 MEMB     204      POPC     H11S     HAL2     0.900000E-01   1.00800           0
     23492 MEMB     204      POPC     C212     CTL2    -0.180000       12.0110           0
     23493 MEMB     204      POPC     H12R     HAL2     0.900000E-01   1.00800           0
     23494 MEMB     204      POPC     H12S     HAL2     0.900000E-01   1.00800           0
     23495 MEMB     204      POPC     C213     CTL2    -0.180000       12.0110           0
     23496 MEMB     204      POPC     H13R     HAL2     0.900000E-01   1.00800           0
     23497 MEMB     204      POPC     H13S     HAL2     0.900000E-01   1.00800           0
     23498 MEMB     204      POPC     C214     CTL2    -0.180000       12.0110           0
     23499 MEMB     204      POPC     H14R     HAL2     0.900000E-01   1.00800           0
     23500 MEMB     204      POPC     H14S     HAL2     0.900000E-01   1.00800           0
     23501 MEMB     204      POPC     C215     CTL2    -0.180000       12.0110           0
     23502 MEMB     204      POPC     H15R     HAL2     0.900000E-01   1.00800           0
     23503 MEMB     204      POPC     H15S     HAL2     0.900000E-01   1.00800           0
     23504 MEMB     204      POPC     C216     CTL2    -0.180000       12.0110           0
     23505 MEMB     204      POPC     H16R     HAL2     0.900000E-01   1.00800           0
     23506 MEMB     204      POPC     H16S     HAL2     0.900000E-01   1.00800           0
     23507 MEMB     204      POPC     C217     CTL2    -0.180000       12.0110           0
     23508 MEMB     204      POPC     H17R     HAL2     0.900000E-01   1.00800           0
     23509 MEMB     204      POPC     H17S     HAL2     0.900000E-01   1.00800           0
     23510 MEMB     204      POPC     C218     CTL3    -0.270000       12.0110           0
     23511 MEMB     204      POPC     H18R     HAL3     0.900000E-01   1.00800           0
     23512 MEMB     204      POPC     H18S     HAL3     0.900000E-01   1.00800           0
     23513 MEMB     204      POPC     H18T     HAL3     0.900000E-01   1.00800           0
     23514 MEMB     204      POPC     C33      CTL2    -0.180000       12.0110           0
     23515 MEMB     204      POPC     H3X      HAL2     0.900000E-01   1.00800           0
     23516 MEMB     204      POPC     H3Y      HAL2     0.900000E-01   1.00800           0
     23517 MEMB     204      POPC     C34      CTL2    -0.180000       12.0110           0
     23518 MEMB     204      POPC     H4X      HAL2     0.900000E-01   1.00800           0
     23519 MEMB     204      POPC     H4Y      HAL2     0.900000E-01   1.00800           0
     23520 MEMB     204      POPC     C35      CTL2    -0.180000       12.0110           0
     23521 MEMB     204      POPC     H5X      HAL2     0.900000E-01   1.00800           0
     23522 MEMB     204      POPC     H5Y      HAL2     0.900000E-01   1.00800           0
     23523 MEMB     204      POPC     C36      CTL2    -0.180000       12.0110           0
     23524 MEMB     204      POPC     H6X      HAL2     0.900000E-01   1.00800           0
     23525 MEMB     204      POPC     H6Y      HAL2     0.900000E-01   1.00800           0
     23526 MEMB     204      POPC     C37      CTL2    -0.180000       12.0110           0
     23527 MEMB     204      POPC     H7X      HAL2     0.900000E-01   1.00800           0
     23528 MEMB     204      POPC     H7Y      HAL2     0.900000E-01   1.00800           0
     23529 MEMB     204      POPC     C38      CTL2    -0.180000       12.0110           0
     23530 MEMB     204      POPC     H8X      HAL2     0.900000E-01   1.00800           0
     23531 MEMB     204      POPC     H8Y      HAL2     0.900000E-01   1.00800           0
     23532 MEMB     204      POPC     C39      CTL2    -0.180000       12.0110           0
     23533 MEMB     204      POPC     H9X      HAL2     0.900000E-01   1.00800           0
     23534 MEMB     204      POPC     H9Y      HAL2     0.900000E-01   1.00800           0
     23535 MEMB     204      POPC     C310     CTL2    -0.180000       12.0110           0
     23536 MEMB     204      POPC     H10X     HAL2     0.900000E-01   1.00800           0
     23537 MEMB     204      POPC     H10Y     HAL2     0.900000E-01   1.00800           0
     23538 MEMB     204      POPC     C311     CTL2    -0.180000       12.0110           0
     23539 MEMB     204      POPC     H11X     HAL2     0.900000E-01   1.00800           0
     23540 MEMB     204      POPC     H11Y     HAL2     0.900000E-01   1.00800           0
     23541 MEMB     204      POPC     C312     CTL2    -0.180000       12.0110           0
     23542 MEMB     204      POPC     H12X     HAL2     0.900000E-01   1.00800           0
     23543 MEMB     204      POPC     H12Y     HAL2     0.900000E-01   1.00800           0
     23544 MEMB     204      POPC     C313     CTL2    -0.180000       12.0110           0
     23545 MEMB     204      POPC     H13X     HAL2     0.900000E-01   1.00800           0
     23546 MEMB     204      POPC     H13Y     HAL2     0.900000E-01   1.00800           0
     23547 MEMB     204      POPC     C314     CTL2    -0.180000       12.0110           0
     23548 MEMB     204      POPC     H14X     HAL2     0.900000E-01   1.00800           0
     23549 MEMB     204      POPC     H14Y     HAL2     0.900000E-01   1.00800           0
     23550 MEMB     204      POPC     C315     CTL2    -0.180000       12.0110           0
     23551 MEMB     204      POPC     H15X     HAL2     0.900000E-01   1.00800           0
     23552 MEMB     204      POPC     H15Y     HAL2     0.900000E-01   1.00800           0
     23553 MEMB     204      POPC     C316     CTL3    -0.270000       12.0110           0
     23554 MEMB     204      POPC     H16X     HAL3     0.900000E-01   1.00800           0
     23555 MEMB     204      POPC     H16Y     HAL3     0.900000E-01   1.00800           0
     23556 MEMB     204      POPC     H16Z     HAL3     0.900000E-01   1.00800           0
     23557 MEMB     205      POPC     N        NTL     -0.600000       14.0070           0
     23558 MEMB     205      POPC     C12      CTL2    -0.100000       12.0110           0
     23559 MEMB     205      POPC     H12A     HL       0.250000       1.00800           0
     23560 MEMB     205      POPC     H12B     HL       0.250000       1.00800           0
     23561 MEMB     205      POPC     C13      CTL5    -0.350000       12.0110           0
     23562 MEMB     205      POPC     H13A     HL       0.250000       1.00800           0
     23563 MEMB     205      POPC     H13B     HL       0.250000       1.00800           0
     23564 MEMB     205      POPC     H13C     HL       0.250000       1.00800           0
     23565 MEMB     205      POPC     C14      CTL5    -0.350000       12.0110           0
     23566 MEMB     205      POPC     H14A     HL       0.250000       1.00800           0
     23567 MEMB     205      POPC     H14B     HL       0.250000       1.00800           0
     23568 MEMB     205      POPC     H14C     HL       0.250000       1.00800           0
     23569 MEMB     205      POPC     C15      CTL5    -0.350000       12.0110           0
     23570 MEMB     205      POPC     H15A     HL       0.250000       1.00800           0
     23571 MEMB     205      POPC     H15B     HL       0.250000       1.00800           0
     23572 MEMB     205      POPC     H15C     HL       0.250000       1.00800           0
     23573 MEMB     205      POPC     C11      CTL2    -0.800000E-01   12.0110           0
     23574 MEMB     205      POPC     H11A     HAL2     0.900000E-01   1.00800           0
     23575 MEMB     205      POPC     H11B     HAL2     0.900000E-01   1.00800           0
     23576 MEMB     205      POPC     P        PL        1.50000       30.9740           0
     23577 MEMB     205      POPC     O13      O2L     -0.780000       15.9994           0
     23578 MEMB     205      POPC     O14      O2L     -0.780000       15.9994           0
     23579 MEMB     205      POPC     O12      OSLP    -0.570000       15.9994           0
     23580 MEMB     205      POPC     O11      OSLP    -0.570000       15.9994           0
     23581 MEMB     205      POPC     C1       CTL2    -0.800000E-01   12.0110           0
     23582 MEMB     205      POPC     HA       HAL2     0.900000E-01   1.00800           0
     23583 MEMB     205      POPC     HB       HAL2     0.900000E-01   1.00800           0
     23584 MEMB     205      POPC     C2       CTL1     0.170000       12.0110           0
     23585 MEMB     205      POPC     HS       HAL1     0.900000E-01   1.00800           0
     23586 MEMB     205      POPC     O21      OSL     -0.490000       15.9994           0
     23587 MEMB     205      POPC     C21      CL       0.900000       12.0110           0
     23588 MEMB     205      POPC     O22      OBL     -0.630000       15.9994           0
     23589 MEMB     205      POPC     C22      CTL2    -0.220000       12.0110           0
     23590 MEMB     205      POPC     H2R      HAL2     0.900000E-01   1.00800           0
     23591 MEMB     205      POPC     H2S      HAL2     0.900000E-01   1.00800           0
     23592 MEMB     205      POPC     C3       CTL2     0.800000E-01   12.0110           0
     23593 MEMB     205      POPC     HX       HAL2     0.900000E-01   1.00800           0
     23594 MEMB     205      POPC     HY       HAL2     0.900000E-01   1.00800           0
     23595 MEMB     205      POPC     O31      OSL     -0.490000       15.9994           0
     23596 MEMB     205      POPC     C31      CL       0.900000       12.0110           0
     23597 MEMB     205      POPC     O32      OBL     -0.630000       15.9994           0
     23598 MEMB     205      POPC     C32      CTL2    -0.220000       12.0110           0
     23599 MEMB     205      POPC     H2X      HAL2     0.900000E-01   1.00800           0
     23600 MEMB     205      POPC     H2Y      HAL2     0.900000E-01   1.00800           0
     23601 MEMB     205      POPC     C23      CTL2    -0.180000       12.0110           0
     23602 MEMB     205      POPC     H3R      HAL2     0.900000E-01   1.00800           0
     23603 MEMB     205      POPC     H3S      HAL2     0.900000E-01   1.00800           0
     23604 MEMB     205      POPC     C24      CTL2    -0.180000       12.0110           0
     23605 MEMB     205      POPC     H4R      HAL2     0.900000E-01   1.00800           0
     23606 MEMB     205      POPC     H4S      HAL2     0.900000E-01   1.00800           0
     23607 MEMB     205      POPC     C25      CTL2    -0.180000       12.0110           0
     23608 MEMB     205      POPC     H5R      HAL2     0.900000E-01   1.00800           0
     23609 MEMB     205      POPC     H5S      HAL2     0.900000E-01   1.00800           0
     23610 MEMB     205      POPC     C26      CTL2    -0.180000       12.0110           0
     23611 MEMB     205      POPC     H6R      HAL2     0.900000E-01   1.00800           0
     23612 MEMB     205      POPC     H6S      HAL2     0.900000E-01   1.00800           0
     23613 MEMB     205      POPC     C27      CTL2    -0.180000       12.0110           0
     23614 MEMB     205      POPC     H7R      HAL2     0.900000E-01   1.00800           0
     23615 MEMB     205      POPC     H7S      HAL2     0.900000E-01   1.00800           0
     23616 MEMB     205      POPC     C28      CTL2    -0.180000       12.0110           0
     23617 MEMB     205      POPC     H8R      HAL2     0.900000E-01   1.00800           0
     23618 MEMB     205      POPC     H8S      HAL2     0.900000E-01   1.00800           0
     23619 MEMB     205      POPC     C29      CEL1    -0.150000       12.0110           0
     23620 MEMB     205      POPC     H91      HEL1     0.150000       1.00800           0
     23621 MEMB     205      POPC     C210     CEL1    -0.150000       12.0110           0
     23622 MEMB     205      POPC     H101     HEL1     0.150000       1.00800           0
     23623 MEMB     205      POPC     C211     CTL2    -0.180000       12.0110           0
     23624 MEMB     205      POPC     H11R     HAL2     0.900000E-01   1.00800           0
     23625 MEMB     205      POPC     H11S     HAL2     0.900000E-01   1.00800           0
     23626 MEMB     205      POPC     C212     CTL2    -0.180000       12.0110           0
     23627 MEMB     205      POPC     H12R     HAL2     0.900000E-01   1.00800           0
     23628 MEMB     205      POPC     H12S     HAL2     0.900000E-01   1.00800           0
     23629 MEMB     205      POPC     C213     CTL2    -0.180000       12.0110           0
     23630 MEMB     205      POPC     H13R     HAL2     0.900000E-01   1.00800           0
     23631 MEMB     205      POPC     H13S     HAL2     0.900000E-01   1.00800           0
     23632 MEMB     205      POPC     C214     CTL2    -0.180000       12.0110           0
     23633 MEMB     205      POPC     H14R     HAL2     0.900000E-01   1.00800           0
     23634 MEMB     205      POPC     H14S     HAL2     0.900000E-01   1.00800           0
     23635 MEMB     205      POPC     C215     CTL2    -0.180000       12.0110           0
     23636 MEMB     205      POPC     H15R     HAL2     0.900000E-01   1.00800           0
     23637 MEMB     205      POPC     H15S     HAL2     0.900000E-01   1.00800           0
     23638 MEMB     205      POPC     C216     CTL2    -0.180000       12.0110           0
     23639 MEMB     205      POPC     H16R     HAL2     0.900000E-01   1.00800           0
     23640 MEMB     205      POPC     H16S     HAL2     0.900000E-01   1.00800           0
     23641 MEMB     205      POPC     C217     CTL2    -0.180000       12.0110           0
     23642 MEMB     205      POPC     H17R     HAL2     0.900000E-01   1.00800           0
     23643 MEMB     205      POPC     H17S     HAL2     0.900000E-01   1.00800           0
     23644 MEMB     205      POPC     C218     CTL3    -0.270000       12.0110           0
     23645 MEMB     205      POPC     H18R     HAL3     0.900000E-01   1.00800           0
     23646 MEMB     205      POPC     H18S     HAL3     0.900000E-01   1.00800           0
     23647 MEMB     205      POPC     H18T     HAL3     0.900000E-01   1.00800           0
     23648 MEMB     205      POPC     C33      CTL2    -0.180000       12.0110           0
     23649 MEMB     205      POPC     H3X      HAL2     0.900000E-01   1.00800           0
     23650 MEMB     205      POPC     H3Y      HAL2     0.900000E-01   1.00800           0
     23651 MEMB     205      POPC     C34      CTL2    -0.180000       12.0110           0
     23652 MEMB     205      POPC     H4X      HAL2     0.900000E-01   1.00800           0
     23653 MEMB     205      POPC     H4Y      HAL2     0.900000E-01   1.00800           0
     23654 MEMB     205      POPC     C35      CTL2    -0.180000       12.0110           0
     23655 MEMB     205      POPC     H5X      HAL2     0.900000E-01   1.00800           0
     23656 MEMB     205      POPC     H5Y      HAL2     0.900000E-01   1.00800           0
     23657 MEMB     205      POPC     C36      CTL2    -0.180000       12.0110           0
     23658 MEMB     205      POPC     H6X      HAL2     0.900000E-01   1.00800           0
     23659 MEMB     205      POPC     H6Y      HAL2     0.900000E-01   1.00800           0
     23660 MEMB     205      POPC     C37      CTL2    -0.180000       12.0110           0
     23661 MEMB     205      POPC     H7X      HAL2     0.900000E-01   1.00800           0
     23662 MEMB     205      POPC     H7Y      HAL2     0.900000E-01   1.00800           0
     23663 MEMB     205      POPC     C38      CTL2    -0.180000       12.0110           0
     23664 MEMB     205      POPC     H8X      HAL2     0.900000E-01   1.00800           0
     23665 MEMB     205      POPC     H8Y      HAL2     0.900000E-01   1.00800           0
     23666 MEMB     205      POPC     C39      CTL2    -0.180000       12.0110           0
     23667 MEMB     205      POPC     H9X      HAL2     0.900000E-01   1.00800           0
     23668 MEMB     205      POPC     H9Y      HAL2     0.900000E-01   1.00800           0
     23669 MEMB     205      POPC     C310     CTL2    -0.180000       12.0110           0
     23670 MEMB     205      POPC     H10X     HAL2     0.900000E-01   1.00800           0
     23671 MEMB     205      POPC     H10Y     HAL2     0.900000E-01   1.00800           0
     23672 MEMB     205      POPC     C311     CTL2    -0.180000       12.0110           0
     23673 MEMB     205      POPC     H11X     HAL2     0.900000E-01   1.00800           0
     23674 MEMB     205      POPC     H11Y     HAL2     0.900000E-01   1.00800           0
     23675 MEMB     205      POPC     C312     CTL2    -0.180000       12.0110           0
     23676 MEMB     205      POPC     H12X     HAL2     0.900000E-01   1.00800           0
     23677 MEMB     205      POPC     H12Y     HAL2     0.900000E-01   1.00800           0
     23678 MEMB     205      POPC     C313     CTL2    -0.180000       12.0110           0
     23679 MEMB     205      POPC     H13X     HAL2     0.900000E-01   1.00800           0
     23680 MEMB     205      POPC     H13Y     HAL2     0.900000E-01   1.00800           0
     23681 MEMB     205      POPC     C314     CTL2    -0.180000       12.0110           0
     23682 MEMB     205      POPC     H14X     HAL2     0.900000E-01   1.00800           0
     23683 MEMB     205      POPC     H14Y     HAL2     0.900000E-01   1.00800           0
     23684 MEMB     205      POPC     C315     CTL2    -0.180000       12.0110           0
     23685 MEMB     205      POPC     H15X     HAL2     0.900000E-01   1.00800           0
     23686 MEMB     205      POPC     H15Y     HAL2     0.900000E-01   1.00800           0
     23687 MEMB     205      POPC     C316     CTL3    -0.270000       12.0110           0
     23688 MEMB     205      POPC     H16X     HAL3     0.900000E-01   1.00800           0
     23689 MEMB     205      POPC     H16Y     HAL3     0.900000E-01   1.00800           0
     23690 MEMB     205      POPC     H16Z     HAL3     0.900000E-01   1.00800           0
     23691 MEMB     206      POPC     N        NTL     -0.600000       14.0070           0
     23692 MEMB     206      POPC     C12      CTL2    -0.100000       12.0110           0
     23693 MEMB     206      POPC     H12A     HL       0.250000       1.00800           0
     23694 MEMB     206      POPC     H12B     HL       0.250000       1.00800           0
     23695 MEMB     206      POPC     C13      CTL5    -0.350000       12.0110           0
     23696 MEMB     206      POPC     H13A     HL       0.250000       1.00800           0
     23697 MEMB     206      POPC     H13B     HL       0.250000       1.00800           0
     23698 MEMB     206      POPC     H13C     HL       0.250000       1.00800           0
     23699 MEMB     206      POPC     C14      CTL5    -0.350000       12.0110           0
     23700 MEMB     206      POPC     H14A     HL       0.250000       1.00800           0
     23701 MEMB     206      POPC     H14B     HL       0.250000       1.00800           0
     23702 MEMB     206      POPC     H14C     HL       0.250000       1.00800           0
     23703 MEMB     206      POPC     C15      CTL5    -0.350000       12.0110           0
     23704 MEMB     206      POPC     H15A     HL       0.250000       1.00800           0
     23705 MEMB     206      POPC     H15B     HL       0.250000       1.00800           0
     23706 MEMB     206      POPC     H15C     HL       0.250000       1.00800           0
     23707 MEMB     206      POPC     C11      CTL2    -0.800000E-01   12.0110           0
     23708 MEMB     206      POPC     H11A     HAL2     0.900000E-01   1.00800           0
     23709 MEMB     206      POPC     H11B     HAL2     0.900000E-01   1.00800           0
     23710 MEMB     206      POPC     P        PL        1.50000       30.9740           0
     23711 MEMB     206      POPC     O13      O2L     -0.780000       15.9994           0
     23712 MEMB     206      POPC     O14      O2L     -0.780000       15.9994           0
     23713 MEMB     206      POPC     O12      OSLP    -0.570000       15.9994           0
     23714 MEMB     206      POPC     O11      OSLP    -0.570000       15.9994           0
     23715 MEMB     206      POPC     C1       CTL2    -0.800000E-01   12.0110           0
     23716 MEMB     206      POPC     HA       HAL2     0.900000E-01   1.00800           0
     23717 MEMB     206      POPC     HB       HAL2     0.900000E-01   1.00800           0
     23718 MEMB     206      POPC     C2       CTL1     0.170000       12.0110           0
     23719 MEMB     206      POPC     HS       HAL1     0.900000E-01   1.00800           0
     23720 MEMB     206      POPC     O21      OSL     -0.490000       15.9994           0
     23721 MEMB     206      POPC     C21      CL       0.900000       12.0110           0
     23722 MEMB     206      POPC     O22      OBL     -0.630000       15.9994           0
     23723 MEMB     206      POPC     C22      CTL2    -0.220000       12.0110           0
     23724 MEMB     206      POPC     H2R      HAL2     0.900000E-01   1.00800           0
     23725 MEMB     206      POPC     H2S      HAL2     0.900000E-01   1.00800           0
     23726 MEMB     206      POPC     C3       CTL2     0.800000E-01   12.0110           0
     23727 MEMB     206      POPC     HX       HAL2     0.900000E-01   1.00800           0
     23728 MEMB     206      POPC     HY       HAL2     0.900000E-01   1.00800           0
     23729 MEMB     206      POPC     O31      OSL     -0.490000       15.9994           0
     23730 MEMB     206      POPC     C31      CL       0.900000       12.0110           0
     23731 MEMB     206      POPC     O32      OBL     -0.630000       15.9994           0
     23732 MEMB     206      POPC     C32      CTL2    -0.220000       12.0110           0
     23733 MEMB     206      POPC     H2X      HAL2     0.900000E-01   1.00800           0
     23734 MEMB     206      POPC     H2Y      HAL2     0.900000E-01   1.00800           0
     23735 MEMB     206      POPC     C23      CTL2    -0.180000       12.0110           0
     23736 MEMB     206      POPC     H3R      HAL2     0.900000E-01   1.00800           0
     23737 MEMB     206      POPC     H3S      HAL2     0.900000E-01   1.00800           0
     23738 MEMB     206      POPC     C24      CTL2    -0.180000       12.0110           0
     23739 MEMB     206      POPC     H4R      HAL2     0.900000E-01   1.00800           0
     23740 MEMB     206      POPC     H4S      HAL2     0.900000E-01   1.00800           0
     23741 MEMB     206      POPC     C25      CTL2    -0.180000       12.0110           0
     23742 MEMB     206      POPC     H5R      HAL2     0.900000E-01   1.00800           0
     23743 MEMB     206      POPC     H5S      HAL2     0.900000E-01   1.00800           0
     23744 MEMB     206      POPC     C26      CTL2    -0.180000       12.0110           0
     23745 MEMB     206      POPC     H6R      HAL2     0.900000E-01   1.00800           0
     23746 MEMB     206      POPC     H6S      HAL2     0.900000E-01   1.00800           0
     23747 MEMB     206      POPC     C27      CTL2    -0.180000       12.0110           0
     23748 MEMB     206      POPC     H7R      HAL2     0.900000E-01   1.00800           0
     23749 MEMB     206      POPC     H7S      HAL2     0.900000E-01   1.00800           0
     23750 MEMB     206      POPC     C28      CTL2    -0.180000       12.0110           0
     23751 MEMB     206      POPC     H8R      HAL2     0.900000E-01   1.00800           0
     23752 MEMB     206      POPC     H8S      HAL2     0.900000E-01   1.00800           0
     23753 MEMB     206      POPC     C29      CEL1    -0.150000       12.0110           0
     23754 MEMB     206      POPC     H91      HEL1     0.150000       1.00800           0
     23755 MEMB     206      POPC     C210     CEL1    -0.150000       12.0110           0
     23756 MEMB     206      POPC     H101     HEL1     0.150000       1.00800           0
     23757 MEMB     206      POPC     C211     CTL2    -0.180000       12.0110           0
     23758 MEMB     206      POPC     H11R     HAL2     0.900000E-01   1.00800           0
     23759 MEMB     206      POPC     H11S     HAL2     0.900000E-01   1.00800           0
     23760 MEMB     206      POPC     C212     CTL2    -0.180000       12.0110           0
     23761 MEMB     206      POPC     H12R     HAL2     0.900000E-01   1.00800           0
     23762 MEMB     206      POPC     H12S     HAL2     0.900000E-01   1.00800           0
     23763 MEMB     206      POPC     C213     CTL2    -0.180000       12.0110           0
     23764 MEMB     206      POPC     H13R     HAL2     0.900000E-01   1.00800           0
     23765 MEMB     206      POPC     H13S     HAL2     0.900000E-01   1.00800           0
     23766 MEMB     206      POPC     C214     CTL2    -0.180000       12.0110           0
     23767 MEMB     206      POPC     H14R     HAL2     0.900000E-01   1.00800           0
     23768 MEMB     206      POPC     H14S     HAL2     0.900000E-01   1.00800           0
     23769 MEMB     206      POPC     C215     CTL2    -0.180000       12.0110           0
     23770 MEMB     206      POPC     H15R     HAL2     0.900000E-01   1.00800           0
     23771 MEMB     206      POPC     H15S     HAL2     0.900000E-01   1.00800           0
     23772 MEMB     206      POPC     C216     CTL2    -0.180000       12.0110           0
     23773 MEMB     206      POPC     H16R     HAL2     0.900000E-01   1.00800           0
     23774 MEMB     206      POPC     H16S     HAL2     0.900000E-01   1.00800           0
     23775 MEMB     206      POPC     C217     CTL2    -0.180000       12.0110           0
     23776 MEMB     206      POPC     H17R     HAL2     0.900000E-01   1.00800           0
     23777 MEMB     206      POPC     H17S     HAL2     0.900000E-01   1.00800           0
     23778 MEMB     206      POPC     C218     CTL3    -0.270000       12.0110           0
     23779 MEMB     206      POPC     H18R     HAL3     0.900000E-01   1.00800           0
     23780 MEMB     206      POPC     H18S     HAL3     0.900000E-01   1.00800           0
     23781 MEMB     206      POPC     H18T     HAL3     0.900000E-01   1.00800           0
     23782 MEMB     206      POPC     C33      CTL2    -0.180000       12.0110           0
     23783 MEMB     206      POPC     H3X      HAL2     0.900000E-01   1.00800           0
     23784 MEMB     206      POPC     H3Y      HAL2     0.900000E-01   1.00800           0
     23785 MEMB     206      POPC     C34      CTL2    -0.180000       12.0110           0
     23786 MEMB     206      POPC     H4X      HAL2     0.900000E-01   1.00800           0
     23787 MEMB     206      POPC     H4Y      HAL2     0.900000E-01   1.00800           0
     23788 MEMB     206      POPC     C35      CTL2    -0.180000       12.0110           0
     23789 MEMB     206      POPC     H5X      HAL2     0.900000E-01   1.00800           0
     23790 MEMB     206      POPC     H5Y      HAL2     0.900000E-01   1.00800           0
     23791 MEMB     206      POPC     C36      CTL2    -0.180000       12.0110           0
     23792 MEMB     206      POPC     H6X      HAL2     0.900000E-01   1.00800           0
     23793 MEMB     206      POPC     H6Y      HAL2     0.900000E-01   1.00800           0
     23794 MEMB     206      POPC     C37      CTL2    -0.180000       12.0110           0
     23795 MEMB     206      POPC     H7X      HAL2     0.900000E-01   1.00800           0
     23796 MEMB     206      POPC     H7Y      HAL2     0.900000E-01   1.00800           0
     23797 MEMB     206      POPC     C38      CTL2    -0.180000       12.0110           0
     23798 MEMB     206      POPC     H8X      HAL2     0.900000E-01   1.00800           0
     23799 MEMB     206      POPC     H8Y      HAL2     0.900000E-01   1.00800           0
     23800 MEMB     206      POPC     C39      CTL2    -0.180000       12.0110           0
     23801 MEMB     206      POPC     H9X      HAL2     0.900000E-01   1.00800           0
     23802 MEMB     206      POPC     H9Y      HAL2     0.900000E-01   1.00800           0
     23803 MEMB     206      POPC     C310     CTL2    -0.180000       12.0110           0
     23804 MEMB     206      POPC     H10X     HAL2     0.900000E-01   1.00800           0
     23805 MEMB     206      POPC     H10Y     HAL2     0.900000E-01   1.00800           0
     23806 MEMB     206      POPC     C311     CTL2    -0.180000       12.0110           0
     23807 MEMB     206      POPC     H11X     HAL2     0.900000E-01   1.00800           0
     23808 MEMB     206      POPC     H11Y     HAL2     0.900000E-01   1.00800           0
     23809 MEMB     206      POPC     C312     CTL2    -0.180000       12.0110           0
     23810 MEMB     206      POPC     H12X     HAL2     0.900000E-01   1.00800           0
     23811 MEMB     206      POPC     H12Y     HAL2     0.900000E-01   1.00800           0
     23812 MEMB     206      POPC     C313     CTL2    -0.180000       12.0110           0
     23813 MEMB     206      POPC     H13X     HAL2     0.900000E-01   1.00800           0
     23814 MEMB     206      POPC     H13Y     HAL2     0.900000E-01   1.00800           0
     23815 MEMB     206      POPC     C314     CTL2    -0.180000       12.0110           0
     23816 MEMB     206      POPC     H14X     HAL2     0.900000E-01   1.00800           0
     23817 MEMB     206      POPC     H14Y     HAL2     0.900000E-01   1.00800           0
     23818 MEMB     206      POPC     C315     CTL2    -0.180000       12.0110           0
     23819 MEMB     206      POPC     H15X     HAL2     0.900000E-01   1.00800           0
     23820 MEMB     206      POPC     H15Y     HAL2     0.900000E-01   1.00800           0
     23821 MEMB     206      POPC     C316     CTL3    -0.270000       12.0110           0
     23822 MEMB     206      POPC     H16X     HAL3     0.900000E-01   1.00800           0
     23823 MEMB     206      POPC     H16Y     HAL3     0.900000E-01   1.00800           0
     23824 MEMB     206      POPC     H16Z     HAL3     0.900000E-01   1.00800           0
     23825 MEMB     207      POPC     N        NTL     -0.600000       14.0070           0
     23826 MEMB     207      POPC     C12      CTL2    -0.100000       12.0110           0
     23827 MEMB     207      POPC     H12A     HL       0.250000       1.00800           0
     23828 MEMB     207      POPC     H12B     HL       0.250000       1.00800           0
     23829 MEMB     207      POPC     C13      CTL5    -0.350000       12.0110           0
     23830 MEMB     207      POPC     H13A     HL       0.250000       1.00800           0
     23831 MEMB     207      POPC     H13B     HL       0.250000       1.00800           0
     23832 MEMB     207      POPC     H13C     HL       0.250000       1.00800           0
     23833 MEMB     207      POPC     C14      CTL5    -0.350000       12.0110           0
     23834 MEMB     207      POPC     H14A     HL       0.250000       1.00800           0
     23835 MEMB     207      POPC     H14B     HL       0.250000       1.00800           0
     23836 MEMB     207      POPC     H14C     HL       0.250000       1.00800           0
     23837 MEMB     207      POPC     C15      CTL5    -0.350000       12.0110           0
     23838 MEMB     207      POPC     H15A     HL       0.250000       1.00800           0
     23839 MEMB     207      POPC     H15B     HL       0.250000       1.00800           0
     23840 MEMB     207      POPC     H15C     HL       0.250000       1.00800           0
     23841 MEMB     207      POPC     C11      CTL2    -0.800000E-01   12.0110           0
     23842 MEMB     207      POPC     H11A     HAL2     0.900000E-01   1.00800           0
     23843 MEMB     207      POPC     H11B     HAL2     0.900000E-01   1.00800           0
     23844 MEMB     207      POPC     P        PL        1.50000       30.9740           0
     23845 MEMB     207      POPC     O13      O2L     -0.780000       15.9994           0
     23846 MEMB     207      POPC     O14      O2L     -0.780000       15.9994           0
     23847 MEMB     207      POPC     O12      OSLP    -0.570000       15.9994           0
     23848 MEMB     207      POPC     O11      OSLP    -0.570000       15.9994           0
     23849 MEMB     207      POPC     C1       CTL2    -0.800000E-01   12.0110           0
     23850 MEMB     207      POPC     HA       HAL2     0.900000E-01   1.00800           0
     23851 MEMB     207      POPC     HB       HAL2     0.900000E-01   1.00800           0
     23852 MEMB     207      POPC     C2       CTL1     0.170000       12.0110           0
     23853 MEMB     207      POPC     HS       HAL1     0.900000E-01   1.00800           0
     23854 MEMB     207      POPC     O21      OSL     -0.490000       15.9994           0
     23855 MEMB     207      POPC     C21      CL       0.900000       12.0110           0
     23856 MEMB     207      POPC     O22      OBL     -0.630000       15.9994           0
     23857 MEMB     207      POPC     C22      CTL2    -0.220000       12.0110           0
     23858 MEMB     207      POPC     H2R      HAL2     0.900000E-01   1.00800           0
     23859 MEMB     207      POPC     H2S      HAL2     0.900000E-01   1.00800           0
     23860 MEMB     207      POPC     C3       CTL2     0.800000E-01   12.0110           0
     23861 MEMB     207      POPC     HX       HAL2     0.900000E-01   1.00800           0
     23862 MEMB     207      POPC     HY       HAL2     0.900000E-01   1.00800           0
     23863 MEMB     207      POPC     O31      OSL     -0.490000       15.9994           0
     23864 MEMB     207      POPC     C31      CL       0.900000       12.0110           0
     23865 MEMB     207      POPC     O32      OBL     -0.630000       15.9994           0
     23866 MEMB     207      POPC     C32      CTL2    -0.220000       12.0110           0
     23867 MEMB     207      POPC     H2X      HAL2     0.900000E-01   1.00800           0
     23868 MEMB     207      POPC     H2Y      HAL2     0.900000E-01   1.00800           0
     23869 MEMB     207      POPC     C23      CTL2    -0.180000       12.0110           0
     23870 MEMB     207      POPC     H3R      HAL2     0.900000E-01   1.00800           0
     23871 MEMB     207      POPC     H3S      HAL2     0.900000E-01   1.00800           0
     23872 MEMB     207      POPC     C24      CTL2    -0.180000       12.0110           0
     23873 MEMB     207      POPC     H4R      HAL2     0.900000E-01   1.00800           0
     23874 MEMB     207      POPC     H4S      HAL2     0.900000E-01   1.00800           0
     23875 MEMB     207      POPC     C25      CTL2    -0.180000       12.0110           0
     23876 MEMB     207      POPC     H5R      HAL2     0.900000E-01   1.00800           0
     23877 MEMB     207      POPC     H5S      HAL2     0.900000E-01   1.00800           0
     23878 MEMB     207      POPC     C26      CTL2    -0.180000       12.0110           0
     23879 MEMB     207      POPC     H6R      HAL2     0.900000E-01   1.00800           0
     23880 MEMB     207      POPC     H6S      HAL2     0.900000E-01   1.00800           0
     23881 MEMB     207      POPC     C27      CTL2    -0.180000       12.0110           0
     23882 MEMB     207      POPC     H7R      HAL2     0.900000E-01   1.00800           0
     23883 MEMB     207      POPC     H7S      HAL2     0.900000E-01   1.00800           0
     23884 MEMB     207      POPC     C28      CTL2    -0.180000       12.0110           0
     23885 MEMB     207      POPC     H8R      HAL2     0.900000E-01   1.00800           0
     23886 MEMB     207      POPC     H8S      HAL2     0.900000E-01   1.00800           0
     23887 MEMB     207      POPC     C29      CEL1    -0.150000       12.0110           0
     23888 MEMB     207      POPC     H91      HEL1     0.150000       1.00800           0
     23889 MEMB     207      POPC     C210     CEL1    -0.150000       12.0110           0
     23890 MEMB     207      POPC     H101     HEL1     0.150000       1.00800           0
     23891 MEMB     207      POPC     C211     CTL2    -0.180000       12.0110           0
     23892 MEMB     207      POPC     H11R     HAL2     0.900000E-01   1.00800           0
     23893 MEMB     207      POPC     H11S     HAL2     0.900000E-01   1.00800           0
     23894 MEMB     207      POPC     C212     CTL2    -0.180000       12.0110           0
     23895 MEMB     207      POPC     H12R     HAL2     0.900000E-01   1.00800           0
     23896 MEMB     207      POPC     H12S     HAL2     0.900000E-01   1.00800           0
     23897 MEMB     207      POPC     C213     CTL2    -0.180000       12.0110           0
     23898 MEMB     207      POPC     H13R     HAL2     0.900000E-01   1.00800           0
     23899 MEMB     207      POPC     H13S     HAL2     0.900000E-01   1.00800           0
     23900 MEMB     207      POPC     C214     CTL2    -0.180000       12.0110           0
     23901 MEMB     207      POPC     H14R     HAL2     0.900000E-01   1.00800           0
     23902 MEMB     207      POPC     H14S     HAL2     0.900000E-01   1.00800           0
     23903 MEMB     207      POPC     C215     CTL2    -0.180000       12.0110           0
     23904 MEMB     207      POPC     H15R     HAL2     0.900000E-01   1.00800           0
     23905 MEMB     207      POPC     H15S     HAL2     0.900000E-01   1.00800           0
     23906 MEMB     207      POPC     C216     CTL2    -0.180000       12.0110           0
     23907 MEMB     207      POPC     H16R     HAL2     0.900000E-01   1.00800           0
     23908 MEMB     207      POPC     H16S     HAL2     0.900000E-01   1.00800           0
     23909 MEMB     207      POPC     C217     CTL2    -0.180000       12.0110           0
     23910 MEMB     207      POPC     H17R     HAL2     0.900000E-01   1.00800           0
     23911 MEMB     207      POPC     H17S     HAL2     0.900000E-01   1.00800           0
     23912 MEMB     207      POPC     C218     CTL3    -0.270000       12.0110           0
     23913 MEMB     207      POPC     H18R     HAL3     0.900000E-01   1.00800           0
     23914 MEMB     207      POPC     H18S     HAL3     0.900000E-01   1.00800           0
     23915 MEMB     207      POPC     H18T     HAL3     0.900000E-01   1.00800           0
     23916 MEMB     207      POPC     C33      CTL2    -0.180000       12.0110           0
     23917 MEMB     207      POPC     H3X      HAL2     0.900000E-01   1.00800           0
     23918 MEMB     207      POPC     H3Y      HAL2     0.900000E-01   1.00800           0
     23919 MEMB     207      POPC     C34      CTL2    -0.180000       12.0110           0
     23920 MEMB     207      POPC     H4X      HAL2     0.900000E-01   1.00800           0
     23921 MEMB     207      POPC     H4Y      HAL2     0.900000E-01   1.00800           0
     23922 MEMB     207      POPC     C35      CTL2    -0.180000       12.0110           0
     23923 MEMB     207      POPC     H5X      HAL2     0.900000E-01   1.00800           0
     23924 MEMB     207      POPC     H5Y      HAL2     0.900000E-01   1.00800           0
     23925 MEMB     207      POPC     C36      CTL2    -0.180000       12.0110           0
     23926 MEMB     207      POPC     H6X      HAL2     0.900000E-01   1.00800           0
     23927 MEMB     207      POPC     H6Y      HAL2     0.900000E-01   1.00800           0
     23928 MEMB     207      POPC     C37      CTL2    -0.180000       12.0110           0
     23929 MEMB     207      POPC     H7X      HAL2     0.900000E-01   1.00800           0
     23930 MEMB     207      POPC     H7Y      HAL2     0.900000E-01   1.00800           0
     23931 MEMB     207      POPC     C38      CTL2    -0.180000       12.0110           0
     23932 MEMB     207      POPC     H8X      HAL2     0.900000E-01   1.00800           0
     23933 MEMB     207      POPC     H8Y      HAL2     0.900000E-01   1.00800           0
     23934 MEMB     207      POPC     C39      CTL2    -0.180000       12.0110           0
     23935 MEMB     207      POPC     H9X      HAL2     0.900000E-01   1.00800           0
     23936 MEMB     207      POPC     H9Y      HAL2     0.900000E-01   1.00800           0
     23937 MEMB     207      POPC     C310     CTL2    -0.180000       12.0110           0
     23938 MEMB     207      POPC     H10X     HAL2     0.900000E-01   1.00800           0
     23939 MEMB     207      POPC     H10Y     HAL2     0.900000E-01   1.00800           0
     23940 MEMB     207      POPC     C311     CTL2    -0.180000       12.0110           0
     23941 MEMB     207      POPC     H11X     HAL2     0.900000E-01   1.00800           0
     23942 MEMB     207      POPC     H11Y     HAL2     0.900000E-01   1.00800           0
     23943 MEMB     207      POPC     C312     CTL2    -0.180000       12.0110           0
     23944 MEMB     207      POPC     H12X     HAL2     0.900000E-01   1.00800           0
     23945 MEMB     207      POPC     H12Y     HAL2     0.900000E-01   1.00800           0
     23946 MEMB     207      POPC     C313     CTL2    -0.180000       12.0110           0
     23947 MEMB     207      POPC     H13X     HAL2     0.900000E-01   1.00800           0
     23948 MEMB     207      POPC     H13Y     HAL2     0.900000E-01   1.00800           0
     23949 MEMB     207      POPC     C314     CTL2    -0.180000       12.0110           0
     23950 MEMB     207      POPC     H14X     HAL2     0.900000E-01   1.00800           0
     23951 MEMB     207      POPC     H14Y     HAL2     0.900000E-01   1.00800           0
     23952 MEMB     207      POPC     C315     CTL2    -0.180000       12.0110           0
     23953 MEMB     207      POPC     H15X     HAL2     0.900000E-01   1.00800           0
     23954 MEMB     207      POPC     H15Y     HAL2     0.900000E-01   1.00800           0
     23955 MEMB     207      POPC     C316     CTL3    -0.270000       12.0110           0
     23956 MEMB     207      POPC     H16X     HAL3     0.900000E-01   1.00800           0
     23957 MEMB     207      POPC     H16Y     HAL3     0.900000E-01   1.00800           0
     23958 MEMB     207      POPC     H16Z     HAL3     0.900000E-01   1.00800           0
     23959 MEMB     208      POPC     N        NTL     -0.600000       14.0070           0
     23960 MEMB     208      POPC     C12      CTL2    -0.100000       12.0110           0
     23961 MEMB     208      POPC     H12A     HL       0.250000       1.00800           0
     23962 MEMB     208      POPC     H12B     HL       0.250000       1.00800           0
     23963 MEMB     208      POPC     C13      CTL5    -0.350000       12.0110           0
     23964 MEMB     208      POPC     H13A     HL       0.250000       1.00800           0
     23965 MEMB     208      POPC     H13B     HL       0.250000       1.00800           0
     23966 MEMB     208      POPC     H13C     HL       0.250000       1.00800           0
     23967 MEMB     208      POPC     C14      CTL5    -0.350000       12.0110           0
     23968 MEMB     208      POPC     H14A     HL       0.250000       1.00800           0
     23969 MEMB     208      POPC     H14B     HL       0.250000       1.00800           0
     23970 MEMB     208      POPC     H14C     HL       0.250000       1.00800           0
     23971 MEMB     208      POPC     C15      CTL5    -0.350000       12.0110           0
     23972 MEMB     208      POPC     H15A     HL       0.250000       1.00800           0
     23973 MEMB     208      POPC     H15B     HL       0.250000       1.00800           0
     23974 MEMB     208      POPC     H15C     HL       0.250000       1.00800           0
     23975 MEMB     208      POPC     C11      CTL2    -0.800000E-01   12.0110           0
     23976 MEMB     208      POPC     H11A     HAL2     0.900000E-01   1.00800           0
     23977 MEMB     208      POPC     H11B     HAL2     0.900000E-01   1.00800           0
     23978 MEMB     208      POPC     P        PL        1.50000       30.9740           0
     23979 MEMB     208      POPC     O13      O2L     -0.780000       15.9994           0
     23980 MEMB     208      POPC     O14      O2L     -0.780000       15.9994           0
     23981 MEMB     208      POPC     O12      OSLP    -0.570000       15.9994           0
     23982 MEMB     208      POPC     O11      OSLP    -0.570000       15.9994           0
     23983 MEMB     208      POPC     C1       CTL2    -0.800000E-01   12.0110           0
     23984 MEMB     208      POPC     HA       HAL2     0.900000E-01   1.00800           0
     23985 MEMB     208      POPC     HB       HAL2     0.900000E-01   1.00800           0
     23986 MEMB     208      POPC     C2       CTL1     0.170000       12.0110           0
     23987 MEMB     208      POPC     HS       HAL1     0.900000E-01   1.00800           0
     23988 MEMB     208      POPC     O21      OSL     -0.490000       15.9994           0
     23989 MEMB     208      POPC     C21      CL       0.900000       12.0110           0
     23990 MEMB     208      POPC     O22      OBL     -0.630000       15.9994           0
     23991 MEMB     208      POPC     C22      CTL2    -0.220000       12.0110           0
     23992 MEMB     208      POPC     H2R      HAL2     0.900000E-01   1.00800           0
     23993 MEMB     208      POPC     H2S      HAL2     0.900000E-01   1.00800           0
     23994 MEMB     208      POPC     C3       CTL2     0.800000E-01   12.0110           0
     23995 MEMB     208      POPC     HX       HAL2     0.900000E-01   1.00800           0
     23996 MEMB     208      POPC     HY       HAL2     0.900000E-01   1.00800           0
     23997 MEMB     208      POPC     O31      OSL     -0.490000       15.9994           0
     23998 MEMB     208      POPC     C31      CL       0.900000       12.0110           0
     23999 MEMB     208      POPC     O32      OBL     -0.630000       15.9994           0
     24000 MEMB     208      POPC     C32      CTL2    -0.220000       12.0110           0
     24001 MEMB     208      POPC     H2X      HAL2     0.900000E-01   1.00800           0
     24002 MEMB     208      POPC     H2Y      HAL2     0.900000E-01   1.00800           0
     24003 MEMB     208      POPC     C23      CTL2    -0.180000       12.0110           0
     24004 MEMB     208      POPC     H3R      HAL2     0.900000E-01   1.00800           0
     24005 MEMB     208      POPC     H3S      HAL2     0.900000E-01   1.00800           0
     24006 MEMB     208      POPC     C24      CTL2    -0.180000       12.0110           0
     24007 MEMB     208      POPC     H4R      HAL2     0.900000E-01   1.00800           0
     24008 MEMB     208      POPC     H4S      HAL2     0.900000E-01   1.00800           0
     24009 MEMB     208      POPC     C25      CTL2    -0.180000       12.0110           0
     24010 MEMB     208      POPC     H5R      HAL2     0.900000E-01   1.00800           0
     24011 MEMB     208      POPC     H5S      HAL2     0.900000E-01   1.00800           0
     24012 MEMB     208      POPC     C26      CTL2    -0.180000       12.0110           0
     24013 MEMB     208      POPC     H6R      HAL2     0.900000E-01   1.00800           0
     24014 MEMB     208      POPC     H6S      HAL2     0.900000E-01   1.00800           0
     24015 MEMB     208      POPC     C27      CTL2    -0.180000       12.0110           0
     24016 MEMB     208      POPC     H7R      HAL2     0.900000E-01   1.00800           0
     24017 MEMB     208      POPC     H7S      HAL2     0.900000E-01   1.00800           0
     24018 MEMB     208      POPC     C28      CTL2    -0.180000       12.0110           0
     24019 MEMB     208      POPC     H8R      HAL2     0.900000E-01   1.00800           0
     24020 MEMB     208      POPC     H8S      HAL2     0.900000E-01   1.00800           0
     24021 MEMB     208      POPC     C29      CEL1    -0.150000       12.0110           0
     24022 MEMB     208      POPC     H91      HEL1     0.150000       1.00800           0
     24023 MEMB     208      POPC     C210     CEL1    -0.150000       12.0110           0
     24024 MEMB     208      POPC     H101     HEL1     0.150000       1.00800           0
     24025 MEMB     208      POPC     C211     CTL2    -0.180000       12.0110           0
     24026 MEMB     208      POPC     H11R     HAL2     0.900000E-01   1.00800           0
     24027 MEMB     208      POPC     H11S     HAL2     0.900000E-01   1.00800           0
     24028 MEMB     208      POPC     C212     CTL2    -0.180000       12.0110           0
     24029 MEMB     208      POPC     H12R     HAL2     0.900000E-01   1.00800           0
     24030 MEMB     208      POPC     H12S     HAL2     0.900000E-01   1.00800           0
     24031 MEMB     208      POPC     C213     CTL2    -0.180000       12.0110           0
     24032 MEMB     208      POPC     H13R     HAL2     0.900000E-01   1.00800           0
     24033 MEMB     208      POPC     H13S     HAL2     0.900000E-01   1.00800           0
     24034 MEMB     208      POPC     C214     CTL2    -0.180000       12.0110           0
     24035 MEMB     208      POPC     H14R     HAL2     0.900000E-01   1.00800           0
     24036 MEMB     208      POPC     H14S     HAL2     0.900000E-01   1.00800           0
     24037 MEMB     208      POPC     C215     CTL2    -0.180000       12.0110           0
     24038 MEMB     208      POPC     H15R     HAL2     0.900000E-01   1.00800           0
     24039 MEMB     208      POPC     H15S     HAL2     0.900000E-01   1.00800           0
     24040 MEMB     208      POPC     C216     CTL2    -0.180000       12.0110           0
     24041 MEMB     208      POPC     H16R     HAL2     0.900000E-01   1.00800           0
     24042 MEMB     208      POPC     H16S     HAL2     0.900000E-01   1.00800           0
     24043 MEMB     208      POPC     C217     CTL2    -0.180000       12.0110           0
     24044 MEMB     208      POPC     H17R     HAL2     0.900000E-01   1.00800           0
     24045 MEMB     208      POPC     H17S     HAL2     0.900000E-01   1.00800           0
     24046 MEMB     208      POPC     C218     CTL3    -0.270000       12.0110           0
     24047 MEMB     208      POPC     H18R     HAL3     0.900000E-01   1.00800           0
     24048 MEMB     208      POPC     H18S     HAL3     0.900000E-01   1.00800           0
     24049 MEMB     208      POPC     H18T     HAL3     0.900000E-01   1.00800           0
     24050 MEMB     208      POPC     C33      CTL2    -0.180000       12.0110           0
     24051 MEMB     208      POPC     H3X      HAL2     0.900000E-01   1.00800           0
     24052 MEMB     208      POPC     H3Y      HAL2     0.900000E-01   1.00800           0
     24053 MEMB     208      POPC     C34      CTL2    -0.180000       12.0110           0
     24054 MEMB     208      POPC     H4X      HAL2     0.900000E-01   1.00800           0
     24055 MEMB     208      POPC     H4Y      HAL2     0.900000E-01   1.00800           0
     24056 MEMB     208      POPC     C35      CTL2    -0.180000       12.0110           0
     24057 MEMB     208      POPC     H5X      HAL2     0.900000E-01   1.00800           0
     24058 MEMB     208      POPC     H5Y      HAL2     0.900000E-01   1.00800           0
     24059 MEMB     208      POPC     C36      CTL2    -0.180000       12.0110           0
     24060 MEMB     208      POPC     H6X      HAL2     0.900000E-01   1.00800           0
     24061 MEMB     208      POPC     H6Y      HAL2     0.900000E-01   1.00800           0
     24062 MEMB     208      POPC     C37      CTL2    -0.180000       12.0110           0
     24063 MEMB     208      POPC     H7X      HAL2     0.900000E-01   1.00800           0
     24064 MEMB     208      POPC     H7Y      HAL2     0.900000E-01   1.00800           0
     24065 MEMB     208      POPC     C38      CTL2    -0.180000       12.0110           0
     24066 MEMB     208      POPC     H8X      HAL2     0.900000E-01   1.00800           0
     24067 MEMB     208      POPC     H8Y      HAL2     0.900000E-01   1.00800           0
     24068 MEMB     208      POPC     C39      CTL2    -0.180000       12.0110           0
     24069 MEMB     208      POPC     H9X      HAL2     0.900000E-01   1.00800           0
     24070 MEMB     208      POPC     H9Y      HAL2     0.900000E-01   1.00800           0
     24071 MEMB     208      POPC     C310     CTL2    -0.180000       12.0110           0
     24072 MEMB     208      POPC     H10X     HAL2     0.900000E-01   1.00800           0
     24073 MEMB     208      POPC     H10Y     HAL2     0.900000E-01   1.00800           0
     24074 MEMB     208      POPC     C311     CTL2    -0.180000       12.0110           0
     24075 MEMB     208      POPC     H11X     HAL2     0.900000E-01   1.00800           0
     24076 MEMB     208      POPC     H11Y     HAL2     0.900000E-01   1.00800           0
     24077 MEMB     208      POPC     C312     CTL2    -0.180000       12.0110           0
     24078 MEMB     208      POPC     H12X     HAL2     0.900000E-01   1.00800           0
     24079 MEMB     208      POPC     H12Y     HAL2     0.900000E-01   1.00800           0
     24080 MEMB     208      POPC     C313     CTL2    -0.180000       12.0110           0
     24081 MEMB     208      POPC     H13X     HAL2     0.900000E-01   1.00800           0
     24082 MEMB     208      POPC     H13Y     HAL2     0.900000E-01   1.00800           0
     24083 MEMB     208      POPC     C314     CTL2    -0.180000       12.0110           0
     24084 MEMB     208      POPC     H14X     HAL2     0.900000E-01   1.00800           0
     24085 MEMB     208      POPC     H14Y     HAL2     0.900000E-01   1.00800           0
     24086 MEMB     208      POPC     C315     CTL2    -0.180000       12.0110           0
     24087 MEMB     208      POPC     H15X     HAL2     0.900000E-01   1.00800           0
     24088 MEMB     208      POPC     H15Y     HAL2     0.900000E-01   1.00800           0
     24089 MEMB     208      POPC     C316     CTL3    -0.270000       12.0110           0
     24090 MEMB     208      POPC     H16X     HAL3     0.900000E-01   1.00800           0
     24091 MEMB     208      POPC     H16Y     HAL3     0.900000E-01   1.00800           0
     24092 MEMB     208      POPC     H16Z     HAL3     0.900000E-01   1.00800           0
     24093 MEMB     209      POPC     N        NTL     -0.600000       14.0070           0
     24094 MEMB     209      POPC     C12      CTL2    -0.100000       12.0110           0
     24095 MEMB     209      POPC     H12A     HL       0.250000       1.00800           0
     24096 MEMB     209      POPC     H12B     HL       0.250000       1.00800           0
     24097 MEMB     209      POPC     C13      CTL5    -0.350000       12.0110           0
     24098 MEMB     209      POPC     H13A     HL       0.250000       1.00800           0
     24099 MEMB     209      POPC     H13B     HL       0.250000       1.00800           0
     24100 MEMB     209      POPC     H13C     HL       0.250000       1.00800           0
     24101 MEMB     209      POPC     C14      CTL5    -0.350000       12.0110           0
     24102 MEMB     209      POPC     H14A     HL       0.250000       1.00800           0
     24103 MEMB     209      POPC     H14B     HL       0.250000       1.00800           0
     24104 MEMB     209      POPC     H14C     HL       0.250000       1.00800           0
     24105 MEMB     209      POPC     C15      CTL5    -0.350000       12.0110           0
     24106 MEMB     209      POPC     H15A     HL       0.250000       1.00800           0
     24107 MEMB     209      POPC     H15B     HL       0.250000       1.00800           0
     24108 MEMB     209      POPC     H15C     HL       0.250000       1.00800           0
     24109 MEMB     209      POPC     C11      CTL2    -0.800000E-01   12.0110           0
     24110 MEMB     209      POPC     H11A     HAL2     0.900000E-01   1.00800           0
     24111 MEMB     209      POPC     H11B     HAL2     0.900000E-01   1.00800           0
     24112 MEMB     209      POPC     P        PL        1.50000       30.9740           0
     24113 MEMB     209      POPC     O13      O2L     -0.780000       15.9994           0
     24114 MEMB     209      POPC     O14      O2L     -0.780000       15.9994           0
     24115 MEMB     209      POPC     O12      OSLP    -0.570000       15.9994           0
     24116 MEMB     209      POPC     O11      OSLP    -0.570000       15.9994           0
     24117 MEMB     209      POPC     C1       CTL2    -0.800000E-01   12.0110           0
     24118 MEMB     209      POPC     HA       HAL2     0.900000E-01   1.00800           0
     24119 MEMB     209      POPC     HB       HAL2     0.900000E-01   1.00800           0
     24120 MEMB     209      POPC     C2       CTL1     0.170000       12.0110           0
     24121 MEMB     209      POPC     HS       HAL1     0.900000E-01   1.00800           0
     24122 MEMB     209      POPC     O21      OSL     -0.490000       15.9994           0
     24123 MEMB     209      POPC     C21      CL       0.900000       12.0110           0
     24124 MEMB     209      POPC     O22      OBL     -0.630000       15.9994           0
     24125 MEMB     209      POPC     C22      CTL2    -0.220000       12.0110           0
     24126 MEMB     209      POPC     H2R      HAL2     0.900000E-01   1.00800           0
     24127 MEMB     209      POPC     H2S      HAL2     0.900000E-01   1.00800           0
     24128 MEMB     209      POPC     C3       CTL2     0.800000E-01   12.0110           0
     24129 MEMB     209      POPC     HX       HAL2     0.900000E-01   1.00800           0
     24130 MEMB     209      POPC     HY       HAL2     0.900000E-01   1.00800           0
     24131 MEMB     209      POPC     O31      OSL     -0.490000       15.9994           0
     24132 MEMB     209      POPC     C31      CL       0.900000       12.0110           0
     24133 MEMB     209      POPC     O32      OBL     -0.630000       15.9994           0
     24134 MEMB     209      POPC     C32      CTL2    -0.220000       12.0110           0
     24135 MEMB     209      POPC     H2X      HAL2     0.900000E-01   1.00800           0
     24136 MEMB     209      POPC     H2Y      HAL2     0.900000E-01   1.00800           0
     24137 MEMB     209      POPC     C23      CTL2    -0.180000       12.0110           0
     24138 MEMB     209      POPC     H3R      HAL2     0.900000E-01   1.00800           0
     24139 MEMB     209      POPC     H3S      HAL2     0.900000E-01   1.00800           0
     24140 MEMB     209      POPC     C24      CTL2    -0.180000       12.0110           0
     24141 MEMB     209      POPC     H4R      HAL2     0.900000E-01   1.00800           0
     24142 MEMB     209      POPC     H4S      HAL2     0.900000E-01   1.00800           0
     24143 MEMB     209      POPC     C25      CTL2    -0.180000       12.0110           0
     24144 MEMB     209      POPC     H5R      HAL2     0.900000E-01   1.00800           0
     24145 MEMB     209      POPC     H5S      HAL2     0.900000E-01   1.00800           0
     24146 MEMB     209      POPC     C26      CTL2    -0.180000       12.0110           0
     24147 MEMB     209      POPC     H6R      HAL2     0.900000E-01   1.00800           0
     24148 MEMB     209      POPC     H6S      HAL2     0.900000E-01   1.00800           0
     24149 MEMB     209      POPC     C27      CTL2    -0.180000       12.0110           0
     24150 MEMB     209      POPC     H7R      HAL2     0.900000E-01   1.00800           0
     24151 MEMB     209      POPC     H7S      HAL2     0.900000E-01   1.00800           0
     24152 MEMB     209      POPC     C28      CTL2    -0.180000       12.0110           0
     24153 MEMB     209      POPC     H8R      HAL2     0.900000E-01   1.00800           0
     24154 MEMB     209      POPC     H8S      HAL2     0.900000E-01   1.00800           0
     24155 MEMB     209      POPC     C29      CEL1    -0.150000       12.0110           0
     24156 MEMB     209      POPC     H91      HEL1     0.150000       1.00800           0
     24157 MEMB     209      POPC     C210     CEL1    -0.150000       12.0110           0
     24158 MEMB     209      POPC     H101     HEL1     0.150000       1.00800           0
     24159 MEMB     209      POPC     C211     CTL2    -0.180000       12.0110           0
     24160 MEMB     209      POPC     H11R     HAL2     0.900000E-01   1.00800           0
     24161 MEMB     209      POPC     H11S     HAL2     0.900000E-01   1.00800           0
     24162 MEMB     209      POPC     C212     CTL2    -0.180000       12.0110           0
     24163 MEMB     209      POPC     H12R     HAL2     0.900000E-01   1.00800           0
     24164 MEMB     209      POPC     H12S     HAL2     0.900000E-01   1.00800           0
     24165 MEMB     209      POPC     C213     CTL2    -0.180000       12.0110           0
     24166 MEMB     209      POPC     H13R     HAL2     0.900000E-01   1.00800           0
     24167 MEMB     209      POPC     H13S     HAL2     0.900000E-01   1.00800           0
     24168 MEMB     209      POPC     C214     CTL2    -0.180000       12.0110           0
     24169 MEMB     209      POPC     H14R     HAL2     0.900000E-01   1.00800           0
     24170 MEMB     209      POPC     H14S     HAL2     0.900000E-01   1.00800           0
     24171 MEMB     209      POPC     C215     CTL2    -0.180000       12.0110           0
     24172 MEMB     209      POPC     H15R     HAL2     0.900000E-01   1.00800           0
     24173 MEMB     209      POPC     H15S     HAL2     0.900000E-01   1.00800           0
     24174 MEMB     209      POPC     C216     CTL2    -0.180000       12.0110           0
     24175 MEMB     209      POPC     H16R     HAL2     0.900000E-01   1.00800           0
     24176 MEMB     209      POPC     H16S     HAL2     0.900000E-01   1.00800           0
     24177 MEMB     209      POPC     C217     CTL2    -0.180000       12.0110           0
     24178 MEMB     209      POPC     H17R     HAL2     0.900000E-01   1.00800           0
     24179 MEMB     209      POPC     H17S     HAL2     0.900000E-01   1.00800           0
     24180 MEMB     209      POPC     C218     CTL3    -0.270000       12.0110           0
     24181 MEMB     209      POPC     H18R     HAL3     0.900000E-01   1.00800           0
     24182 MEMB     209      POPC     H18S     HAL3     0.900000E-01   1.00800           0
     24183 MEMB     209      POPC     H18T     HAL3     0.900000E-01   1.00800           0
     24184 MEMB     209      POPC     C33      CTL2    -0.180000       12.0110           0
     24185 MEMB     209      POPC     H3X      HAL2     0.900000E-01   1.00800           0
     24186 MEMB     209      POPC     H3Y      HAL2     0.900000E-01   1.00800           0
     24187 MEMB     209      POPC     C34      CTL2    -0.180000       12.0110           0
     24188 MEMB     209      POPC     H4X      HAL2     0.900000E-01   1.00800           0
     24189 MEMB     209      POPC     H4Y      HAL2     0.900000E-01   1.00800           0
     24190 MEMB     209      POPC     C35      CTL2    -0.180000       12.0110           0
     24191 MEMB     209      POPC     H5X      HAL2     0.900000E-01   1.00800           0
     24192 MEMB     209      POPC     H5Y      HAL2     0.900000E-01   1.00800           0
     24193 MEMB     209      POPC     C36      CTL2    -0.180000       12.0110           0
     24194 MEMB     209      POPC     H6X      HAL2     0.900000E-01   1.00800           0
     24195 MEMB     209      POPC     H6Y      HAL2     0.900000E-01   1.00800           0
     24196 MEMB     209      POPC     C37      CTL2    -0.180000       12.0110           0
     24197 MEMB     209      POPC     H7X      HAL2     0.900000E-01   1.00800           0
     24198 MEMB     209      POPC     H7Y      HAL2     0.900000E-01   1.00800           0
     24199 MEMB     209      POPC     C38      CTL2    -0.180000       12.0110           0
     24200 MEMB     209      POPC     H8X      HAL2     0.900000E-01   1.00800           0
     24201 MEMB     209      POPC     H8Y      HAL2     0.900000E-01   1.00800           0
     24202 MEMB     209      POPC     C39      CTL2    -0.180000       12.0110           0
     24203 MEMB     209      POPC     H9X      HAL2     0.900000E-01   1.00800           0
     24204 MEMB     209      POPC     H9Y      HAL2     0.900000E-01   1.00800           0
     24205 MEMB     209      POPC     C310     CTL2    -0.180000       12.0110           0
     24206 MEMB     209      POPC     H10X     HAL2     0.900000E-01   1.00800           0
     24207 MEMB     209      POPC     H10Y     HAL2     0.900000E-01   1.00800           0
     24208 MEMB     209      POPC     C311     CTL2    -0.180000       12.0110           0
     24209 MEMB     209      POPC     H11X     HAL2     0.900000E-01   1.00800           0
     24210 MEMB     209      POPC     H11Y     HAL2     0.900000E-01   1.00800           0
     24211 MEMB     209      POPC     C312     CTL2    -0.180000       12.0110           0
     24212 MEMB     209      POPC     H12X     HAL2     0.900000E-01   1.00800           0
     24213 MEMB     209      POPC     H12Y     HAL2     0.900000E-01   1.00800           0
     24214 MEMB     209      POPC     C313     CTL2    -0.180000       12.0110           0
     24215 MEMB     209      POPC     H13X     HAL2     0.900000E-01   1.00800           0
     24216 MEMB     209      POPC     H13Y     HAL2     0.900000E-01   1.00800           0
     24217 MEMB     209      POPC     C314     CTL2    -0.180000       12.0110           0
     24218 MEMB     209      POPC     H14X     HAL2     0.900000E-01   1.00800           0
     24219 MEMB     209      POPC     H14Y     HAL2     0.900000E-01   1.00800           0
     24220 MEMB     209      POPC     C315     CTL2    -0.180000       12.0110           0
     24221 MEMB     209      POPC     H15X     HAL2     0.900000E-01   1.00800           0
     24222 MEMB     209      POPC     H15Y     HAL2     0.900000E-01   1.00800           0
     24223 MEMB     209      POPC     C316     CTL3    -0.270000       12.0110           0
     24224 MEMB     209      POPC     H16X     HAL3     0.900000E-01   1.00800           0
     24225 MEMB     209      POPC     H16Y     HAL3     0.900000E-01   1.00800           0
     24226 MEMB     209      POPC     H16Z     HAL3     0.900000E-01   1.00800           0
     24227 MEMB     210      POPC     N        NTL     -0.600000       14.0070           0
     24228 MEMB     210      POPC     C12      CTL2    -0.100000       12.0110           0
     24229 MEMB     210      POPC     H12A     HL       0.250000       1.00800           0
     24230 MEMB     210      POPC     H12B     HL       0.250000       1.00800           0
     24231 MEMB     210      POPC     C13      CTL5    -0.350000       12.0110           0
     24232 MEMB     210      POPC     H13A     HL       0.250000       1.00800           0
     24233 MEMB     210      POPC     H13B     HL       0.250000       1.00800           0
     24234 MEMB     210      POPC     H13C     HL       0.250000       1.00800           0
     24235 MEMB     210      POPC     C14      CTL5    -0.350000       12.0110           0
     24236 MEMB     210      POPC     H14A     HL       0.250000       1.00800           0
     24237 MEMB     210      POPC     H14B     HL       0.250000       1.00800           0
     24238 MEMB     210      POPC     H14C     HL       0.250000       1.00800           0
     24239 MEMB     210      POPC     C15      CTL5    -0.350000       12.0110           0
     24240 MEMB     210      POPC     H15A     HL       0.250000       1.00800           0
     24241 MEMB     210      POPC     H15B     HL       0.250000       1.00800           0
     24242 MEMB     210      POPC     H15C     HL       0.250000       1.00800           0
     24243 MEMB     210      POPC     C11      CTL2    -0.800000E-01   12.0110           0
     24244 MEMB     210      POPC     H11A     HAL2     0.900000E-01   1.00800           0
     24245 MEMB     210      POPC     H11B     HAL2     0.900000E-01   1.00800           0
     24246 MEMB     210      POPC     P        PL        1.50000       30.9740           0
     24247 MEMB     210      POPC     O13      O2L     -0.780000       15.9994           0
     24248 MEMB     210      POPC     O14      O2L     -0.780000       15.9994           0
     24249 MEMB     210      POPC     O12      OSLP    -0.570000       15.9994           0
     24250 MEMB     210      POPC     O11      OSLP    -0.570000       15.9994           0
     24251 MEMB     210      POPC     C1       CTL2    -0.800000E-01   12.0110           0
     24252 MEMB     210      POPC     HA       HAL2     0.900000E-01   1.00800           0
     24253 MEMB     210      POPC     HB       HAL2     0.900000E-01   1.00800           0
     24254 MEMB     210      POPC     C2       CTL1     0.170000       12.0110           0
     24255 MEMB     210      POPC     HS       HAL1     0.900000E-01   1.00800           0
     24256 MEMB     210      POPC     O21      OSL     -0.490000       15.9994           0
     24257 MEMB     210      POPC     C21      CL       0.900000       12.0110           0
     24258 MEMB     210      POPC     O22      OBL     -0.630000       15.9994           0
     24259 MEMB     210      POPC     C22      CTL2    -0.220000       12.0110           0
     24260 MEMB     210      POPC     H2R      HAL2     0.900000E-01   1.00800           0
     24261 MEMB     210      POPC     H2S      HAL2     0.900000E-01   1.00800           0
     24262 MEMB     210      POPC     C3       CTL2     0.800000E-01   12.0110           0
     24263 MEMB     210      POPC     HX       HAL2     0.900000E-01   1.00800           0
     24264 MEMB     210      POPC     HY       HAL2     0.900000E-01   1.00800           0
     24265 MEMB     210      POPC     O31      OSL     -0.490000       15.9994           0
     24266 MEMB     210      POPC     C31      CL       0.900000       12.0110           0
     24267 MEMB     210      POPC     O32      OBL     -0.630000       15.9994           0
     24268 MEMB     210      POPC     C32      CTL2    -0.220000       12.0110           0
     24269 MEMB     210      POPC     H2X      HAL2     0.900000E-01   1.00800           0
     24270 MEMB     210      POPC     H2Y      HAL2     0.900000E-01   1.00800           0
     24271 MEMB     210      POPC     C23      CTL2    -0.180000       12.0110           0
     24272 MEMB     210      POPC     H3R      HAL2     0.900000E-01   1.00800           0
     24273 MEMB     210      POPC     H3S      HAL2     0.900000E-01   1.00800           0
     24274 MEMB     210      POPC     C24      CTL2    -0.180000       12.0110           0
     24275 MEMB     210      POPC     H4R      HAL2     0.900000E-01   1.00800           0
     24276 MEMB     210      POPC     H4S      HAL2     0.900000E-01   1.00800           0
     24277 MEMB     210      POPC     C25      CTL2    -0.180000       12.0110           0
     24278 MEMB     210      POPC     H5R      HAL2     0.900000E-01   1.00800           0
     24279 MEMB     210      POPC     H5S      HAL2     0.900000E-01   1.00800           0
     24280 MEMB     210      POPC     C26      CTL2    -0.180000       12.0110           0
     24281 MEMB     210      POPC     H6R      HAL2     0.900000E-01   1.00800           0
     24282 MEMB     210      POPC     H6S      HAL2     0.900000E-01   1.00800           0
     24283 MEMB     210      POPC     C27      CTL2    -0.180000       12.0110           0
     24284 MEMB     210      POPC     H7R      HAL2     0.900000E-01   1.00800           0
     24285 MEMB     210      POPC     H7S      HAL2     0.900000E-01   1.00800           0
     24286 MEMB     210      POPC     C28      CTL2    -0.180000       12.0110           0
     24287 MEMB     210      POPC     H8R      HAL2     0.900000E-01   1.00800           0
     24288 MEMB     210      POPC     H8S      HAL2     0.900000E-01   1.00800           0
     24289 MEMB     210      POPC     C29      CEL1    -0.150000       12.0110           0
     24290 MEMB     210      POPC     H91      HEL1     0.150000       1.00800           0
     24291 MEMB     210      POPC     C210     CEL1    -0.150000       12.0110           0
     24292 MEMB     210      POPC     H101     HEL1     0.150000       1.00800           0
     24293 MEMB     210      POPC     C211     CTL2    -0.180000       12.0110           0
     24294 MEMB     210      POPC     H11R     HAL2     0.900000E-01   1.00800           0
     24295 MEMB     210      POPC     H11S     HAL2     0.900000E-01   1.00800           0
     24296 MEMB     210      POPC     C212     CTL2    -0.180000       12.0110           0
     24297 MEMB     210      POPC     H12R     HAL2     0.900000E-01   1.00800           0
     24298 MEMB     210      POPC     H12S     HAL2     0.900000E-01   1.00800           0
     24299 MEMB     210      POPC     C213     CTL2    -0.180000       12.0110           0
     24300 MEMB     210      POPC     H13R     HAL2     0.900000E-01   1.00800           0
     24301 MEMB     210      POPC     H13S     HAL2     0.900000E-01   1.00800           0
     24302 MEMB     210      POPC     C214     CTL2    -0.180000       12.0110           0
     24303 MEMB     210      POPC     H14R     HAL2     0.900000E-01   1.00800           0
     24304 MEMB     210      POPC     H14S     HAL2     0.900000E-01   1.00800           0
     24305 MEMB     210      POPC     C215     CTL2    -0.180000       12.0110           0
     24306 MEMB     210      POPC     H15R     HAL2     0.900000E-01   1.00800           0
     24307 MEMB     210      POPC     H15S     HAL2     0.900000E-01   1.00800           0
     24308 MEMB     210      POPC     C216     CTL2    -0.180000       12.0110           0
     24309 MEMB     210      POPC     H16R     HAL2     0.900000E-01   1.00800           0
     24310 MEMB     210      POPC     H16S     HAL2     0.900000E-01   1.00800           0
     24311 MEMB     210      POPC     C217     CTL2    -0.180000       12.0110           0
     24312 MEMB     210      POPC     H17R     HAL2     0.900000E-01   1.00800           0
     24313 MEMB     210      POPC     H17S     HAL2     0.900000E-01   1.00800           0
     24314 MEMB     210      POPC     C218     CTL3    -0.270000       12.0110           0
     24315 MEMB     210      POPC     H18R     HAL3     0.900000E-01   1.00800           0
     24316 MEMB     210      POPC     H18S     HAL3     0.900000E-01   1.00800           0
     24317 MEMB     210      POPC     H18T     HAL3     0.900000E-01   1.00800           0
     24318 MEMB     210      POPC     C33      CTL2    -0.180000       12.0110           0
     24319 MEMB     210      POPC     H3X      HAL2     0.900000E-01   1.00800           0
     24320 MEMB     210      POPC     H3Y      HAL2     0.900000E-01   1.00800           0
     24321 MEMB     210      POPC     C34      CTL2    -0.180000       12.0110           0
     24322 MEMB     210      POPC     H4X      HAL2     0.900000E-01   1.00800           0
     24323 MEMB     210      POPC     H4Y      HAL2     0.900000E-01   1.00800           0
     24324 MEMB     210      POPC     C35      CTL2    -0.180000       12.0110           0
     24325 MEMB     210      POPC     H5X      HAL2     0.900000E-01   1.00800           0
     24326 MEMB     210      POPC     H5Y      HAL2     0.900000E-01   1.00800           0
     24327 MEMB     210      POPC     C36      CTL2    -0.180000       12.0110           0
     24328 MEMB     210      POPC     H6X      HAL2     0.900000E-01   1.00800           0
     24329 MEMB     210      POPC     H6Y      HAL2     0.900000E-01   1.00800           0
     24330 MEMB     210      POPC     C37      CTL2    -0.180000       12.0110           0
     24331 MEMB     210      POPC     H7X      HAL2     0.900000E-01   1.00800           0
     24332 MEMB     210      POPC     H7Y      HAL2     0.900000E-01   1.00800           0
     24333 MEMB     210      POPC     C38      CTL2    -0.180000       12.0110           0
     24334 MEMB     210      POPC     H8X      HAL2     0.900000E-01   1.00800           0
     24335 MEMB     210      POPC     H8Y      HAL2     0.900000E-01   1.00800           0
     24336 MEMB     210      POPC     C39      CTL2    -0.180000       12.0110           0
     24337 MEMB     210      POPC     H9X      HAL2     0.900000E-01   1.00800           0
     24338 MEMB     210      POPC     H9Y      HAL2     0.900000E-01   1.00800           0
     24339 MEMB     210      POPC     C310     CTL2    -0.180000       12.0110           0
     24340 MEMB     210      POPC     H10X     HAL2     0.900000E-01   1.00800           0
     24341 MEMB     210      POPC     H10Y     HAL2     0.900000E-01   1.00800           0
     24342 MEMB     210      POPC     C311     CTL2    -0.180000       12.0110           0
     24343 MEMB     210      POPC     H11X     HAL2     0.900000E-01   1.00800           0
     24344 MEMB     210      POPC     H11Y     HAL2     0.900000E-01   1.00800           0
     24345 MEMB     210      POPC     C312     CTL2    -0.180000       12.0110           0
     24346 MEMB     210      POPC     H12X     HAL2     0.900000E-01   1.00800           0
     24347 MEMB     210      POPC     H12Y     HAL2     0.900000E-01   1.00800           0
     24348 MEMB     210      POPC     C313     CTL2    -0.180000       12.0110           0
     24349 MEMB     210      POPC     H13X     HAL2     0.900000E-01   1.00800           0
     24350 MEMB     210      POPC     H13Y     HAL2     0.900000E-01   1.00800           0
     24351 MEMB     210      POPC     C314     CTL2    -0.180000       12.0110           0
     24352 MEMB     210      POPC     H14X     HAL2     0.900000E-01   1.00800           0
     24353 MEMB     210      POPC     H14Y     HAL2     0.900000E-01   1.00800           0
     24354 MEMB     210      POPC     C315     CTL2    -0.180000       12.0110           0
     24355 MEMB     210      POPC     H15X     HAL2     0.900000E-01   1.00800           0
     24356 MEMB     210      POPC     H15Y     HAL2     0.900000E-01   1.00800           0
     24357 MEMB     210      POPC     C316     CTL3    -0.270000       12.0110           0
     24358 MEMB     210      POPC     H16X     HAL3     0.900000E-01   1.00800           0
     24359 MEMB     210      POPC     H16Y     HAL3     0.900000E-01   1.00800           0
     24360 MEMB     210      POPC     H16Z     HAL3     0.900000E-01   1.00800           0
     24361 MEMB     211      POPC     N        NTL     -0.600000       14.0070           0
     24362 MEMB     211      POPC     C12      CTL2    -0.100000       12.0110           0
     24363 MEMB     211      POPC     H12A     HL       0.250000       1.00800           0
     24364 MEMB     211      POPC     H12B     HL       0.250000       1.00800           0
     24365 MEMB     211      POPC     C13      CTL5    -0.350000       12.0110           0
     24366 MEMB     211      POPC     H13A     HL       0.250000       1.00800           0
     24367 MEMB     211      POPC     H13B     HL       0.250000       1.00800           0
     24368 MEMB     211      POPC     H13C     HL       0.250000       1.00800           0
     24369 MEMB     211      POPC     C14      CTL5    -0.350000       12.0110           0
     24370 MEMB     211      POPC     H14A     HL       0.250000       1.00800           0
     24371 MEMB     211      POPC     H14B     HL       0.250000       1.00800           0
     24372 MEMB     211      POPC     H14C     HL       0.250000       1.00800           0
     24373 MEMB     211      POPC     C15      CTL5    -0.350000       12.0110           0
     24374 MEMB     211      POPC     H15A     HL       0.250000       1.00800           0
     24375 MEMB     211      POPC     H15B     HL       0.250000       1.00800           0
     24376 MEMB     211      POPC     H15C     HL       0.250000       1.00800           0
     24377 MEMB     211      POPC     C11      CTL2    -0.800000E-01   12.0110           0
     24378 MEMB     211      POPC     H11A     HAL2     0.900000E-01   1.00800           0
     24379 MEMB     211      POPC     H11B     HAL2     0.900000E-01   1.00800           0
     24380 MEMB     211      POPC     P        PL        1.50000       30.9740           0
     24381 MEMB     211      POPC     O13      O2L     -0.780000       15.9994           0
     24382 MEMB     211      POPC     O14      O2L     -0.780000       15.9994           0
     24383 MEMB     211      POPC     O12      OSLP    -0.570000       15.9994           0
     24384 MEMB     211      POPC     O11      OSLP    -0.570000       15.9994           0
     24385 MEMB     211      POPC     C1       CTL2    -0.800000E-01   12.0110           0
     24386 MEMB     211      POPC     HA       HAL2     0.900000E-01   1.00800           0
     24387 MEMB     211      POPC     HB       HAL2     0.900000E-01   1.00800           0
     24388 MEMB     211      POPC     C2       CTL1     0.170000       12.0110           0
     24389 MEMB     211      POPC     HS       HAL1     0.900000E-01   1.00800           0
     24390 MEMB     211      POPC     O21      OSL     -0.490000       15.9994           0
     24391 MEMB     211      POPC     C21      CL       0.900000       12.0110           0
     24392 MEMB     211      POPC     O22      OBL     -0.630000       15.9994           0
     24393 MEMB     211      POPC     C22      CTL2    -0.220000       12.0110           0
     24394 MEMB     211      POPC     H2R      HAL2     0.900000E-01   1.00800           0
     24395 MEMB     211      POPC     H2S      HAL2     0.900000E-01   1.00800           0
     24396 MEMB     211      POPC     C3       CTL2     0.800000E-01   12.0110           0
     24397 MEMB     211      POPC     HX       HAL2     0.900000E-01   1.00800           0
     24398 MEMB     211      POPC     HY       HAL2     0.900000E-01   1.00800           0
     24399 MEMB     211      POPC     O31      OSL     -0.490000       15.9994           0
     24400 MEMB     211      POPC     C31      CL       0.900000       12.0110           0
     24401 MEMB     211      POPC     O32      OBL     -0.630000       15.9994           0
     24402 MEMB     211      POPC     C32      CTL2    -0.220000       12.0110           0
     24403 MEMB     211      POPC     H2X      HAL2     0.900000E-01   1.00800           0
     24404 MEMB     211      POPC     H2Y      HAL2     0.900000E-01   1.00800           0
     24405 MEMB     211      POPC     C23      CTL2    -0.180000       12.0110           0
     24406 MEMB     211      POPC     H3R      HAL2     0.900000E-01   1.00800           0
     24407 MEMB     211      POPC     H3S      HAL2     0.900000E-01   1.00800           0
     24408 MEMB     211      POPC     C24      CTL2    -0.180000       12.0110           0
     24409 MEMB     211      POPC     H4R      HAL2     0.900000E-01   1.00800           0
     24410 MEMB     211      POPC     H4S      HAL2     0.900000E-01   1.00800           0
     24411 MEMB     211      POPC     C25      CTL2    -0.180000       12.0110           0
     24412 MEMB     211      POPC     H5R      HAL2     0.900000E-01   1.00800           0
     24413 MEMB     211      POPC     H5S      HAL2     0.900000E-01   1.00800           0
     24414 MEMB     211      POPC     C26      CTL2    -0.180000       12.0110           0
     24415 MEMB     211      POPC     H6R      HAL2     0.900000E-01   1.00800           0
     24416 MEMB     211      POPC     H6S      HAL2     0.900000E-01   1.00800           0
     24417 MEMB     211      POPC     C27      CTL2    -0.180000       12.0110           0
     24418 MEMB     211      POPC     H7R      HAL2     0.900000E-01   1.00800           0
     24419 MEMB     211      POPC     H7S      HAL2     0.900000E-01   1.00800           0
     24420 MEMB     211      POPC     C28      CTL2    -0.180000       12.0110           0
     24421 MEMB     211      POPC     H8R      HAL2     0.900000E-01   1.00800           0
     24422 MEMB     211      POPC     H8S      HAL2     0.900000E-01   1.00800           0
     24423 MEMB     211      POPC     C29      CEL1    -0.150000       12.0110           0
     24424 MEMB     211      POPC     H91      HEL1     0.150000       1.00800           0
     24425 MEMB     211      POPC     C210     CEL1    -0.150000       12.0110           0
     24426 MEMB     211      POPC     H101     HEL1     0.150000       1.00800           0
     24427 MEMB     211      POPC     C211     CTL2    -0.180000       12.0110           0
     24428 MEMB     211      POPC     H11R     HAL2     0.900000E-01   1.00800           0
     24429 MEMB     211      POPC     H11S     HAL2     0.900000E-01   1.00800           0
     24430 MEMB     211      POPC     C212     CTL2    -0.180000       12.0110           0
     24431 MEMB     211      POPC     H12R     HAL2     0.900000E-01   1.00800           0
     24432 MEMB     211      POPC     H12S     HAL2     0.900000E-01   1.00800           0
     24433 MEMB     211      POPC     C213     CTL2    -0.180000       12.0110           0
     24434 MEMB     211      POPC     H13R     HAL2     0.900000E-01   1.00800           0
     24435 MEMB     211      POPC     H13S     HAL2     0.900000E-01   1.00800           0
     24436 MEMB     211      POPC     C214     CTL2    -0.180000       12.0110           0
     24437 MEMB     211      POPC     H14R     HAL2     0.900000E-01   1.00800           0
     24438 MEMB     211      POPC     H14S     HAL2     0.900000E-01   1.00800           0
     24439 MEMB     211      POPC     C215     CTL2    -0.180000       12.0110           0
     24440 MEMB     211      POPC     H15R     HAL2     0.900000E-01   1.00800           0
     24441 MEMB     211      POPC     H15S     HAL2     0.900000E-01   1.00800           0
     24442 MEMB     211      POPC     C216     CTL2    -0.180000       12.0110           0
     24443 MEMB     211      POPC     H16R     HAL2     0.900000E-01   1.00800           0
     24444 MEMB     211      POPC     H16S     HAL2     0.900000E-01   1.00800           0
     24445 MEMB     211      POPC     C217     CTL2    -0.180000       12.0110           0
     24446 MEMB     211      POPC     H17R     HAL2     0.900000E-01   1.00800           0
     24447 MEMB     211      POPC     H17S     HAL2     0.900000E-01   1.00800           0
     24448 MEMB     211      POPC     C218     CTL3    -0.270000       12.0110           0
     24449 MEMB     211      POPC     H18R     HAL3     0.900000E-01   1.00800           0
     24450 MEMB     211      POPC     H18S     HAL3     0.900000E-01   1.00800           0
     24451 MEMB     211      POPC     H18T     HAL3     0.900000E-01   1.00800           0
     24452 MEMB     211      POPC     C33      CTL2    -0.180000       12.0110           0
     24453 MEMB     211      POPC     H3X      HAL2     0.900000E-01   1.00800           0
     24454 MEMB     211      POPC     H3Y      HAL2     0.900000E-01   1.00800           0
     24455 MEMB     211      POPC     C34      CTL2    -0.180000       12.0110           0
     24456 MEMB     211      POPC     H4X      HAL2     0.900000E-01   1.00800           0
     24457 MEMB     211      POPC     H4Y      HAL2     0.900000E-01   1.00800           0
     24458 MEMB     211      POPC     C35      CTL2    -0.180000       12.0110           0
     24459 MEMB     211      POPC     H5X      HAL2     0.900000E-01   1.00800           0
     24460 MEMB     211      POPC     H5Y      HAL2     0.900000E-01   1.00800           0
     24461 MEMB     211      POPC     C36      CTL2    -0.180000       12.0110           0
     24462 MEMB     211      POPC     H6X      HAL2     0.900000E-01   1.00800           0
     24463 MEMB     211      POPC     H6Y      HAL2     0.900000E-01   1.00800           0
     24464 MEMB     211      POPC     C37      CTL2    -0.180000       12.0110           0
     24465 MEMB     211      POPC     H7X      HAL2     0.900000E-01   1.00800           0
     24466 MEMB     211      POPC     H7Y      HAL2     0.900000E-01   1.00800           0
     24467 MEMB     211      POPC     C38      CTL2    -0.180000       12.0110           0
     24468 MEMB     211      POPC     H8X      HAL2     0.900000E-01   1.00800           0
     24469 MEMB     211      POPC     H8Y      HAL2     0.900000E-01   1.00800           0
     24470 MEMB     211      POPC     C39      CTL2    -0.180000       12.0110           0
     24471 MEMB     211      POPC     H9X      HAL2     0.900000E-01   1.00800           0
     24472 MEMB     211      POPC     H9Y      HAL2     0.900000E-01   1.00800           0
     24473 MEMB     211      POPC     C310     CTL2    -0.180000       12.0110           0
     24474 MEMB     211      POPC     H10X     HAL2     0.900000E-01   1.00800           0
     24475 MEMB     211      POPC     H10Y     HAL2     0.900000E-01   1.00800           0
     24476 MEMB     211      POPC     C311     CTL2    -0.180000       12.0110           0
     24477 MEMB     211      POPC     H11X     HAL2     0.900000E-01   1.00800           0
     24478 MEMB     211      POPC     H11Y     HAL2     0.900000E-01   1.00800           0
     24479 MEMB     211      POPC     C312     CTL2    -0.180000       12.0110           0
     24480 MEMB     211      POPC     H12X     HAL2     0.900000E-01   1.00800           0
     24481 MEMB     211      POPC     H12Y     HAL2     0.900000E-01   1.00800           0
     24482 MEMB     211      POPC     C313     CTL2    -0.180000       12.0110           0
     24483 MEMB     211      POPC     H13X     HAL2     0.900000E-01   1.00800           0
     24484 MEMB     211      POPC     H13Y     HAL2     0.900000E-01   1.00800           0
     24485 MEMB     211      POPC     C314     CTL2    -0.180000       12.0110           0
     24486 MEMB     211      POPC     H14X     HAL2     0.900000E-01   1.00800           0
     24487 MEMB     211      POPC     H14Y     HAL2     0.900000E-01   1.00800           0
     24488 MEMB     211      POPC     C315     CTL2    -0.180000       12.0110           0
     24489 MEMB     211      POPC     H15X     HAL2     0.900000E-01   1.00800           0
     24490 MEMB     211      POPC     H15Y     HAL2     0.900000E-01   1.00800           0
     24491 MEMB     211      POPC     C316     CTL3    -0.270000       12.0110           0
     24492 MEMB     211      POPC     H16X     HAL3     0.900000E-01   1.00800           0
     24493 MEMB     211      POPC     H16Y     HAL3     0.900000E-01   1.00800           0
     24494 MEMB     211      POPC     H16Z     HAL3     0.900000E-01   1.00800           0
     24495 MEMB     212      POPC     N        NTL     -0.600000       14.0070           0
     24496 MEMB     212      POPC     C12      CTL2    -0.100000       12.0110           0
     24497 MEMB     212      POPC     H12A     HL       0.250000       1.00800           0
     24498 MEMB     212      POPC     H12B     HL       0.250000       1.00800           0
     24499 MEMB     212      POPC     C13      CTL5    -0.350000       12.0110           0
     24500 MEMB     212      POPC     H13A     HL       0.250000       1.00800           0
     24501 MEMB     212      POPC     H13B     HL       0.250000       1.00800           0
     24502 MEMB     212      POPC     H13C     HL       0.250000       1.00800           0
     24503 MEMB     212      POPC     C14      CTL5    -0.350000       12.0110           0
     24504 MEMB     212      POPC     H14A     HL       0.250000       1.00800           0
     24505 MEMB     212      POPC     H14B     HL       0.250000       1.00800           0
     24506 MEMB     212      POPC     H14C     HL       0.250000       1.00800           0
     24507 MEMB     212      POPC     C15      CTL5    -0.350000       12.0110           0
     24508 MEMB     212      POPC     H15A     HL       0.250000       1.00800           0
     24509 MEMB     212      POPC     H15B     HL       0.250000       1.00800           0
     24510 MEMB     212      POPC     H15C     HL       0.250000       1.00800           0
     24511 MEMB     212      POPC     C11      CTL2    -0.800000E-01   12.0110           0
     24512 MEMB     212      POPC     H11A     HAL2     0.900000E-01   1.00800           0
     24513 MEMB     212      POPC     H11B     HAL2     0.900000E-01   1.00800           0
     24514 MEMB     212      POPC     P        PL        1.50000       30.9740           0
     24515 MEMB     212      POPC     O13      O2L     -0.780000       15.9994           0
     24516 MEMB     212      POPC     O14      O2L     -0.780000       15.9994           0
     24517 MEMB     212      POPC     O12      OSLP    -0.570000       15.9994           0
     24518 MEMB     212      POPC     O11      OSLP    -0.570000       15.9994           0
     24519 MEMB     212      POPC     C1       CTL2    -0.800000E-01   12.0110           0
     24520 MEMB     212      POPC     HA       HAL2     0.900000E-01   1.00800           0
     24521 MEMB     212      POPC     HB       HAL2     0.900000E-01   1.00800           0
     24522 MEMB     212      POPC     C2       CTL1     0.170000       12.0110           0
     24523 MEMB     212      POPC     HS       HAL1     0.900000E-01   1.00800           0
     24524 MEMB     212      POPC     O21      OSL     -0.490000       15.9994           0
     24525 MEMB     212      POPC     C21      CL       0.900000       12.0110           0
     24526 MEMB     212      POPC     O22      OBL     -0.630000       15.9994           0
     24527 MEMB     212      POPC     C22      CTL2    -0.220000       12.0110           0
     24528 MEMB     212      POPC     H2R      HAL2     0.900000E-01   1.00800           0
     24529 MEMB     212      POPC     H2S      HAL2     0.900000E-01   1.00800           0
     24530 MEMB     212      POPC     C3       CTL2     0.800000E-01   12.0110           0
     24531 MEMB     212      POPC     HX       HAL2     0.900000E-01   1.00800           0
     24532 MEMB     212      POPC     HY       HAL2     0.900000E-01   1.00800           0
     24533 MEMB     212      POPC     O31      OSL     -0.490000       15.9994           0
     24534 MEMB     212      POPC     C31      CL       0.900000       12.0110           0
     24535 MEMB     212      POPC     O32      OBL     -0.630000       15.9994           0
     24536 MEMB     212      POPC     C32      CTL2    -0.220000       12.0110           0
     24537 MEMB     212      POPC     H2X      HAL2     0.900000E-01   1.00800           0
     24538 MEMB     212      POPC     H2Y      HAL2     0.900000E-01   1.00800           0
     24539 MEMB     212      POPC     C23      CTL2    -0.180000       12.0110           0
     24540 MEMB     212      POPC     H3R      HAL2     0.900000E-01   1.00800           0
     24541 MEMB     212      POPC     H3S      HAL2     0.900000E-01   1.00800           0
     24542 MEMB     212      POPC     C24      CTL2    -0.180000       12.0110           0
     24543 MEMB     212      POPC     H4R      HAL2     0.900000E-01   1.00800           0
     24544 MEMB     212      POPC     H4S      HAL2     0.900000E-01   1.00800           0
     24545 MEMB     212      POPC     C25      CTL2    -0.180000       12.0110           0
     24546 MEMB     212      POPC     H5R      HAL2     0.900000E-01   1.00800           0
     24547 MEMB     212      POPC     H5S      HAL2     0.900000E-01   1.00800           0
     24548 MEMB     212      POPC     C26      CTL2    -0.180000       12.0110           0
     24549 MEMB     212      POPC     H6R      HAL2     0.900000E-01   1.00800           0
     24550 MEMB     212      POPC     H6S      HAL2     0.900000E-01   1.00800           0
     24551 MEMB     212      POPC     C27      CTL2    -0.180000       12.0110           0
     24552 MEMB     212      POPC     H7R      HAL2     0.900000E-01   1.00800           0
     24553 MEMB     212      POPC     H7S      HAL2     0.900000E-01   1.00800           0
     24554 MEMB     212      POPC     C28      CTL2    -0.180000       12.0110           0
     24555 MEMB     212      POPC     H8R      HAL2     0.900000E-01   1.00800           0
     24556 MEMB     212      POPC     H8S      HAL2     0.900000E-01   1.00800           0
     24557 MEMB     212      POPC     C29      CEL1    -0.150000       12.0110           0
     24558 MEMB     212      POPC     H91      HEL1     0.150000       1.00800           0
     24559 MEMB     212      POPC     C210     CEL1    -0.150000       12.0110           0
     24560 MEMB     212      POPC     H101     HEL1     0.150000       1.00800           0
     24561 MEMB     212      POPC     C211     CTL2    -0.180000       12.0110           0
     24562 MEMB     212      POPC     H11R     HAL2     0.900000E-01   1.00800           0
     24563 MEMB     212      POPC     H11S     HAL2     0.900000E-01   1.00800           0
     24564 MEMB     212      POPC     C212     CTL2    -0.180000       12.0110           0
     24565 MEMB     212      POPC     H12R     HAL2     0.900000E-01   1.00800           0
     24566 MEMB     212      POPC     H12S     HAL2     0.900000E-01   1.00800           0
     24567 MEMB     212      POPC     C213     CTL2    -0.180000       12.0110           0
     24568 MEMB     212      POPC     H13R     HAL2     0.900000E-01   1.00800           0
     24569 MEMB     212      POPC     H13S     HAL2     0.900000E-01   1.00800           0
     24570 MEMB     212      POPC     C214     CTL2    -0.180000       12.0110           0
     24571 MEMB     212      POPC     H14R     HAL2     0.900000E-01   1.00800           0
     24572 MEMB     212      POPC     H14S     HAL2     0.900000E-01   1.00800           0
     24573 MEMB     212      POPC     C215     CTL2    -0.180000       12.0110           0
     24574 MEMB     212      POPC     H15R     HAL2     0.900000E-01   1.00800           0
     24575 MEMB     212      POPC     H15S     HAL2     0.900000E-01   1.00800           0
     24576 MEMB     212      POPC     C216     CTL2    -0.180000       12.0110           0
     24577 MEMB     212      POPC     H16R     HAL2     0.900000E-01   1.00800           0
     24578 MEMB     212      POPC     H16S     HAL2     0.900000E-01   1.00800           0
     24579 MEMB     212      POPC     C217     CTL2    -0.180000       12.0110           0
     24580 MEMB     212      POPC     H17R     HAL2     0.900000E-01   1.00800           0
     24581 MEMB     212      POPC     H17S     HAL2     0.900000E-01   1.00800           0
     24582 MEMB     212      POPC     C218     CTL3    -0.270000       12.0110           0
     24583 MEMB     212      POPC     H18R     HAL3     0.900000E-01   1.00800           0
     24584 MEMB     212      POPC     H18S     HAL3     0.900000E-01   1.00800           0
     24585 MEMB     212      POPC     H18T     HAL3     0.900000E-01   1.00800           0
     24586 MEMB     212      POPC     C33      CTL2    -0.180000       12.0110           0
     24587 MEMB     212      POPC     H3X      HAL2     0.900000E-01   1.00800           0
     24588 MEMB     212      POPC     H3Y      HAL2     0.900000E-01   1.00800           0
     24589 MEMB     212      POPC     C34      CTL2    -0.180000       12.0110           0
     24590 MEMB     212      POPC     H4X      HAL2     0.900000E-01   1.00800           0
     24591 MEMB     212      POPC     H4Y      HAL2     0.900000E-01   1.00800           0
     24592 MEMB     212      POPC     C35      CTL2    -0.180000       12.0110           0
     24593 MEMB     212      POPC     H5X      HAL2     0.900000E-01   1.00800           0
     24594 MEMB     212      POPC     H5Y      HAL2     0.900000E-01   1.00800           0
     24595 MEMB     212      POPC     C36      CTL2    -0.180000       12.0110           0
     24596 MEMB     212      POPC     H6X      HAL2     0.900000E-01   1.00800           0
     24597 MEMB     212      POPC     H6Y      HAL2     0.900000E-01   1.00800           0
     24598 MEMB     212      POPC     C37      CTL2    -0.180000       12.0110           0
     24599 MEMB     212      POPC     H7X      HAL2     0.900000E-01   1.00800           0
     24600 MEMB     212      POPC     H7Y      HAL2     0.900000E-01   1.00800           0
     24601 MEMB     212      POPC     C38      CTL2    -0.180000       12.0110           0
     24602 MEMB     212      POPC     H8X      HAL2     0.900000E-01   1.00800           0
     24603 MEMB     212      POPC     H8Y      HAL2     0.900000E-01   1.00800           0
     24604 MEMB     212      POPC     C39      CTL2    -0.180000       12.0110           0
     24605 MEMB     212      POPC     H9X      HAL2     0.900000E-01   1.00800           0
     24606 MEMB     212      POPC     H9Y      HAL2     0.900000E-01   1.00800           0
     24607 MEMB     212      POPC     C310     CTL2    -0.180000       12.0110           0
     24608 MEMB     212      POPC     H10X     HAL2     0.900000E-01   1.00800           0
     24609 MEMB     212      POPC     H10Y     HAL2     0.900000E-01   1.00800           0
     24610 MEMB     212      POPC     C311     CTL2    -0.180000       12.0110           0
     24611 MEMB     212      POPC     H11X     HAL2     0.900000E-01   1.00800           0
     24612 MEMB     212      POPC     H11Y     HAL2     0.900000E-01   1.00800           0
     24613 MEMB     212      POPC     C312     CTL2    -0.180000       12.0110           0
     24614 MEMB     212      POPC     H12X     HAL2     0.900000E-01   1.00800           0
     24615 MEMB     212      POPC     H12Y     HAL2     0.900000E-01   1.00800           0
     24616 MEMB     212      POPC     C313     CTL2    -0.180000       12.0110           0
     24617 MEMB     212      POPC     H13X     HAL2     0.900000E-01   1.00800           0
     24618 MEMB     212      POPC     H13Y     HAL2     0.900000E-01   1.00800           0
     24619 MEMB     212      POPC     C314     CTL2    -0.180000       12.0110           0
     24620 MEMB     212      POPC     H14X     HAL2     0.900000E-01   1.00800           0
     24621 MEMB     212      POPC     H14Y     HAL2     0.900000E-01   1.00800           0
     24622 MEMB     212      POPC     C315     CTL2    -0.180000       12.0110           0
     24623 MEMB     212      POPC     H15X     HAL2     0.900000E-01   1.00800           0
     24624 MEMB     212      POPC     H15Y     HAL2     0.900000E-01   1.00800           0
     24625 MEMB     212      POPC     C316     CTL3    -0.270000       12.0110           0
     24626 MEMB     212      POPC     H16X     HAL3     0.900000E-01   1.00800           0
     24627 MEMB     212      POPC     H16Y     HAL3     0.900000E-01   1.00800           0
     24628 MEMB     212      POPC     H16Z     HAL3     0.900000E-01   1.00800           0
     24629 MEMB     213      POPC     N        NTL     -0.600000       14.0070           0
     24630 MEMB     213      POPC     C12      CTL2    -0.100000       12.0110           0
     24631 MEMB     213      POPC     H12A     HL       0.250000       1.00800           0
     24632 MEMB     213      POPC     H12B     HL       0.250000       1.00800           0
     24633 MEMB     213      POPC     C13      CTL5    -0.350000       12.0110           0
     24634 MEMB     213      POPC     H13A     HL       0.250000       1.00800           0
     24635 MEMB     213      POPC     H13B     HL       0.250000       1.00800           0
     24636 MEMB     213      POPC     H13C     HL       0.250000       1.00800           0
     24637 MEMB     213      POPC     C14      CTL5    -0.350000       12.0110           0
     24638 MEMB     213      POPC     H14A     HL       0.250000       1.00800           0
     24639 MEMB     213      POPC     H14B     HL       0.250000       1.00800           0
     24640 MEMB     213      POPC     H14C     HL       0.250000       1.00800           0
     24641 MEMB     213      POPC     C15      CTL5    -0.350000       12.0110           0
     24642 MEMB     213      POPC     H15A     HL       0.250000       1.00800           0
     24643 MEMB     213      POPC     H15B     HL       0.250000       1.00800           0
     24644 MEMB     213      POPC     H15C     HL       0.250000       1.00800           0
     24645 MEMB     213      POPC     C11      CTL2    -0.800000E-01   12.0110           0
     24646 MEMB     213      POPC     H11A     HAL2     0.900000E-01   1.00800           0
     24647 MEMB     213      POPC     H11B     HAL2     0.900000E-01   1.00800           0
     24648 MEMB     213      POPC     P        PL        1.50000       30.9740           0
     24649 MEMB     213      POPC     O13      O2L     -0.780000       15.9994           0
     24650 MEMB     213      POPC     O14      O2L     -0.780000       15.9994           0
     24651 MEMB     213      POPC     O12      OSLP    -0.570000       15.9994           0
     24652 MEMB     213      POPC     O11      OSLP    -0.570000       15.9994           0
     24653 MEMB     213      POPC     C1       CTL2    -0.800000E-01   12.0110           0
     24654 MEMB     213      POPC     HA       HAL2     0.900000E-01   1.00800           0
     24655 MEMB     213      POPC     HB       HAL2     0.900000E-01   1.00800           0
     24656 MEMB     213      POPC     C2       CTL1     0.170000       12.0110           0
     24657 MEMB     213      POPC     HS       HAL1     0.900000E-01   1.00800           0
     24658 MEMB     213      POPC     O21      OSL     -0.490000       15.9994           0
     24659 MEMB     213      POPC     C21      CL       0.900000       12.0110           0
     24660 MEMB     213      POPC     O22      OBL     -0.630000       15.9994           0
     24661 MEMB     213      POPC     C22      CTL2    -0.220000       12.0110           0
     24662 MEMB     213      POPC     H2R      HAL2     0.900000E-01   1.00800           0
     24663 MEMB     213      POPC     H2S      HAL2     0.900000E-01   1.00800           0
     24664 MEMB     213      POPC     C3       CTL2     0.800000E-01   12.0110           0
     24665 MEMB     213      POPC     HX       HAL2     0.900000E-01   1.00800           0
     24666 MEMB     213      POPC     HY       HAL2     0.900000E-01   1.00800           0
     24667 MEMB     213      POPC     O31      OSL     -0.490000       15.9994           0
     24668 MEMB     213      POPC     C31      CL       0.900000       12.0110           0
     24669 MEMB     213      POPC     O32      OBL     -0.630000       15.9994           0
     24670 MEMB     213      POPC     C32      CTL2    -0.220000       12.0110           0
     24671 MEMB     213      POPC     H2X      HAL2     0.900000E-01   1.00800           0
     24672 MEMB     213      POPC     H2Y      HAL2     0.900000E-01   1.00800           0
     24673 MEMB     213      POPC     C23      CTL2    -0.180000       12.0110           0
     24674 MEMB     213      POPC     H3R      HAL2     0.900000E-01   1.00800           0
     24675 MEMB     213      POPC     H3S      HAL2     0.900000E-01   1.00800           0
     24676 MEMB     213      POPC     C24      CTL2    -0.180000       12.0110           0
     24677 MEMB     213      POPC     H4R      HAL2     0.900000E-01   1.00800           0
     24678 MEMB     213      POPC     H4S      HAL2     0.900000E-01   1.00800           0
     24679 MEMB     213      POPC     C25      CTL2    -0.180000       12.0110           0
     24680 MEMB     213      POPC     H5R      HAL2     0.900000E-01   1.00800           0
     24681 MEMB     213      POPC     H5S      HAL2     0.900000E-01   1.00800           0
     24682 MEMB     213      POPC     C26      CTL2    -0.180000       12.0110           0
     24683 MEMB     213      POPC     H6R      HAL2     0.900000E-01   1.00800           0
     24684 MEMB     213      POPC     H6S      HAL2     0.900000E-01   1.00800           0
     24685 MEMB     213      POPC     C27      CTL2    -0.180000       12.0110           0
     24686 MEMB     213      POPC     H7R      HAL2     0.900000E-01   1.00800           0
     24687 MEMB     213      POPC     H7S      HAL2     0.900000E-01   1.00800           0
     24688 MEMB     213      POPC     C28      CTL2    -0.180000       12.0110           0
     24689 MEMB     213      POPC     H8R      HAL2     0.900000E-01   1.00800           0
     24690 MEMB     213      POPC     H8S      HAL2     0.900000E-01   1.00800           0
     24691 MEMB     213      POPC     C29      CEL1    -0.150000       12.0110           0
     24692 MEMB     213      POPC     H91      HEL1     0.150000       1.00800           0
     24693 MEMB     213      POPC     C210     CEL1    -0.150000       12.0110           0
     24694 MEMB     213      POPC     H101     HEL1     0.150000       1.00800           0
     24695 MEMB     213      POPC     C211     CTL2    -0.180000       12.0110           0
     24696 MEMB     213      POPC     H11R     HAL2     0.900000E-01   1.00800           0
     24697 MEMB     213      POPC     H11S     HAL2     0.900000E-01   1.00800           0
     24698 MEMB     213      POPC     C212     CTL2    -0.180000       12.0110           0
     24699 MEMB     213      POPC     H12R     HAL2     0.900000E-01   1.00800           0
     24700 MEMB     213      POPC     H12S     HAL2     0.900000E-01   1.00800           0
     24701 MEMB     213      POPC     C213     CTL2    -0.180000       12.0110           0
     24702 MEMB     213      POPC     H13R     HAL2     0.900000E-01   1.00800           0
     24703 MEMB     213      POPC     H13S     HAL2     0.900000E-01   1.00800           0
     24704 MEMB     213      POPC     C214     CTL2    -0.180000       12.0110           0
     24705 MEMB     213      POPC     H14R     HAL2     0.900000E-01   1.00800           0
     24706 MEMB     213      POPC     H14S     HAL2     0.900000E-01   1.00800           0
     24707 MEMB     213      POPC     C215     CTL2    -0.180000       12.0110           0
     24708 MEMB     213      POPC     H15R     HAL2     0.900000E-01   1.00800           0
     24709 MEMB     213      POPC     H15S     HAL2     0.900000E-01   1.00800           0
     24710 MEMB     213      POPC     C216     CTL2    -0.180000       12.0110           0
     24711 MEMB     213      POPC     H16R     HAL2     0.900000E-01   1.00800           0
     24712 MEMB     213      POPC     H16S     HAL2     0.900000E-01   1.00800           0
     24713 MEMB     213      POPC     C217     CTL2    -0.180000       12.0110           0
     24714 MEMB     213      POPC     H17R     HAL2     0.900000E-01   1.00800           0
     24715 MEMB     213      POPC     H17S     HAL2     0.900000E-01   1.00800           0
     24716 MEMB     213      POPC     C218     CTL3    -0.270000       12.0110           0
     24717 MEMB     213      POPC     H18R     HAL3     0.900000E-01   1.00800           0
     24718 MEMB     213      POPC     H18S     HAL3     0.900000E-01   1.00800           0
     24719 MEMB     213      POPC     H18T     HAL3     0.900000E-01   1.00800           0
     24720 MEMB     213      POPC     C33      CTL2    -0.180000       12.0110           0
     24721 MEMB     213      POPC     H3X      HAL2     0.900000E-01   1.00800           0
     24722 MEMB     213      POPC     H3Y      HAL2     0.900000E-01   1.00800           0
     24723 MEMB     213      POPC     C34      CTL2    -0.180000       12.0110           0
     24724 MEMB     213      POPC     H4X      HAL2     0.900000E-01   1.00800           0
     24725 MEMB     213      POPC     H4Y      HAL2     0.900000E-01   1.00800           0
     24726 MEMB     213      POPC     C35      CTL2    -0.180000       12.0110           0
     24727 MEMB     213      POPC     H5X      HAL2     0.900000E-01   1.00800           0
     24728 MEMB     213      POPC     H5Y      HAL2     0.900000E-01   1.00800           0
     24729 MEMB     213      POPC     C36      CTL2    -0.180000       12.0110           0
     24730 MEMB     213      POPC     H6X      HAL2     0.900000E-01   1.00800           0
     24731 MEMB     213      POPC     H6Y      HAL2     0.900000E-01   1.00800           0
     24732 MEMB     213      POPC     C37      CTL2    -0.180000       12.0110           0
     24733 MEMB     213      POPC     H7X      HAL2     0.900000E-01   1.00800           0
     24734 MEMB     213      POPC     H7Y      HAL2     0.900000E-01   1.00800           0
     24735 MEMB     213      POPC     C38      CTL2    -0.180000       12.0110           0
     24736 MEMB     213      POPC     H8X      HAL2     0.900000E-01   1.00800           0
     24737 MEMB     213      POPC     H8Y      HAL2     0.900000E-01   1.00800           0
     24738 MEMB     213      POPC     C39      CTL2    -0.180000       12.0110           0
     24739 MEMB     213      POPC     H9X      HAL2     0.900000E-01   1.00800           0
     24740 MEMB     213      POPC     H9Y      HAL2     0.900000E-01   1.00800           0
     24741 MEMB     213      POPC     C310     CTL2    -0.180000       12.0110           0
     24742 MEMB     213      POPC     H10X     HAL2     0.900000E-01   1.00800           0
     24743 MEMB     213      POPC     H10Y     HAL2     0.900000E-01   1.00800           0
     24744 MEMB     213      POPC     C311     CTL2    -0.180000       12.0110           0
     24745 MEMB     213      POPC     H11X     HAL2     0.900000E-01   1.00800           0
     24746 MEMB     213      POPC     H11Y     HAL2     0.900000E-01   1.00800           0
     24747 MEMB     213      POPC     C312     CTL2    -0.180000       12.0110           0
     24748 MEMB     213      POPC     H12X     HAL2     0.900000E-01   1.00800           0
     24749 MEMB     213      POPC     H12Y     HAL2     0.900000E-01   1.00800           0
     24750 MEMB     213      POPC     C313     CTL2    -0.180000       12.0110           0
     24751 MEMB     213      POPC     H13X     HAL2     0.900000E-01   1.00800           0
     24752 MEMB     213      POPC     H13Y     HAL2     0.900000E-01   1.00800           0
     24753 MEMB     213      POPC     C314     CTL2    -0.180000       12.0110           0
     24754 MEMB     213      POPC     H14X     HAL2     0.900000E-01   1.00800           0
     24755 MEMB     213      POPC     H14Y     HAL2     0.900000E-01   1.00800           0
     24756 MEMB     213      POPC     C315     CTL2    -0.180000       12.0110           0
     24757 MEMB     213      POPC     H15X     HAL2     0.900000E-01   1.00800           0
     24758 MEMB     213      POPC     H15Y     HAL2     0.900000E-01   1.00800           0
     24759 MEMB     213      POPC     C316     CTL3    -0.270000       12.0110           0
     24760 MEMB     213      POPC     H16X     HAL3     0.900000E-01   1.00800           0
     24761 MEMB     213      POPC     H16Y     HAL3     0.900000E-01   1.00800           0
     24762 MEMB     213      POPC     H16Z     HAL3     0.900000E-01   1.00800           0
     24763 MEMB     214      POPC     N        NTL     -0.600000       14.0070           0
     24764 MEMB     214      POPC     C12      CTL2    -0.100000       12.0110           0
     24765 MEMB     214      POPC     H12A     HL       0.250000       1.00800           0
     24766 MEMB     214      POPC     H12B     HL       0.250000       1.00800           0
     24767 MEMB     214      POPC     C13      CTL5    -0.350000       12.0110           0
     24768 MEMB     214      POPC     H13A     HL       0.250000       1.00800           0
     24769 MEMB     214      POPC     H13B     HL       0.250000       1.00800           0
     24770 MEMB     214      POPC     H13C     HL       0.250000       1.00800           0
     24771 MEMB     214      POPC     C14      CTL5    -0.350000       12.0110           0
     24772 MEMB     214      POPC     H14A     HL       0.250000       1.00800           0
     24773 MEMB     214      POPC     H14B     HL       0.250000       1.00800           0
     24774 MEMB     214      POPC     H14C     HL       0.250000       1.00800           0
     24775 MEMB     214      POPC     C15      CTL5    -0.350000       12.0110           0
     24776 MEMB     214      POPC     H15A     HL       0.250000       1.00800           0
     24777 MEMB     214      POPC     H15B     HL       0.250000       1.00800           0
     24778 MEMB     214      POPC     H15C     HL       0.250000       1.00800           0
     24779 MEMB     214      POPC     C11      CTL2    -0.800000E-01   12.0110           0
     24780 MEMB     214      POPC     H11A     HAL2     0.900000E-01   1.00800           0
     24781 MEMB     214      POPC     H11B     HAL2     0.900000E-01   1.00800           0
     24782 MEMB     214      POPC     P        PL        1.50000       30.9740           0
     24783 MEMB     214      POPC     O13      O2L     -0.780000       15.9994           0
     24784 MEMB     214      POPC     O14      O2L     -0.780000       15.9994           0
     24785 MEMB     214      POPC     O12      OSLP    -0.570000       15.9994           0
     24786 MEMB     214      POPC     O11      OSLP    -0.570000       15.9994           0
     24787 MEMB     214      POPC     C1       CTL2    -0.800000E-01   12.0110           0
     24788 MEMB     214      POPC     HA       HAL2     0.900000E-01   1.00800           0
     24789 MEMB     214      POPC     HB       HAL2     0.900000E-01   1.00800           0
     24790 MEMB     214      POPC     C2       CTL1     0.170000       12.0110           0
     24791 MEMB     214      POPC     HS       HAL1     0.900000E-01   1.00800           0
     24792 MEMB     214      POPC     O21      OSL     -0.490000       15.9994           0
     24793 MEMB     214      POPC     C21      CL       0.900000       12.0110           0
     24794 MEMB     214      POPC     O22      OBL     -0.630000       15.9994           0
     24795 MEMB     214      POPC     C22      CTL2    -0.220000       12.0110           0
     24796 MEMB     214      POPC     H2R      HAL2     0.900000E-01   1.00800           0
     24797 MEMB     214      POPC     H2S      HAL2     0.900000E-01   1.00800           0
     24798 MEMB     214      POPC     C3       CTL2     0.800000E-01   12.0110           0
     24799 MEMB     214      POPC     HX       HAL2     0.900000E-01   1.00800           0
     24800 MEMB     214      POPC     HY       HAL2     0.900000E-01   1.00800           0
     24801 MEMB     214      POPC     O31      OSL     -0.490000       15.9994           0
     24802 MEMB     214      POPC     C31      CL       0.900000       12.0110           0
     24803 MEMB     214      POPC     O32      OBL     -0.630000       15.9994           0
     24804 MEMB     214      POPC     C32      CTL2    -0.220000       12.0110           0
     24805 MEMB     214      POPC     H2X      HAL2     0.900000E-01   1.00800           0
     24806 MEMB     214      POPC     H2Y      HAL2     0.900000E-01   1.00800           0
     24807 MEMB     214      POPC     C23      CTL2    -0.180000       12.0110           0
     24808 MEMB     214      POPC     H3R      HAL2     0.900000E-01   1.00800           0
     24809 MEMB     214      POPC     H3S      HAL2     0.900000E-01   1.00800           0
     24810 MEMB     214      POPC     C24      CTL2    -0.180000       12.0110           0
     24811 MEMB     214      POPC     H4R      HAL2     0.900000E-01   1.00800           0
     24812 MEMB     214      POPC     H4S      HAL2     0.900000E-01   1.00800           0
     24813 MEMB     214      POPC     C25      CTL2    -0.180000       12.0110           0
     24814 MEMB     214      POPC     H5R      HAL2     0.900000E-01   1.00800           0
     24815 MEMB     214      POPC     H5S      HAL2     0.900000E-01   1.00800           0
     24816 MEMB     214      POPC     C26      CTL2    -0.180000       12.0110           0
     24817 MEMB     214      POPC     H6R      HAL2     0.900000E-01   1.00800           0
     24818 MEMB     214      POPC     H6S      HAL2     0.900000E-01   1.00800           0
     24819 MEMB     214      POPC     C27      CTL2    -0.180000       12.0110           0
     24820 MEMB     214      POPC     H7R      HAL2     0.900000E-01   1.00800           0
     24821 MEMB     214      POPC     H7S      HAL2     0.900000E-01   1.00800           0
     24822 MEMB     214      POPC     C28      CTL2    -0.180000       12.0110           0
     24823 MEMB     214      POPC     H8R      HAL2     0.900000E-01   1.00800           0
     24824 MEMB     214      POPC     H8S      HAL2     0.900000E-01   1.00800           0
     24825 MEMB     214      POPC     C29      CEL1    -0.150000       12.0110           0
     24826 MEMB     214      POPC     H91      HEL1     0.150000       1.00800           0
     24827 MEMB     214      POPC     C210     CEL1    -0.150000       12.0110           0
     24828 MEMB     214      POPC     H101     HEL1     0.150000       1.00800           0
     24829 MEMB     214      POPC     C211     CTL2    -0.180000       12.0110           0
     24830 MEMB     214      POPC     H11R     HAL2     0.900000E-01   1.00800           0
     24831 MEMB     214      POPC     H11S     HAL2     0.900000E-01   1.00800           0
     24832 MEMB     214      POPC     C212     CTL2    -0.180000       12.0110           0
     24833 MEMB     214      POPC     H12R     HAL2     0.900000E-01   1.00800           0
     24834 MEMB     214      POPC     H12S     HAL2     0.900000E-01   1.00800           0
     24835 MEMB     214      POPC     C213     CTL2    -0.180000       12.0110           0
     24836 MEMB     214      POPC     H13R     HAL2     0.900000E-01   1.00800           0
     24837 MEMB     214      POPC     H13S     HAL2     0.900000E-01   1.00800           0
     24838 MEMB     214      POPC     C214     CTL2    -0.180000       12.0110           0
     24839 MEMB     214      POPC     H14R     HAL2     0.900000E-01   1.00800           0
     24840 MEMB     214      POPC     H14S     HAL2     0.900000E-01   1.00800           0
     24841 MEMB     214      POPC     C215     CTL2    -0.180000       12.0110           0
     24842 MEMB     214      POPC     H15R     HAL2     0.900000E-01   1.00800           0
     24843 MEMB     214      POPC     H15S     HAL2     0.900000E-01   1.00800           0
     24844 MEMB     214      POPC     C216     CTL2    -0.180000       12.0110           0
     24845 MEMB     214      POPC     H16R     HAL2     0.900000E-01   1.00800           0
     24846 MEMB     214      POPC     H16S     HAL2     0.900000E-01   1.00800           0
     24847 MEMB     214      POPC     C217     CTL2    -0.180000       12.0110           0
     24848 MEMB     214      POPC     H17R     HAL2     0.900000E-01   1.00800           0
     24849 MEMB     214      POPC     H17S     HAL2     0.900000E-01   1.00800           0
     24850 MEMB     214      POPC     C218     CTL3    -0.270000       12.0110           0
     24851 MEMB     214      POPC     H18R     HAL3     0.900000E-01   1.00800           0
     24852 MEMB     214      POPC     H18S     HAL3     0.900000E-01   1.00800           0
     24853 MEMB     214      POPC     H18T     HAL3     0.900000E-01   1.00800           0
     24854 MEMB     214      POPC     C33      CTL2    -0.180000       12.0110           0
     24855 MEMB     214      POPC     H3X      HAL2     0.900000E-01   1.00800           0
     24856 MEMB     214      POPC     H3Y      HAL2     0.900000E-01   1.00800           0
     24857 MEMB     214      POPC     C34      CTL2    -0.180000       12.0110           0
     24858 MEMB     214      POPC     H4X      HAL2     0.900000E-01   1.00800           0
     24859 MEMB     214      POPC     H4Y      HAL2     0.900000E-01   1.00800           0
     24860 MEMB     214      POPC     C35      CTL2    -0.180000       12.0110           0
     24861 MEMB     214      POPC     H5X      HAL2     0.900000E-01   1.00800           0
     24862 MEMB     214      POPC     H5Y      HAL2     0.900000E-01   1.00800           0
     24863 MEMB     214      POPC     C36      CTL2    -0.180000       12.0110           0
     24864 MEMB     214      POPC     H6X      HAL2     0.900000E-01   1.00800           0
     24865 MEMB     214      POPC     H6Y      HAL2     0.900000E-01   1.00800           0
     24866 MEMB     214      POPC     C37      CTL2    -0.180000       12.0110           0
     24867 MEMB     214      POPC     H7X      HAL2     0.900000E-01   1.00800           0
     24868 MEMB     214      POPC     H7Y      HAL2     0.900000E-01   1.00800           0
     24869 MEMB     214      POPC     C38      CTL2    -0.180000       12.0110           0
     24870 MEMB     214      POPC     H8X      HAL2     0.900000E-01   1.00800           0
     24871 MEMB     214      POPC     H8Y      HAL2     0.900000E-01   1.00800           0
     24872 MEMB     214      POPC     C39      CTL2    -0.180000       12.0110           0
     24873 MEMB     214      POPC     H9X      HAL2     0.900000E-01   1.00800           0
     24874 MEMB     214      POPC     H9Y      HAL2     0.900000E-01   1.00800           0
     24875 MEMB     214      POPC     C310     CTL2    -0.180000       12.0110           0
     24876 MEMB     214      POPC     H10X     HAL2     0.900000E-01   1.00800           0
     24877 MEMB     214      POPC     H10Y     HAL2     0.900000E-01   1.00800           0
     24878 MEMB     214      POPC     C311     CTL2    -0.180000       12.0110           0
     24879 MEMB     214      POPC     H11X     HAL2     0.900000E-01   1.00800           0
     24880 MEMB     214      POPC     H11Y     HAL2     0.900000E-01   1.00800           0
     24881 MEMB     214      POPC     C312     CTL2    -0.180000       12.0110           0
     24882 MEMB     214      POPC     H12X     HAL2     0.900000E-01   1.00800           0
     24883 MEMB     214      POPC     H12Y     HAL2     0.900000E-01   1.00800           0
     24884 MEMB     214      POPC     C313     CTL2    -0.180000       12.0110           0
     24885 MEMB     214      POPC     H13X     HAL2     0.900000E-01   1.00800           0
     24886 MEMB     214      POPC     H13Y     HAL2     0.900000E-01   1.00800           0
     24887 MEMB     214      POPC     C314     CTL2    -0.180000       12.0110           0
     24888 MEMB     214      POPC     H14X     HAL2     0.900000E-01   1.00800           0
     24889 MEMB     214      POPC     H14Y     HAL2     0.900000E-01   1.00800           0
     24890 MEMB     214      POPC     C315     CTL2    -0.180000       12.0110           0
     24891 MEMB     214      POPC     H15X     HAL2     0.900000E-01   1.00800           0
     24892 MEMB     214      POPC     H15Y     HAL2     0.900000E-01   1.00800           0
     24893 MEMB     214      POPC     C316     CTL3    -0.270000       12.0110           0
     24894 MEMB     214      POPC     H16X     HAL3     0.900000E-01   1.00800           0
     24895 MEMB     214      POPC     H16Y     HAL3     0.900000E-01   1.00800           0
     24896 MEMB     214      POPC     H16Z     HAL3     0.900000E-01   1.00800           0
     24897 MEMB     215      POPC     N        NTL     -0.600000       14.0070           0
     24898 MEMB     215      POPC     C12      CTL2    -0.100000       12.0110           0
     24899 MEMB     215      POPC     H12A     HL       0.250000       1.00800           0
     24900 MEMB     215      POPC     H12B     HL       0.250000       1.00800           0
     24901 MEMB     215      POPC     C13      CTL5    -0.350000       12.0110           0
     24902 MEMB     215      POPC     H13A     HL       0.250000       1.00800           0
     24903 MEMB     215      POPC     H13B     HL       0.250000       1.00800           0
     24904 MEMB     215      POPC     H13C     HL       0.250000       1.00800           0
     24905 MEMB     215      POPC     C14      CTL5    -0.350000       12.0110           0
     24906 MEMB     215      POPC     H14A     HL       0.250000       1.00800           0
     24907 MEMB     215      POPC     H14B     HL       0.250000       1.00800           0
     24908 MEMB     215      POPC     H14C     HL       0.250000       1.00800           0
     24909 MEMB     215      POPC     C15      CTL5    -0.350000       12.0110           0
     24910 MEMB     215      POPC     H15A     HL       0.250000       1.00800           0
     24911 MEMB     215      POPC     H15B     HL       0.250000       1.00800           0
     24912 MEMB     215      POPC     H15C     HL       0.250000       1.00800           0
     24913 MEMB     215      POPC     C11      CTL2    -0.800000E-01   12.0110           0
     24914 MEMB     215      POPC     H11A     HAL2     0.900000E-01   1.00800           0
     24915 MEMB     215      POPC     H11B     HAL2     0.900000E-01   1.00800           0
     24916 MEMB     215      POPC     P        PL        1.50000       30.9740           0
     24917 MEMB     215      POPC     O13      O2L     -0.780000       15.9994           0
     24918 MEMB     215      POPC     O14      O2L     -0.780000       15.9994           0
     24919 MEMB     215      POPC     O12      OSLP    -0.570000       15.9994           0
     24920 MEMB     215      POPC     O11      OSLP    -0.570000       15.9994           0
     24921 MEMB     215      POPC     C1       CTL2    -0.800000E-01   12.0110           0
     24922 MEMB     215      POPC     HA       HAL2     0.900000E-01   1.00800           0
     24923 MEMB     215      POPC     HB       HAL2     0.900000E-01   1.00800           0
     24924 MEMB     215      POPC     C2       CTL1     0.170000       12.0110           0
     24925 MEMB     215      POPC     HS       HAL1     0.900000E-01   1.00800           0
     24926 MEMB     215      POPC     O21      OSL     -0.490000       15.9994           0
     24927 MEMB     215      POPC     C21      CL       0.900000       12.0110           0
     24928 MEMB     215      POPC     O22      OBL     -0.630000       15.9994           0
     24929 MEMB     215      POPC     C22      CTL2    -0.220000       12.0110           0
     24930 MEMB     215      POPC     H2R      HAL2     0.900000E-01   1.00800           0
     24931 MEMB     215      POPC     H2S      HAL2     0.900000E-01   1.00800           0
     24932 MEMB     215      POPC     C3       CTL2     0.800000E-01   12.0110           0
     24933 MEMB     215      POPC     HX       HAL2     0.900000E-01   1.00800           0
     24934 MEMB     215      POPC     HY       HAL2     0.900000E-01   1.00800           0
     24935 MEMB     215      POPC     O31      OSL     -0.490000       15.9994           0
     24936 MEMB     215      POPC     C31      CL       0.900000       12.0110           0
     24937 MEMB     215      POPC     O32      OBL     -0.630000       15.9994           0
     24938 MEMB     215      POPC     C32      CTL2    -0.220000       12.0110           0
     24939 MEMB     215      POPC     H2X      HAL2     0.900000E-01   1.00800           0
     24940 MEMB     215      POPC     H2Y      HAL2     0.900000E-01   1.00800           0
     24941 MEMB     215      POPC     C23      CTL2    -0.180000       12.0110           0
     24942 MEMB     215      POPC     H3R      HAL2     0.900000E-01   1.00800           0
     24943 MEMB     215      POPC     H3S      HAL2     0.900000E-01   1.00800           0
     24944 MEMB     215      POPC     C24      CTL2    -0.180000       12.0110           0
     24945 MEMB     215      POPC     H4R      HAL2     0.900000E-01   1.00800           0
     24946 MEMB     215      POPC     H4S      HAL2     0.900000E-01   1.00800           0
     24947 MEMB     215      POPC     C25      CTL2    -0.180000       12.0110           0
     24948 MEMB     215      POPC     H5R      HAL2     0.900000E-01   1.00800           0
     24949 MEMB     215      POPC     H5S      HAL2     0.900000E-01   1.00800           0
     24950 MEMB     215      POPC     C26      CTL2    -0.180000       12.0110           0
     24951 MEMB     215      POPC     H6R      HAL2     0.900000E-01   1.00800           0
     24952 MEMB     215      POPC     H6S      HAL2     0.900000E-01   1.00800           0
     24953 MEMB     215      POPC     C27      CTL2    -0.180000       12.0110           0
     24954 MEMB     215      POPC     H7R      HAL2     0.900000E-01   1.00800           0
     24955 MEMB     215      POPC     H7S      HAL2     0.900000E-01   1.00800           0
     24956 MEMB     215      POPC     C28      CTL2    -0.180000       12.0110           0
     24957 MEMB     215      POPC     H8R      HAL2     0.900000E-01   1.00800           0
     24958 MEMB     215      POPC     H8S      HAL2     0.900000E-01   1.00800           0
     24959 MEMB     215      POPC     C29      CEL1    -0.150000       12.0110           0
     24960 MEMB     215      POPC     H91      HEL1     0.150000       1.00800           0
     24961 MEMB     215      POPC     C210     CEL1    -0.150000       12.0110           0
     24962 MEMB     215      POPC     H101     HEL1     0.150000       1.00800           0
     24963 MEMB     215      POPC     C211     CTL2    -0.180000       12.0110           0
     24964 MEMB     215      POPC     H11R     HAL2     0.900000E-01   1.00800           0
     24965 MEMB     215      POPC     H11S     HAL2     0.900000E-01   1.00800           0
     24966 MEMB     215      POPC     C212     CTL2    -0.180000       12.0110           0
     24967 MEMB     215      POPC     H12R     HAL2     0.900000E-01   1.00800           0
     24968 MEMB     215      POPC     H12S     HAL2     0.900000E-01   1.00800           0
     24969 MEMB     215      POPC     C213     CTL2    -0.180000       12.0110           0
     24970 MEMB     215      POPC     H13R     HAL2     0.900000E-01   1.00800           0
     24971 MEMB     215      POPC     H13S     HAL2     0.900000E-01   1.00800           0
     24972 MEMB     215      POPC     C214     CTL2    -0.180000       12.0110           0
     24973 MEMB     215      POPC     H14R     HAL2     0.900000E-01   1.00800           0
     24974 MEMB     215      POPC     H14S     HAL2     0.900000E-01   1.00800           0
     24975 MEMB     215      POPC     C215     CTL2    -0.180000       12.0110           0
     24976 MEMB     215      POPC     H15R     HAL2     0.900000E-01   1.00800           0
     24977 MEMB     215      POPC     H15S     HAL2     0.900000E-01   1.00800           0
     24978 MEMB     215      POPC     C216     CTL2    -0.180000       12.0110           0
     24979 MEMB     215      POPC     H16R     HAL2     0.900000E-01   1.00800           0
     24980 MEMB     215      POPC     H16S     HAL2     0.900000E-01   1.00800           0
     24981 MEMB     215      POPC     C217     CTL2    -0.180000       12.0110           0
     24982 MEMB     215      POPC     H17R     HAL2     0.900000E-01   1.00800           0
     24983 MEMB     215      POPC     H17S     HAL2     0.900000E-01   1.00800           0
     24984 MEMB     215      POPC     C218     CTL3    -0.270000       12.0110           0
     24985 MEMB     215      POPC     H18R     HAL3     0.900000E-01   1.00800           0
     24986 MEMB     215      POPC     H18S     HAL3     0.900000E-01   1.00800           0
     24987 MEMB     215      POPC     H18T     HAL3     0.900000E-01   1.00800           0
     24988 MEMB     215      POPC     C33      CTL2    -0.180000       12.0110           0
     24989 MEMB     215      POPC     H3X      HAL2     0.900000E-01   1.00800           0
     24990 MEMB     215      POPC     H3Y      HAL2     0.900000E-01   1.00800           0
     24991 MEMB     215      POPC     C34      CTL2    -0.180000       12.0110           0
     24992 MEMB     215      POPC     H4X      HAL2     0.900000E-01   1.00800           0
     24993 MEMB     215      POPC     H4Y      HAL2     0.900000E-01   1.00800           0
     24994 MEMB     215      POPC     C35      CTL2    -0.180000       12.0110           0
     24995 MEMB     215      POPC     H5X      HAL2     0.900000E-01   1.00800           0
     24996 MEMB     215      POPC     H5Y      HAL2     0.900000E-01   1.00800           0
     24997 MEMB     215      POPC     C36      CTL2    -0.180000       12.0110           0
     24998 MEMB     215      POPC     H6X      HAL2     0.900000E-01   1.00800           0
     24999 MEMB     215      POPC     H6Y      HAL2     0.900000E-01   1.00800           0
     25000 MEMB     215      POPC     C37      CTL2    -0.180000       12.0110           0
     25001 MEMB     215      POPC     H7X      HAL2     0.900000E-01   1.00800           0
     25002 MEMB     215      POPC     H7Y      HAL2     0.900000E-01   1.00800           0
     25003 MEMB     215      POPC     C38      CTL2    -0.180000       12.0110           0
     25004 MEMB     215      POPC     H8X      HAL2     0.900000E-01   1.00800           0
     25005 MEMB     215      POPC     H8Y      HAL2     0.900000E-01   1.00800           0
     25006 MEMB     215      POPC     C39      CTL2    -0.180000       12.0110           0
     25007 MEMB     215      POPC     H9X      HAL2     0.900000E-01   1.00800           0
     25008 MEMB     215      POPC     H9Y      HAL2     0.900000E-01   1.00800           0
     25009 MEMB     215      POPC     C310     CTL2    -0.180000       12.0110           0
     25010 MEMB     215      POPC     H10X     HAL2     0.900000E-01   1.00800           0
     25011 MEMB     215      POPC     H10Y     HAL2     0.900000E-01   1.00800           0
     25012 MEMB     215      POPC     C311     CTL2    -0.180000       12.0110           0
     25013 MEMB     215      POPC     H11X     HAL2     0.900000E-01   1.00800           0
     25014 MEMB     215      POPC     H11Y     HAL2     0.900000E-01   1.00800           0
     25015 MEMB     215      POPC     C312     CTL2    -0.180000       12.0110           0
     25016 MEMB     215      POPC     H12X     HAL2     0.900000E-01   1.00800           0
     25017 MEMB     215      POPC     H12Y     HAL2     0.900000E-01   1.00800           0
     25018 MEMB     215      POPC     C313     CTL2    -0.180000       12.0110           0
     25019 MEMB     215      POPC     H13X     HAL2     0.900000E-01   1.00800           0
     25020 MEMB     215      POPC     H13Y     HAL2     0.900000E-01   1.00800           0
     25021 MEMB     215      POPC     C314     CTL2    -0.180000       12.0110           0
     25022 MEMB     215      POPC     H14X     HAL2     0.900000E-01   1.00800           0
     25023 MEMB     215      POPC     H14Y     HAL2     0.900000E-01   1.00800           0
     25024 MEMB     215      POPC     C315     CTL2    -0.180000       12.0110           0
     25025 MEMB     215      POPC     H15X     HAL2     0.900000E-01   1.00800           0
     25026 MEMB     215      POPC     H15Y     HAL2     0.900000E-01   1.00800           0
     25027 MEMB     215      POPC     C316     CTL3    -0.270000       12.0110           0
     25028 MEMB     215      POPC     H16X     HAL3     0.900000E-01   1.00800           0
     25029 MEMB     215      POPC     H16Y     HAL3     0.900000E-01   1.00800           0
     25030 MEMB     215      POPC     H16Z     HAL3     0.900000E-01   1.00800           0
     25031 MEMB     216      POPC     N        NTL     -0.600000       14.0070           0
     25032 MEMB     216      POPC     C12      CTL2    -0.100000       12.0110           0
     25033 MEMB     216      POPC     H12A     HL       0.250000       1.00800           0
     25034 MEMB     216      POPC     H12B     HL       0.250000       1.00800           0
     25035 MEMB     216      POPC     C13      CTL5    -0.350000       12.0110           0
     25036 MEMB     216      POPC     H13A     HL       0.250000       1.00800           0
     25037 MEMB     216      POPC     H13B     HL       0.250000       1.00800           0
     25038 MEMB     216      POPC     H13C     HL       0.250000       1.00800           0
     25039 MEMB     216      POPC     C14      CTL5    -0.350000       12.0110           0
     25040 MEMB     216      POPC     H14A     HL       0.250000       1.00800           0
     25041 MEMB     216      POPC     H14B     HL       0.250000       1.00800           0
     25042 MEMB     216      POPC     H14C     HL       0.250000       1.00800           0
     25043 MEMB     216      POPC     C15      CTL5    -0.350000       12.0110           0
     25044 MEMB     216      POPC     H15A     HL       0.250000       1.00800           0
     25045 MEMB     216      POPC     H15B     HL       0.250000       1.00800           0
     25046 MEMB     216      POPC     H15C     HL       0.250000       1.00800           0
     25047 MEMB     216      POPC     C11      CTL2    -0.800000E-01   12.0110           0
     25048 MEMB     216      POPC     H11A     HAL2     0.900000E-01   1.00800           0
     25049 MEMB     216      POPC     H11B     HAL2     0.900000E-01   1.00800           0
     25050 MEMB     216      POPC     P        PL        1.50000       30.9740           0
     25051 MEMB     216      POPC     O13      O2L     -0.780000       15.9994           0
     25052 MEMB     216      POPC     O14      O2L     -0.780000       15.9994           0
     25053 MEMB     216      POPC     O12      OSLP    -0.570000       15.9994           0
     25054 MEMB     216      POPC     O11      OSLP    -0.570000       15.9994           0
     25055 MEMB     216      POPC     C1       CTL2    -0.800000E-01   12.0110           0
     25056 MEMB     216      POPC     HA       HAL2     0.900000E-01   1.00800           0
     25057 MEMB     216      POPC     HB       HAL2     0.900000E-01   1.00800           0
     25058 MEMB     216      POPC     C2       CTL1     0.170000       12.0110           0
     25059 MEMB     216      POPC     HS       HAL1     0.900000E-01   1.00800           0
     25060 MEMB     216      POPC     O21      OSL     -0.490000       15.9994           0
     25061 MEMB     216      POPC     C21      CL       0.900000       12.0110           0
     25062 MEMB     216      POPC     O22      OBL     -0.630000       15.9994           0
     25063 MEMB     216      POPC     C22      CTL2    -0.220000       12.0110           0
     25064 MEMB     216      POPC     H2R      HAL2     0.900000E-01   1.00800           0
     25065 MEMB     216      POPC     H2S      HAL2     0.900000E-01   1.00800           0
     25066 MEMB     216      POPC     C3       CTL2     0.800000E-01   12.0110           0
     25067 MEMB     216      POPC     HX       HAL2     0.900000E-01   1.00800           0
     25068 MEMB     216      POPC     HY       HAL2     0.900000E-01   1.00800           0
     25069 MEMB     216      POPC     O31      OSL     -0.490000       15.9994           0
     25070 MEMB     216      POPC     C31      CL       0.900000       12.0110           0
     25071 MEMB     216      POPC     O32      OBL     -0.630000       15.9994           0
     25072 MEMB     216      POPC     C32      CTL2    -0.220000       12.0110           0
     25073 MEMB     216      POPC     H2X      HAL2     0.900000E-01   1.00800           0
     25074 MEMB     216      POPC     H2Y      HAL2     0.900000E-01   1.00800           0
     25075 MEMB     216      POPC     C23      CTL2    -0.180000       12.0110           0
     25076 MEMB     216      POPC     H3R      HAL2     0.900000E-01   1.00800           0
     25077 MEMB     216      POPC     H3S      HAL2     0.900000E-01   1.00800           0
     25078 MEMB     216      POPC     C24      CTL2    -0.180000       12.0110           0
     25079 MEMB     216      POPC     H4R      HAL2     0.900000E-01   1.00800           0
     25080 MEMB     216      POPC     H4S      HAL2     0.900000E-01   1.00800           0
     25081 MEMB     216      POPC     C25      CTL2    -0.180000       12.0110           0
     25082 MEMB     216      POPC     H5R      HAL2     0.900000E-01   1.00800           0
     25083 MEMB     216      POPC     H5S      HAL2     0.900000E-01   1.00800           0
     25084 MEMB     216      POPC     C26      CTL2    -0.180000       12.0110           0
     25085 MEMB     216      POPC     H6R      HAL2     0.900000E-01   1.00800           0
     25086 MEMB     216      POPC     H6S      HAL2     0.900000E-01   1.00800           0
     25087 MEMB     216      POPC     C27      CTL2    -0.180000       12.0110           0
     25088 MEMB     216      POPC     H7R      HAL2     0.900000E-01   1.00800           0
     25089 MEMB     216      POPC     H7S      HAL2     0.900000E-01   1.00800           0
     25090 MEMB     216      POPC     C28      CTL2    -0.180000       12.0110           0
     25091 MEMB     216      POPC     H8R      HAL2     0.900000E-01   1.00800           0
     25092 MEMB     216      POPC     H8S      HAL2     0.900000E-01   1.00800           0
     25093 MEMB     216      POPC     C29      CEL1    -0.150000       12.0110           0
     25094 MEMB     216      POPC     H91      HEL1     0.150000       1.00800           0
     25095 MEMB     216      POPC     C210     CEL1    -0.150000       12.0110           0
     25096 MEMB     216      POPC     H101     HEL1     0.150000       1.00800           0
     25097 MEMB     216      POPC     C211     CTL2    -0.180000       12.0110           0
     25098 MEMB     216      POPC     H11R     HAL2     0.900000E-01   1.00800           0
     25099 MEMB     216      POPC     H11S     HAL2     0.900000E-01   1.00800           0
     25100 MEMB     216      POPC     C212     CTL2    -0.180000       12.0110           0
     25101 MEMB     216      POPC     H12R     HAL2     0.900000E-01   1.00800           0
     25102 MEMB     216      POPC     H12S     HAL2     0.900000E-01   1.00800           0
     25103 MEMB     216      POPC     C213     CTL2    -0.180000       12.0110           0
     25104 MEMB     216      POPC     H13R     HAL2     0.900000E-01   1.00800           0
     25105 MEMB     216      POPC     H13S     HAL2     0.900000E-01   1.00800           0
     25106 MEMB     216      POPC     C214     CTL2    -0.180000       12.0110           0
     25107 MEMB     216      POPC     H14R     HAL2     0.900000E-01   1.00800           0
     25108 MEMB     216      POPC     H14S     HAL2     0.900000E-01   1.00800           0
     25109 MEMB     216      POPC     C215     CTL2    -0.180000       12.0110           0
     25110 MEMB     216      POPC     H15R     HAL2     0.900000E-01   1.00800           0
     25111 MEMB     216      POPC     H15S     HAL2     0.900000E-01   1.00800           0
     25112 MEMB     216      POPC     C216     CTL2    -0.180000       12.0110           0
     25113 MEMB     216      POPC     H16R     HAL2     0.900000E-01   1.00800           0
     25114 MEMB     216      POPC     H16S     HAL2     0.900000E-01   1.00800           0
     25115 MEMB     216      POPC     C217     CTL2    -0.180000       12.0110           0
     25116 MEMB     216      POPC     H17R     HAL2     0.900000E-01   1.00800           0
     25117 MEMB     216      POPC     H17S     HAL2     0.900000E-01   1.00800           0
     25118 MEMB     216      POPC     C218     CTL3    -0.270000       12.0110           0
     25119 MEMB     216      POPC     H18R     HAL3     0.900000E-01   1.00800           0
     25120 MEMB     216      POPC     H18S     HAL3     0.900000E-01   1.00800           0
     25121 MEMB     216      POPC     H18T     HAL3     0.900000E-01   1.00800           0
     25122 MEMB     216      POPC     C33      CTL2    -0.180000       12.0110           0
     25123 MEMB     216      POPC     H3X      HAL2     0.900000E-01   1.00800           0
     25124 MEMB     216      POPC     H3Y      HAL2     0.900000E-01   1.00800           0
     25125 MEMB     216      POPC     C34      CTL2    -0.180000       12.0110           0
     25126 MEMB     216      POPC     H4X      HAL2     0.900000E-01   1.00800           0
     25127 MEMB     216      POPC     H4Y      HAL2     0.900000E-01   1.00800           0
     25128 MEMB     216      POPC     C35      CTL2    -0.180000       12.0110           0
     25129 MEMB     216      POPC     H5X      HAL2     0.900000E-01   1.00800           0
     25130 MEMB     216      POPC     H5Y      HAL2     0.900000E-01   1.00800           0
     25131 MEMB     216      POPC     C36      CTL2    -0.180000       12.0110           0
     25132 MEMB     216      POPC     H6X      HAL2     0.900000E-01   1.00800           0
     25133 MEMB     216      POPC     H6Y      HAL2     0.900000E-01   1.00800           0
     25134 MEMB     216      POPC     C37      CTL2    -0.180000       12.0110           0
     25135 MEMB     216      POPC     H7X      HAL2     0.900000E-01   1.00800           0
     25136 MEMB     216      POPC     H7Y      HAL2     0.900000E-01   1.00800           0
     25137 MEMB     216      POPC     C38      CTL2    -0.180000       12.0110           0
     25138 MEMB     216      POPC     H8X      HAL2     0.900000E-01   1.00800           0
     25139 MEMB     216      POPC     H8Y      HAL2     0.900000E-01   1.00800           0
     25140 MEMB     216      POPC     C39      CTL2    -0.180000       12.0110           0
     25141 MEMB     216      POPC     H9X      HAL2     0.900000E-01   1.00800           0
     25142 MEMB     216      POPC     H9Y      HAL2     0.900000E-01   1.00800           0
     25143 MEMB     216      POPC     C310     CTL2    -0.180000       12.0110           0
     25144 MEMB     216      POPC     H10X     HAL2     0.900000E-01   1.00800           0
     25145 MEMB     216      POPC     H10Y     HAL2     0.900000E-01   1.00800           0
     25146 MEMB     216      POPC     C311     CTL2    -0.180000       12.0110           0
     25147 MEMB     216      POPC     H11X     HAL2     0.900000E-01   1.00800           0
     25148 MEMB     216      POPC     H11Y     HAL2     0.900000E-01   1.00800           0
     25149 MEMB     216      POPC     C312     CTL2    -0.180000       12.0110           0
     25150 MEMB     216      POPC     H12X     HAL2     0.900000E-01   1.00800           0
     25151 MEMB     216      POPC     H12Y     HAL2     0.900000E-01   1.00800           0
     25152 MEMB     216      POPC     C313     CTL2    -0.180000       12.0110           0
     25153 MEMB     216      POPC     H13X     HAL2     0.900000E-01   1.00800           0
     25154 MEMB     216      POPC     H13Y     HAL2     0.900000E-01   1.00800           0
     25155 MEMB     216      POPC     C314     CTL2    -0.180000       12.0110           0
     25156 MEMB     216      POPC     H14X     HAL2     0.900000E-01   1.00800           0
     25157 MEMB     216      POPC     H14Y     HAL2     0.900000E-01   1.00800           0
     25158 MEMB     216      POPC     C315     CTL2    -0.180000       12.0110           0
     25159 MEMB     216      POPC     H15X     HAL2     0.900000E-01   1.00800           0
     25160 MEMB     216      POPC     H15Y     HAL2     0.900000E-01   1.00800           0
     25161 MEMB     216      POPC     C316     CTL3    -0.270000       12.0110           0
     25162 MEMB     216      POPC     H16X     HAL3     0.900000E-01   1.00800           0
     25163 MEMB     216      POPC     H16Y     HAL3     0.900000E-01   1.00800           0
     25164 MEMB     216      POPC     H16Z     HAL3     0.900000E-01   1.00800           0
     25165 MEMB     217      POPC     N        NTL     -0.600000       14.0070           0
     25166 MEMB     217      POPC     C12      CTL2    -0.100000       12.0110           0
     25167 MEMB     217      POPC     H12A     HL       0.250000       1.00800           0
     25168 MEMB     217      POPC     H12B     HL       0.250000       1.00800           0
     25169 MEMB     217      POPC     C13      CTL5    -0.350000       12.0110           0
     25170 MEMB     217      POPC     H13A     HL       0.250000       1.00800           0
     25171 MEMB     217      POPC     H13B     HL       0.250000       1.00800           0
     25172 MEMB     217      POPC     H13C     HL       0.250000       1.00800           0
     25173 MEMB     217      POPC     C14      CTL5    -0.350000       12.0110           0
     25174 MEMB     217      POPC     H14A     HL       0.250000       1.00800           0
     25175 MEMB     217      POPC     H14B     HL       0.250000       1.00800           0
     25176 MEMB     217      POPC     H14C     HL       0.250000       1.00800           0
     25177 MEMB     217      POPC     C15      CTL5    -0.350000       12.0110           0
     25178 MEMB     217      POPC     H15A     HL       0.250000       1.00800           0
     25179 MEMB     217      POPC     H15B     HL       0.250000       1.00800           0
     25180 MEMB     217      POPC     H15C     HL       0.250000       1.00800           0
     25181 MEMB     217      POPC     C11      CTL2    -0.800000E-01   12.0110           0
     25182 MEMB     217      POPC     H11A     HAL2     0.900000E-01   1.00800           0
     25183 MEMB     217      POPC     H11B     HAL2     0.900000E-01   1.00800           0
     25184 MEMB     217      POPC     P        PL        1.50000       30.9740           0
     25185 MEMB     217      POPC     O13      O2L     -0.780000       15.9994           0
     25186 MEMB     217      POPC     O14      O2L     -0.780000       15.9994           0
     25187 MEMB     217      POPC     O12      OSLP    -0.570000       15.9994           0
     25188 MEMB     217      POPC     O11      OSLP    -0.570000       15.9994           0
     25189 MEMB     217      POPC     C1       CTL2    -0.800000E-01   12.0110           0
     25190 MEMB     217      POPC     HA       HAL2     0.900000E-01   1.00800           0
     25191 MEMB     217      POPC     HB       HAL2     0.900000E-01   1.00800           0
     25192 MEMB     217      POPC     C2       CTL1     0.170000       12.0110           0
     25193 MEMB     217      POPC     HS       HAL1     0.900000E-01   1.00800           0
     25194 MEMB     217      POPC     O21      OSL     -0.490000       15.9994           0
     25195 MEMB     217      POPC     C21      CL       0.900000       12.0110           0
     25196 MEMB     217      POPC     O22      OBL     -0.630000       15.9994           0
     25197 MEMB     217      POPC     C22      CTL2    -0.220000       12.0110           0
     25198 MEMB     217      POPC     H2R      HAL2     0.900000E-01   1.00800           0
     25199 MEMB     217      POPC     H2S      HAL2     0.900000E-01   1.00800           0
     25200 MEMB     217      POPC     C3       CTL2     0.800000E-01   12.0110           0
     25201 MEMB     217      POPC     HX       HAL2     0.900000E-01   1.00800           0
     25202 MEMB     217      POPC     HY       HAL2     0.900000E-01   1.00800           0
     25203 MEMB     217      POPC     O31      OSL     -0.490000       15.9994           0
     25204 MEMB     217      POPC     C31      CL       0.900000       12.0110           0
     25205 MEMB     217      POPC     O32      OBL     -0.630000       15.9994           0
     25206 MEMB     217      POPC     C32      CTL2    -0.220000       12.0110           0
     25207 MEMB     217      POPC     H2X      HAL2     0.900000E-01   1.00800           0
     25208 MEMB     217      POPC     H2Y      HAL2     0.900000E-01   1.00800           0
     25209 MEMB     217      POPC     C23      CTL2    -0.180000       12.0110           0
     25210 MEMB     217      POPC     H3R      HAL2     0.900000E-01   1.00800           0
     25211 MEMB     217      POPC     H3S      HAL2     0.900000E-01   1.00800           0
     25212 MEMB     217      POPC     C24      CTL2    -0.180000       12.0110           0
     25213 MEMB     217      POPC     H4R      HAL2     0.900000E-01   1.00800           0
     25214 MEMB     217      POPC     H4S      HAL2     0.900000E-01   1.00800           0
     25215 MEMB     217      POPC     C25      CTL2    -0.180000       12.0110           0
     25216 MEMB     217      POPC     H5R      HAL2     0.900000E-01   1.00800           0
     25217 MEMB     217      POPC     H5S      HAL2     0.900000E-01   1.00800           0
     25218 MEMB     217      POPC     C26      CTL2    -0.180000       12.0110           0
     25219 MEMB     217      POPC     H6R      HAL2     0.900000E-01   1.00800           0
     25220 MEMB     217      POPC     H6S      HAL2     0.900000E-01   1.00800           0
     25221 MEMB     217      POPC     C27      CTL2    -0.180000       12.0110           0
     25222 MEMB     217      POPC     H7R      HAL2     0.900000E-01   1.00800           0
     25223 MEMB     217      POPC     H7S      HAL2     0.900000E-01   1.00800           0
     25224 MEMB     217      POPC     C28      CTL2    -0.180000       12.0110           0
     25225 MEMB     217      POPC     H8R      HAL2     0.900000E-01   1.00800           0
     25226 MEMB     217      POPC     H8S      HAL2     0.900000E-01   1.00800           0
     25227 MEMB     217      POPC     C29      CEL1    -0.150000       12.0110           0
     25228 MEMB     217      POPC     H91      HEL1     0.150000       1.00800           0
     25229 MEMB     217      POPC     C210     CEL1    -0.150000       12.0110           0
     25230 MEMB     217      POPC     H101     HEL1     0.150000       1.00800           0
     25231 MEMB     217      POPC     C211     CTL2    -0.180000       12.0110           0
     25232 MEMB     217      POPC     H11R     HAL2     0.900000E-01   1.00800           0
     25233 MEMB     217      POPC     H11S     HAL2     0.900000E-01   1.00800           0
     25234 MEMB     217      POPC     C212     CTL2    -0.180000       12.0110           0
     25235 MEMB     217      POPC     H12R     HAL2     0.900000E-01   1.00800           0
     25236 MEMB     217      POPC     H12S     HAL2     0.900000E-01   1.00800           0
     25237 MEMB     217      POPC     C213     CTL2    -0.180000       12.0110           0
     25238 MEMB     217      POPC     H13R     HAL2     0.900000E-01   1.00800           0
     25239 MEMB     217      POPC     H13S     HAL2     0.900000E-01   1.00800           0
     25240 MEMB     217      POPC     C214     CTL2    -0.180000       12.0110           0
     25241 MEMB     217      POPC     H14R     HAL2     0.900000E-01   1.00800           0
     25242 MEMB     217      POPC     H14S     HAL2     0.900000E-01   1.00800           0
     25243 MEMB     217      POPC     C215     CTL2    -0.180000       12.0110           0
     25244 MEMB     217      POPC     H15R     HAL2     0.900000E-01   1.00800           0
     25245 MEMB     217      POPC     H15S     HAL2     0.900000E-01   1.00800           0
     25246 MEMB     217      POPC     C216     CTL2    -0.180000       12.0110           0
     25247 MEMB     217      POPC     H16R     HAL2     0.900000E-01   1.00800           0
     25248 MEMB     217      POPC     H16S     HAL2     0.900000E-01   1.00800           0
     25249 MEMB     217      POPC     C217     CTL2    -0.180000       12.0110           0
     25250 MEMB     217      POPC     H17R     HAL2     0.900000E-01   1.00800           0
     25251 MEMB     217      POPC     H17S     HAL2     0.900000E-01   1.00800           0
     25252 MEMB     217      POPC     C218     CTL3    -0.270000       12.0110           0
     25253 MEMB     217      POPC     H18R     HAL3     0.900000E-01   1.00800           0
     25254 MEMB     217      POPC     H18S     HAL3     0.900000E-01   1.00800           0
     25255 MEMB     217      POPC     H18T     HAL3     0.900000E-01   1.00800           0
     25256 MEMB     217      POPC     C33      CTL2    -0.180000       12.0110           0
     25257 MEMB     217      POPC     H3X      HAL2     0.900000E-01   1.00800           0
     25258 MEMB     217      POPC     H3Y      HAL2     0.900000E-01   1.00800           0
     25259 MEMB     217      POPC     C34      CTL2    -0.180000       12.0110           0
     25260 MEMB     217      POPC     H4X      HAL2     0.900000E-01   1.00800           0
     25261 MEMB     217      POPC     H4Y      HAL2     0.900000E-01   1.00800           0
     25262 MEMB     217      POPC     C35      CTL2    -0.180000       12.0110           0
     25263 MEMB     217      POPC     H5X      HAL2     0.900000E-01   1.00800           0
     25264 MEMB     217      POPC     H5Y      HAL2     0.900000E-01   1.00800           0
     25265 MEMB     217      POPC     C36      CTL2    -0.180000       12.0110           0
     25266 MEMB     217      POPC     H6X      HAL2     0.900000E-01   1.00800           0
     25267 MEMB     217      POPC     H6Y      HAL2     0.900000E-01   1.00800           0
     25268 MEMB     217      POPC     C37      CTL2    -0.180000       12.0110           0
     25269 MEMB     217      POPC     H7X      HAL2     0.900000E-01   1.00800           0
     25270 MEMB     217      POPC     H7Y      HAL2     0.900000E-01   1.00800           0
     25271 MEMB     217      POPC     C38      CTL2    -0.180000       12.0110           0
     25272 MEMB     217      POPC     H8X      HAL2     0.900000E-01   1.00800           0
     25273 MEMB     217      POPC     H8Y      HAL2     0.900000E-01   1.00800           0
     25274 MEMB     217      POPC     C39      CTL2    -0.180000       12.0110           0
     25275 MEMB     217      POPC     H9X      HAL2     0.900000E-01   1.00800           0
     25276 MEMB     217      POPC     H9Y      HAL2     0.900000E-01   1.00800           0
     25277 MEMB     217      POPC     C310     CTL2    -0.180000       12.0110           0
     25278 MEMB     217      POPC     H10X     HAL2     0.900000E-01   1.00800           0
     25279 MEMB     217      POPC     H10Y     HAL2     0.900000E-01   1.00800           0
     25280 MEMB     217      POPC     C311     CTL2    -0.180000       12.0110           0
     25281 MEMB     217      POPC     H11X     HAL2     0.900000E-01   1.00800           0
     25282 MEMB     217      POPC     H11Y     HAL2     0.900000E-01   1.00800           0
     25283 MEMB     217      POPC     C312     CTL2    -0.180000       12.0110           0
     25284 MEMB     217      POPC     H12X     HAL2     0.900000E-01   1.00800           0
     25285 MEMB     217      POPC     H12Y     HAL2     0.900000E-01   1.00800           0
     25286 MEMB     217      POPC     C313     CTL2    -0.180000       12.0110           0
     25287 MEMB     217      POPC     H13X     HAL2     0.900000E-01   1.00800           0
     25288 MEMB     217      POPC     H13Y     HAL2     0.900000E-01   1.00800           0
     25289 MEMB     217      POPC     C314     CTL2    -0.180000       12.0110           0
     25290 MEMB     217      POPC     H14X     HAL2     0.900000E-01   1.00800           0
     25291 MEMB     217      POPC     H14Y     HAL2     0.900000E-01   1.00800           0
     25292 MEMB     217      POPC     C315     CTL2    -0.180000       12.0110           0
     25293 MEMB     217      POPC     H15X     HAL2     0.900000E-01   1.00800           0
     25294 MEMB     217      POPC     H15Y     HAL2     0.900000E-01   1.00800           0
     25295 MEMB     217      POPC     C316     CTL3    -0.270000       12.0110           0
     25296 MEMB     217      POPC     H16X     HAL3     0.900000E-01   1.00800           0
     25297 MEMB     217      POPC     H16Y     HAL3     0.900000E-01   1.00800           0
     25298 MEMB     217      POPC     H16Z     HAL3     0.900000E-01   1.00800           0
     25299 MEMB     218      POPC     N        NTL     -0.600000       14.0070           0
     25300 MEMB     218      POPC     C12      CTL2    -0.100000       12.0110           0
     25301 MEMB     218      POPC     H12A     HL       0.250000       1.00800           0
     25302 MEMB     218      POPC     H12B     HL       0.250000       1.00800           0
     25303 MEMB     218      POPC     C13      CTL5    -0.350000       12.0110           0
     25304 MEMB     218      POPC     H13A     HL       0.250000       1.00800           0
     25305 MEMB     218      POPC     H13B     HL       0.250000       1.00800           0
     25306 MEMB     218      POPC     H13C     HL       0.250000       1.00800           0
     25307 MEMB     218      POPC     C14      CTL5    -0.350000       12.0110           0
     25308 MEMB     218      POPC     H14A     HL       0.250000       1.00800           0
     25309 MEMB     218      POPC     H14B     HL       0.250000       1.00800           0
     25310 MEMB     218      POPC     H14C     HL       0.250000       1.00800           0
     25311 MEMB     218      POPC     C15      CTL5    -0.350000       12.0110           0
     25312 MEMB     218      POPC     H15A     HL       0.250000       1.00800           0
     25313 MEMB     218      POPC     H15B     HL       0.250000       1.00800           0
     25314 MEMB     218      POPC     H15C     HL       0.250000       1.00800           0
     25315 MEMB     218      POPC     C11      CTL2    -0.800000E-01   12.0110           0
     25316 MEMB     218      POPC     H11A     HAL2     0.900000E-01   1.00800           0
     25317 MEMB     218      POPC     H11B     HAL2     0.900000E-01   1.00800           0
     25318 MEMB     218      POPC     P        PL        1.50000       30.9740           0
     25319 MEMB     218      POPC     O13      O2L     -0.780000       15.9994           0
     25320 MEMB     218      POPC     O14      O2L     -0.780000       15.9994           0
     25321 MEMB     218      POPC     O12      OSLP    -0.570000       15.9994           0
     25322 MEMB     218      POPC     O11      OSLP    -0.570000       15.9994           0
     25323 MEMB     218      POPC     C1       CTL2    -0.800000E-01   12.0110           0
     25324 MEMB     218      POPC     HA       HAL2     0.900000E-01   1.00800           0
     25325 MEMB     218      POPC     HB       HAL2     0.900000E-01   1.00800           0
     25326 MEMB     218      POPC     C2       CTL1     0.170000       12.0110           0
     25327 MEMB     218      POPC     HS       HAL1     0.900000E-01   1.00800           0
     25328 MEMB     218      POPC     O21      OSL     -0.490000       15.9994           0
     25329 MEMB     218      POPC     C21      CL       0.900000       12.0110           0
     25330 MEMB     218      POPC     O22      OBL     -0.630000       15.9994           0
     25331 MEMB     218      POPC     C22      CTL2    -0.220000       12.0110           0
     25332 MEMB     218      POPC     H2R      HAL2     0.900000E-01   1.00800           0
     25333 MEMB     218      POPC     H2S      HAL2     0.900000E-01   1.00800           0
     25334 MEMB     218      POPC     C3       CTL2     0.800000E-01   12.0110           0
     25335 MEMB     218      POPC     HX       HAL2     0.900000E-01   1.00800           0
     25336 MEMB     218      POPC     HY       HAL2     0.900000E-01   1.00800           0
     25337 MEMB     218      POPC     O31      OSL     -0.490000       15.9994           0
     25338 MEMB     218      POPC     C31      CL       0.900000       12.0110           0
     25339 MEMB     218      POPC     O32      OBL     -0.630000       15.9994           0
     25340 MEMB     218      POPC     C32      CTL2    -0.220000       12.0110           0
     25341 MEMB     218      POPC     H2X      HAL2     0.900000E-01   1.00800           0
     25342 MEMB     218      POPC     H2Y      HAL2     0.900000E-01   1.00800           0
     25343 MEMB     218      POPC     C23      CTL2    -0.180000       12.0110           0
     25344 MEMB     218      POPC     H3R      HAL2     0.900000E-01   1.00800           0
     25345 MEMB     218      POPC     H3S      HAL2     0.900000E-01   1.00800           0
     25346 MEMB     218      POPC     C24      CTL2    -0.180000       12.0110           0
     25347 MEMB     218      POPC     H4R      HAL2     0.900000E-01   1.00800           0
     25348 MEMB     218      POPC     H4S      HAL2     0.900000E-01   1.00800           0
     25349 MEMB     218      POPC     C25      CTL2    -0.180000       12.0110           0
     25350 MEMB     218      POPC     H5R      HAL2     0.900000E-01   1.00800           0
     25351 MEMB     218      POPC     H5S      HAL2     0.900000E-01   1.00800           0
     25352 MEMB     218      POPC     C26      CTL2    -0.180000       12.0110           0
     25353 MEMB     218      POPC     H6R      HAL2     0.900000E-01   1.00800           0
     25354 MEMB     218      POPC     H6S      HAL2     0.900000E-01   1.00800           0
     25355 MEMB     218      POPC     C27      CTL2    -0.180000       12.0110           0
     25356 MEMB     218      POPC     H7R      HAL2     0.900000E-01   1.00800           0
     25357 MEMB     218      POPC     H7S      HAL2     0.900000E-01   1.00800           0
     25358 MEMB     218      POPC     C28      CTL2    -0.180000       12.0110           0
     25359 MEMB     218      POPC     H8R      HAL2     0.900000E-01   1.00800           0
     25360 MEMB     218      POPC     H8S      HAL2     0.900000E-01   1.00800           0
     25361 MEMB     218      POPC     C29      CEL1    -0.150000       12.0110           0
     25362 MEMB     218      POPC     H91      HEL1     0.150000       1.00800           0
     25363 MEMB     218      POPC     C210     CEL1    -0.150000       12.0110           0
     25364 MEMB     218      POPC     H101     HEL1     0.150000       1.00800           0
     25365 MEMB     218      POPC     C211     CTL2    -0.180000       12.0110           0
     25366 MEMB     218      POPC     H11R     HAL2     0.900000E-01   1.00800           0
     25367 MEMB     218      POPC     H11S     HAL2     0.900000E-01   1.00800           0
     25368 MEMB     218      POPC     C212     CTL2    -0.180000       12.0110           0
     25369 MEMB     218      POPC     H12R     HAL2     0.900000E-01   1.00800           0
     25370 MEMB     218      POPC     H12S     HAL2     0.900000E-01   1.00800           0
     25371 MEMB     218      POPC     C213     CTL2    -0.180000       12.0110           0
     25372 MEMB     218      POPC     H13R     HAL2     0.900000E-01   1.00800           0
     25373 MEMB     218      POPC     H13S     HAL2     0.900000E-01   1.00800           0
     25374 MEMB     218      POPC     C214     CTL2    -0.180000       12.0110           0
     25375 MEMB     218      POPC     H14R     HAL2     0.900000E-01   1.00800           0
     25376 MEMB     218      POPC     H14S     HAL2     0.900000E-01   1.00800           0
     25377 MEMB     218      POPC     C215     CTL2    -0.180000       12.0110           0
     25378 MEMB     218      POPC     H15R     HAL2     0.900000E-01   1.00800           0
     25379 MEMB     218      POPC     H15S     HAL2     0.900000E-01   1.00800           0
     25380 MEMB     218      POPC     C216     CTL2    -0.180000       12.0110           0
     25381 MEMB     218      POPC     H16R     HAL2     0.900000E-01   1.00800           0
     25382 MEMB     218      POPC     H16S     HAL2     0.900000E-01   1.00800           0
     25383 MEMB     218      POPC     C217     CTL2    -0.180000       12.0110           0
     25384 MEMB     218      POPC     H17R     HAL2     0.900000E-01   1.00800           0
     25385 MEMB     218      POPC     H17S     HAL2     0.900000E-01   1.00800           0
     25386 MEMB     218      POPC     C218     CTL3    -0.270000       12.0110           0
     25387 MEMB     218      POPC     H18R     HAL3     0.900000E-01   1.00800           0
     25388 MEMB     218      POPC     H18S     HAL3     0.900000E-01   1.00800           0
     25389 MEMB     218      POPC     H18T     HAL3     0.900000E-01   1.00800           0
     25390 MEMB     218      POPC     C33      CTL2    -0.180000       12.0110           0
     25391 MEMB     218      POPC     H3X      HAL2     0.900000E-01   1.00800           0
     25392 MEMB     218      POPC     H3Y      HAL2     0.900000E-01   1.00800           0
     25393 MEMB     218      POPC     C34      CTL2    -0.180000       12.0110           0
     25394 MEMB     218      POPC     H4X      HAL2     0.900000E-01   1.00800           0
     25395 MEMB     218      POPC     H4Y      HAL2     0.900000E-01   1.00800           0
     25396 MEMB     218      POPC     C35      CTL2    -0.180000       12.0110           0
     25397 MEMB     218      POPC     H5X      HAL2     0.900000E-01   1.00800           0
     25398 MEMB     218      POPC     H5Y      HAL2     0.900000E-01   1.00800           0
     25399 MEMB     218      POPC     C36      CTL2    -0.180000       12.0110           0
     25400 MEMB     218      POPC     H6X      HAL2     0.900000E-01   1.00800           0
     25401 MEMB     218      POPC     H6Y      HAL2     0.900000E-01   1.00800           0
     25402 MEMB     218      POPC     C37      CTL2    -0.180000       12.0110           0
     25403 MEMB     218      POPC     H7X      HAL2     0.900000E-01   1.00800           0
     25404 MEMB     218      POPC     H7Y      HAL2     0.900000E-01   1.00800           0
     25405 MEMB     218      POPC     C38      CTL2    -0.180000       12.0110           0
     25406 MEMB     218      POPC     H8X      HAL2     0.900000E-01   1.00800           0
     25407 MEMB     218      POPC     H8Y      HAL2     0.900000E-01   1.00800           0
     25408 MEMB     218      POPC     C39      CTL2    -0.180000       12.0110           0
     25409 MEMB     218      POPC     H9X      HAL2     0.900000E-01   1.00800           0
     25410 MEMB     218      POPC     H9Y      HAL2     0.900000E-01   1.00800           0
     25411 MEMB     218      POPC     C310     CTL2    -0.180000       12.0110           0
     25412 MEMB     218      POPC     H10X     HAL2     0.900000E-01   1.00800           0
     25413 MEMB     218      POPC     H10Y     HAL2     0.900000E-01   1.00800           0
     25414 MEMB     218      POPC     C311     CTL2    -0.180000       12.0110           0
     25415 MEMB     218      POPC     H11X     HAL2     0.900000E-01   1.00800           0
     25416 MEMB     218      POPC     H11Y     HAL2     0.900000E-01   1.00800           0
     25417 MEMB     218      POPC     C312     CTL2    -0.180000       12.0110           0
     25418 MEMB     218      POPC     H12X     HAL2     0.900000E-01   1.00800           0
     25419 MEMB     218      POPC     H12Y     HAL2     0.900000E-01   1.00800           0
     25420 MEMB     218      POPC     C313     CTL2    -0.180000       12.0110           0
     25421 MEMB     218      POPC     H13X     HAL2     0.900000E-01   1.00800           0
     25422 MEMB     218      POPC     H13Y     HAL2     0.900000E-01   1.00800           0
     25423 MEMB     218      POPC     C314     CTL2    -0.180000       12.0110           0
     25424 MEMB     218      POPC     H14X     HAL2     0.900000E-01   1.00800           0
     25425 MEMB     218      POPC     H14Y     HAL2     0.900000E-01   1.00800           0
     25426 MEMB     218      POPC     C315     CTL2    -0.180000       12.0110           0
     25427 MEMB     218      POPC     H15X     HAL2     0.900000E-01   1.00800           0
     25428 MEMB     218      POPC     H15Y     HAL2     0.900000E-01   1.00800           0
     25429 MEMB     218      POPC     C316     CTL3    -0.270000       12.0110           0
     25430 MEMB     218      POPC     H16X     HAL3     0.900000E-01   1.00800           0
     25431 MEMB     218      POPC     H16Y     HAL3     0.900000E-01   1.00800           0
     25432 MEMB     218      POPC     H16Z     HAL3     0.900000E-01   1.00800           0
     25433 MEMB     219      POPC     N        NTL     -0.600000       14.0070           0
     25434 MEMB     219      POPC     C12      CTL2    -0.100000       12.0110           0
     25435 MEMB     219      POPC     H12A     HL       0.250000       1.00800           0
     25436 MEMB     219      POPC     H12B     HL       0.250000       1.00800           0
     25437 MEMB     219      POPC     C13      CTL5    -0.350000       12.0110           0
     25438 MEMB     219      POPC     H13A     HL       0.250000       1.00800           0
     25439 MEMB     219      POPC     H13B     HL       0.250000       1.00800           0
     25440 MEMB     219      POPC     H13C     HL       0.250000       1.00800           0
     25441 MEMB     219      POPC     C14      CTL5    -0.350000       12.0110           0
     25442 MEMB     219      POPC     H14A     HL       0.250000       1.00800           0
     25443 MEMB     219      POPC     H14B     HL       0.250000       1.00800           0
     25444 MEMB     219      POPC     H14C     HL       0.250000       1.00800           0
     25445 MEMB     219      POPC     C15      CTL5    -0.350000       12.0110           0
     25446 MEMB     219      POPC     H15A     HL       0.250000       1.00800           0
     25447 MEMB     219      POPC     H15B     HL       0.250000       1.00800           0
     25448 MEMB     219      POPC     H15C     HL       0.250000       1.00800           0
     25449 MEMB     219      POPC     C11      CTL2    -0.800000E-01   12.0110           0
     25450 MEMB     219      POPC     H11A     HAL2     0.900000E-01   1.00800           0
     25451 MEMB     219      POPC     H11B     HAL2     0.900000E-01   1.00800           0
     25452 MEMB     219      POPC     P        PL        1.50000       30.9740           0
     25453 MEMB     219      POPC     O13      O2L     -0.780000       15.9994           0
     25454 MEMB     219      POPC     O14      O2L     -0.780000       15.9994           0
     25455 MEMB     219      POPC     O12      OSLP    -0.570000       15.9994           0
     25456 MEMB     219      POPC     O11      OSLP    -0.570000       15.9994           0
     25457 MEMB     219      POPC     C1       CTL2    -0.800000E-01   12.0110           0
     25458 MEMB     219      POPC     HA       HAL2     0.900000E-01   1.00800           0
     25459 MEMB     219      POPC     HB       HAL2     0.900000E-01   1.00800           0
     25460 MEMB     219      POPC     C2       CTL1     0.170000       12.0110           0
     25461 MEMB     219      POPC     HS       HAL1     0.900000E-01   1.00800           0
     25462 MEMB     219      POPC     O21      OSL     -0.490000       15.9994           0
     25463 MEMB     219      POPC     C21      CL       0.900000       12.0110           0
     25464 MEMB     219      POPC     O22      OBL     -0.630000       15.9994           0
     25465 MEMB     219      POPC     C22      CTL2    -0.220000       12.0110           0
     25466 MEMB     219      POPC     H2R      HAL2     0.900000E-01   1.00800           0
     25467 MEMB     219      POPC     H2S      HAL2     0.900000E-01   1.00800           0
     25468 MEMB     219      POPC     C3       CTL2     0.800000E-01   12.0110           0
     25469 MEMB     219      POPC     HX       HAL2     0.900000E-01   1.00800           0
     25470 MEMB     219      POPC     HY       HAL2     0.900000E-01   1.00800           0
     25471 MEMB     219      POPC     O31      OSL     -0.490000       15.9994           0
     25472 MEMB     219      POPC     C31      CL       0.900000       12.0110           0
     25473 MEMB     219      POPC     O32      OBL     -0.630000       15.9994           0
     25474 MEMB     219      POPC     C32      CTL2    -0.220000       12.0110           0
     25475 MEMB     219      POPC     H2X      HAL2     0.900000E-01   1.00800           0
     25476 MEMB     219      POPC     H2Y      HAL2     0.900000E-01   1.00800           0
     25477 MEMB     219      POPC     C23      CTL2    -0.180000       12.0110           0
     25478 MEMB     219      POPC     H3R      HAL2     0.900000E-01   1.00800           0
     25479 MEMB     219      POPC     H3S      HAL2     0.900000E-01   1.00800           0
     25480 MEMB     219      POPC     C24      CTL2    -0.180000       12.0110           0
     25481 MEMB     219      POPC     H4R      HAL2     0.900000E-01   1.00800           0
     25482 MEMB     219      POPC     H4S      HAL2     0.900000E-01   1.00800           0
     25483 MEMB     219      POPC     C25      CTL2    -0.180000       12.0110           0
     25484 MEMB     219      POPC     H5R      HAL2     0.900000E-01   1.00800           0
     25485 MEMB     219      POPC     H5S      HAL2     0.900000E-01   1.00800           0
     25486 MEMB     219      POPC     C26      CTL2    -0.180000       12.0110           0
     25487 MEMB     219      POPC     H6R      HAL2     0.900000E-01   1.00800           0
     25488 MEMB     219      POPC     H6S      HAL2     0.900000E-01   1.00800           0
     25489 MEMB     219      POPC     C27      CTL2    -0.180000       12.0110           0
     25490 MEMB     219      POPC     H7R      HAL2     0.900000E-01   1.00800           0
     25491 MEMB     219      POPC     H7S      HAL2     0.900000E-01   1.00800           0
     25492 MEMB     219      POPC     C28      CTL2    -0.180000       12.0110           0
     25493 MEMB     219      POPC     H8R      HAL2     0.900000E-01   1.00800           0
     25494 MEMB     219      POPC     H8S      HAL2     0.900000E-01   1.00800           0
     25495 MEMB     219      POPC     C29      CEL1    -0.150000       12.0110           0
     25496 MEMB     219      POPC     H91      HEL1     0.150000       1.00800           0
     25497 MEMB     219      POPC     C210     CEL1    -0.150000       12.0110           0
     25498 MEMB     219      POPC     H101     HEL1     0.150000       1.00800           0
     25499 MEMB     219      POPC     C211     CTL2    -0.180000       12.0110           0
     25500 MEMB     219      POPC     H11R     HAL2     0.900000E-01   1.00800           0
     25501 MEMB     219      POPC     H11S     HAL2     0.900000E-01   1.00800           0
     25502 MEMB     219      POPC     C212     CTL2    -0.180000       12.0110           0
     25503 MEMB     219      POPC     H12R     HAL2     0.900000E-01   1.00800           0
     25504 MEMB     219      POPC     H12S     HAL2     0.900000E-01   1.00800           0
     25505 MEMB     219      POPC     C213     CTL2    -0.180000       12.0110           0
     25506 MEMB     219      POPC     H13R     HAL2     0.900000E-01   1.00800           0
     25507 MEMB     219      POPC     H13S     HAL2     0.900000E-01   1.00800           0
     25508 MEMB     219      POPC     C214     CTL2    -0.180000       12.0110           0
     25509 MEMB     219      POPC     H14R     HAL2     0.900000E-01   1.00800           0
     25510 MEMB     219      POPC     H14S     HAL2     0.900000E-01   1.00800           0
     25511 MEMB     219      POPC     C215     CTL2    -0.180000       12.0110           0
     25512 MEMB     219      POPC     H15R     HAL2     0.900000E-01   1.00800           0
     25513 MEMB     219      POPC     H15S     HAL2     0.900000E-01   1.00800           0
     25514 MEMB     219      POPC     C216     CTL2    -0.180000       12.0110           0
     25515 MEMB     219      POPC     H16R     HAL2     0.900000E-01   1.00800           0
     25516 MEMB     219      POPC     H16S     HAL2     0.900000E-01   1.00800           0
     25517 MEMB     219      POPC     C217     CTL2    -0.180000       12.0110           0
     25518 MEMB     219      POPC     H17R     HAL2     0.900000E-01   1.00800           0
     25519 MEMB     219      POPC     H17S     HAL2     0.900000E-01   1.00800           0
     25520 MEMB     219      POPC     C218     CTL3    -0.270000       12.0110           0
     25521 MEMB     219      POPC     H18R     HAL3     0.900000E-01   1.00800           0
     25522 MEMB     219      POPC     H18S     HAL3     0.900000E-01   1.00800           0
     25523 MEMB     219      POPC     H18T     HAL3     0.900000E-01   1.00800           0
     25524 MEMB     219      POPC     C33      CTL2    -0.180000       12.0110           0
     25525 MEMB     219      POPC     H3X      HAL2     0.900000E-01   1.00800           0
     25526 MEMB     219      POPC     H3Y      HAL2     0.900000E-01   1.00800           0
     25527 MEMB     219      POPC     C34      CTL2    -0.180000       12.0110           0
     25528 MEMB     219      POPC     H4X      HAL2     0.900000E-01   1.00800           0
     25529 MEMB     219      POPC     H4Y      HAL2     0.900000E-01   1.00800           0
     25530 MEMB     219      POPC     C35      CTL2    -0.180000       12.0110           0
     25531 MEMB     219      POPC     H5X      HAL2     0.900000E-01   1.00800           0
     25532 MEMB     219      POPC     H5Y      HAL2     0.900000E-01   1.00800           0
     25533 MEMB     219      POPC     C36      CTL2    -0.180000       12.0110           0
     25534 MEMB     219      POPC     H6X      HAL2     0.900000E-01   1.00800           0
     25535 MEMB     219      POPC     H6Y      HAL2     0.900000E-01   1.00800           0
     25536 MEMB     219      POPC     C37      CTL2    -0.180000       12.0110           0
     25537 MEMB     219      POPC     H7X      HAL2     0.900000E-01   1.00800           0
     25538 MEMB     219      POPC     H7Y      HAL2     0.900000E-01   1.00800           0
     25539 MEMB     219      POPC     C38      CTL2    -0.180000       12.0110           0
     25540 MEMB     219      POPC     H8X      HAL2     0.900000E-01   1.00800           0
     25541 MEMB     219      POPC     H8Y      HAL2     0.900000E-01   1.00800           0
     25542 MEMB     219      POPC     C39      CTL2    -0.180000       12.0110           0
     25543 MEMB     219      POPC     H9X      HAL2     0.900000E-01   1.00800           0
     25544 MEMB     219      POPC     H9Y      HAL2     0.900000E-01   1.00800           0
     25545 MEMB     219      POPC     C310     CTL2    -0.180000       12.0110           0
     25546 MEMB     219      POPC     H10X     HAL2     0.900000E-01   1.00800           0
     25547 MEMB     219      POPC     H10Y     HAL2     0.900000E-01   1.00800           0
     25548 MEMB     219      POPC     C311     CTL2    -0.180000       12.0110           0
     25549 MEMB     219      POPC     H11X     HAL2     0.900000E-01   1.00800           0
     25550 MEMB     219      POPC     H11Y     HAL2     0.900000E-01   1.00800           0
     25551 MEMB     219      POPC     C312     CTL2    -0.180000       12.0110           0
     25552 MEMB     219      POPC     H12X     HAL2     0.900000E-01   1.00800           0
     25553 MEMB     219      POPC     H12Y     HAL2     0.900000E-01   1.00800           0
     25554 MEMB     219      POPC     C313     CTL2    -0.180000       12.0110           0
     25555 MEMB     219      POPC     H13X     HAL2     0.900000E-01   1.00800           0
     25556 MEMB     219      POPC     H13Y     HAL2     0.900000E-01   1.00800           0
     25557 MEMB     219      POPC     C314     CTL2    -0.180000       12.0110           0
     25558 MEMB     219      POPC     H14X     HAL2     0.900000E-01   1.00800           0
     25559 MEMB     219      POPC     H14Y     HAL2     0.900000E-01   1.00800           0
     25560 MEMB     219      POPC     C315     CTL2    -0.180000       12.0110           0
     25561 MEMB     219      POPC     H15X     HAL2     0.900000E-01   1.00800           0
     25562 MEMB     219      POPC     H15Y     HAL2     0.900000E-01   1.00800           0
     25563 MEMB     219      POPC     C316     CTL3    -0.270000       12.0110           0
     25564 MEMB     219      POPC     H16X     HAL3     0.900000E-01   1.00800           0
     25565 MEMB     219      POPC     H16Y     HAL3     0.900000E-01   1.00800           0
     25566 MEMB     219      POPC     H16Z     HAL3     0.900000E-01   1.00800           0
     25567 MEMB     220      POPC     N        NTL     -0.600000       14.0070           0
     25568 MEMB     220      POPC     C12      CTL2    -0.100000       12.0110           0
     25569 MEMB     220      POPC     H12A     HL       0.250000       1.00800           0
     25570 MEMB     220      POPC     H12B     HL       0.250000       1.00800           0
     25571 MEMB     220      POPC     C13      CTL5    -0.350000       12.0110           0
     25572 MEMB     220      POPC     H13A     HL       0.250000       1.00800           0
     25573 MEMB     220      POPC     H13B     HL       0.250000       1.00800           0
     25574 MEMB     220      POPC     H13C     HL       0.250000       1.00800           0
     25575 MEMB     220      POPC     C14      CTL5    -0.350000       12.0110           0
     25576 MEMB     220      POPC     H14A     HL       0.250000       1.00800           0
     25577 MEMB     220      POPC     H14B     HL       0.250000       1.00800           0
     25578 MEMB     220      POPC     H14C     HL       0.250000       1.00800           0
     25579 MEMB     220      POPC     C15      CTL5    -0.350000       12.0110           0
     25580 MEMB     220      POPC     H15A     HL       0.250000       1.00800           0
     25581 MEMB     220      POPC     H15B     HL       0.250000       1.00800           0
     25582 MEMB     220      POPC     H15C     HL       0.250000       1.00800           0
     25583 MEMB     220      POPC     C11      CTL2    -0.800000E-01   12.0110           0
     25584 MEMB     220      POPC     H11A     HAL2     0.900000E-01   1.00800           0
     25585 MEMB     220      POPC     H11B     HAL2     0.900000E-01   1.00800           0
     25586 MEMB     220      POPC     P        PL        1.50000       30.9740           0
     25587 MEMB     220      POPC     O13      O2L     -0.780000       15.9994           0
     25588 MEMB     220      POPC     O14      O2L     -0.780000       15.9994           0
     25589 MEMB     220      POPC     O12      OSLP    -0.570000       15.9994           0
     25590 MEMB     220      POPC     O11      OSLP    -0.570000       15.9994           0
     25591 MEMB     220      POPC     C1       CTL2    -0.800000E-01   12.0110           0
     25592 MEMB     220      POPC     HA       HAL2     0.900000E-01   1.00800           0
     25593 MEMB     220      POPC     HB       HAL2     0.900000E-01   1.00800           0
     25594 MEMB     220      POPC     C2       CTL1     0.170000       12.0110           0
     25595 MEMB     220      POPC     HS       HAL1     0.900000E-01   1.00800           0
     25596 MEMB     220      POPC     O21      OSL     -0.490000       15.9994           0
     25597 MEMB     220      POPC     C21      CL       0.900000       12.0110           0
     25598 MEMB     220      POPC     O22      OBL     -0.630000       15.9994           0
     25599 MEMB     220      POPC     C22      CTL2    -0.220000       12.0110           0
     25600 MEMB     220      POPC     H2R      HAL2     0.900000E-01   1.00800           0
     25601 MEMB     220      POPC     H2S      HAL2     0.900000E-01   1.00800           0
     25602 MEMB     220      POPC     C3       CTL2     0.800000E-01   12.0110           0
     25603 MEMB     220      POPC     HX       HAL2     0.900000E-01   1.00800           0
     25604 MEMB     220      POPC     HY       HAL2     0.900000E-01   1.00800           0
     25605 MEMB     220      POPC     O31      OSL     -0.490000       15.9994           0
     25606 MEMB     220      POPC     C31      CL       0.900000       12.0110           0
     25607 MEMB     220      POPC     O32      OBL     -0.630000       15.9994           0
     25608 MEMB     220      POPC     C32      CTL2    -0.220000       12.0110           0
     25609 MEMB     220      POPC     H2X      HAL2     0.900000E-01   1.00800           0
     25610 MEMB     220      POPC     H2Y      HAL2     0.900000E-01   1.00800           0
     25611 MEMB     220      POPC     C23      CTL2    -0.180000       12.0110           0
     25612 MEMB     220      POPC     H3R      HAL2     0.900000E-01   1.00800           0
     25613 MEMB     220      POPC     H3S      HAL2     0.900000E-01   1.00800           0
     25614 MEMB     220      POPC     C24      CTL2    -0.180000       12.0110           0
     25615 MEMB     220      POPC     H4R      HAL2     0.900000E-01   1.00800           0
     25616 MEMB     220      POPC     H4S      HAL2     0.900000E-01   1.00800           0
     25617 MEMB     220      POPC     C25      CTL2    -0.180000       12.0110           0
     25618 MEMB     220      POPC     H5R      HAL2     0.900000E-01   1.00800           0
     25619 MEMB     220      POPC     H5S      HAL2     0.900000E-01   1.00800           0
     25620 MEMB     220      POPC     C26      CTL2    -0.180000       12.0110           0
     25621 MEMB     220      POPC     H6R      HAL2     0.900000E-01   1.00800           0
     25622 MEMB     220      POPC     H6S      HAL2     0.900000E-01   1.00800           0
     25623 MEMB     220      POPC     C27      CTL2    -0.180000       12.0110           0
     25624 MEMB     220      POPC     H7R      HAL2     0.900000E-01   1.00800           0
     25625 MEMB     220      POPC     H7S      HAL2     0.900000E-01   1.00800           0
     25626 MEMB     220      POPC     C28      CTL2    -0.180000       12.0110           0
     25627 MEMB     220      POPC     H8R      HAL2     0.900000E-01   1.00800           0
     25628 MEMB     220      POPC     H8S      HAL2     0.900000E-01   1.00800           0
     25629 MEMB     220      POPC     C29      CEL1    -0.150000       12.0110           0
     25630 MEMB     220      POPC     H91      HEL1     0.150000       1.00800           0
     25631 MEMB     220      POPC     C210     CEL1    -0.150000       12.0110           0
     25632 MEMB     220      POPC     H101     HEL1     0.150000       1.00800           0
     25633 MEMB     220      POPC     C211     CTL2    -0.180000       12.0110           0
     25634 MEMB     220      POPC     H11R     HAL2     0.900000E-01   1.00800           0
     25635 MEMB     220      POPC     H11S     HAL2     0.900000E-01   1.00800           0
     25636 MEMB     220      POPC     C212     CTL2    -0.180000       12.0110           0
     25637 MEMB     220      POPC     H12R     HAL2     0.900000E-01   1.00800           0
     25638 MEMB     220      POPC     H12S     HAL2     0.900000E-01   1.00800           0
     25639 MEMB     220      POPC     C213     CTL2    -0.180000       12.0110           0
     25640 MEMB     220      POPC     H13R     HAL2     0.900000E-01   1.00800           0
     25641 MEMB     220      POPC     H13S     HAL2     0.900000E-01   1.00800           0
     25642 MEMB     220      POPC     C214     CTL2    -0.180000       12.0110           0
     25643 MEMB     220      POPC     H14R     HAL2     0.900000E-01   1.00800           0
     25644 MEMB     220      POPC     H14S     HAL2     0.900000E-01   1.00800           0
     25645 MEMB     220      POPC     C215     CTL2    -0.180000       12.0110           0
     25646 MEMB     220      POPC     H15R     HAL2     0.900000E-01   1.00800           0
     25647 MEMB     220      POPC     H15S     HAL2     0.900000E-01   1.00800           0
     25648 MEMB     220      POPC     C216     CTL2    -0.180000       12.0110           0
     25649 MEMB     220      POPC     H16R     HAL2     0.900000E-01   1.00800           0
     25650 MEMB     220      POPC     H16S     HAL2     0.900000E-01   1.00800           0
     25651 MEMB     220      POPC     C217     CTL2    -0.180000       12.0110           0
     25652 MEMB     220      POPC     H17R     HAL2     0.900000E-01   1.00800           0
     25653 MEMB     220      POPC     H17S     HAL2     0.900000E-01   1.00800           0
     25654 MEMB     220      POPC     C218     CTL3    -0.270000       12.0110           0
     25655 MEMB     220      POPC     H18R     HAL3     0.900000E-01   1.00800           0
     25656 MEMB     220      POPC     H18S     HAL3     0.900000E-01   1.00800           0
     25657 MEMB     220      POPC     H18T     HAL3     0.900000E-01   1.00800           0
     25658 MEMB     220      POPC     C33      CTL2    -0.180000       12.0110           0
     25659 MEMB     220      POPC     H3X      HAL2     0.900000E-01   1.00800           0
     25660 MEMB     220      POPC     H3Y      HAL2     0.900000E-01   1.00800           0
     25661 MEMB     220      POPC     C34      CTL2    -0.180000       12.0110           0
     25662 MEMB     220      POPC     H4X      HAL2     0.900000E-01   1.00800           0
     25663 MEMB     220      POPC     H4Y      HAL2     0.900000E-01   1.00800           0
     25664 MEMB     220      POPC     C35      CTL2    -0.180000       12.0110           0
     25665 MEMB     220      POPC     H5X      HAL2     0.900000E-01   1.00800           0
     25666 MEMB     220      POPC     H5Y      HAL2     0.900000E-01   1.00800           0
     25667 MEMB     220      POPC     C36      CTL2    -0.180000       12.0110           0
     25668 MEMB     220      POPC     H6X      HAL2     0.900000E-01   1.00800           0
     25669 MEMB     220      POPC     H6Y      HAL2     0.900000E-01   1.00800           0
     25670 MEMB     220      POPC     C37      CTL2    -0.180000       12.0110           0
     25671 MEMB     220      POPC     H7X      HAL2     0.900000E-01   1.00800           0
     25672 MEMB     220      POPC     H7Y      HAL2     0.900000E-01   1.00800           0
     25673 MEMB     220      POPC     C38      CTL2    -0.180000       12.0110           0
     25674 MEMB     220      POPC     H8X      HAL2     0.900000E-01   1.00800           0
     25675 MEMB     220      POPC     H8Y      HAL2     0.900000E-01   1.00800           0
     25676 MEMB     220      POPC     C39      CTL2    -0.180000       12.0110           0
     25677 MEMB     220      POPC     H9X      HAL2     0.900000E-01   1.00800           0
     25678 MEMB     220      POPC     H9Y      HAL2     0.900000E-01   1.00800           0
     25679 MEMB     220      POPC     C310     CTL2    -0.180000       12.0110           0
     25680 MEMB     220      POPC     H10X     HAL2     0.900000E-01   1.00800           0
     25681 MEMB     220      POPC     H10Y     HAL2     0.900000E-01   1.00800           0
     25682 MEMB     220      POPC     C311     CTL2    -0.180000       12.0110           0
     25683 MEMB     220      POPC     H11X     HAL2     0.900000E-01   1.00800           0
     25684 MEMB     220      POPC     H11Y     HAL2     0.900000E-01   1.00800           0
     25685 MEMB     220      POPC     C312     CTL2    -0.180000       12.0110           0
     25686 MEMB     220      POPC     H12X     HAL2     0.900000E-01   1.00800           0
     25687 MEMB     220      POPC     H12Y     HAL2     0.900000E-01   1.00800           0
     25688 MEMB     220      POPC     C313     CTL2    -0.180000       12.0110           0
     25689 MEMB     220      POPC     H13X     HAL2     0.900000E-01   1.00800           0
     25690 MEMB     220      POPC     H13Y     HAL2     0.900000E-01   1.00800           0
     25691 MEMB     220      POPC     C314     CTL2    -0.180000       12.0110           0
     25692 MEMB     220      POPC     H14X     HAL2     0.900000E-01   1.00800           0
     25693 MEMB     220      POPC     H14Y     HAL2     0.900000E-01   1.00800           0
     25694 MEMB     220      POPC     C315     CTL2    -0.180000       12.0110           0
     25695 MEMB     220      POPC     H15X     HAL2     0.900000E-01   1.00800           0
     25696 MEMB     220      POPC     H15Y     HAL2     0.900000E-01   1.00800           0
     25697 MEMB     220      POPC     C316     CTL3    -0.270000       12.0110           0
     25698 MEMB     220      POPC     H16X     HAL3     0.900000E-01   1.00800           0
     25699 MEMB     220      POPC     H16Y     HAL3     0.900000E-01   1.00800           0
     25700 MEMB     220      POPC     H16Z     HAL3     0.900000E-01   1.00800           0
     25701 MEMB     221      POPC     N        NTL     -0.600000       14.0070           0
     25702 MEMB     221      POPC     C12      CTL2    -0.100000       12.0110           0
     25703 MEMB     221      POPC     H12A     HL       0.250000       1.00800           0
     25704 MEMB     221      POPC     H12B     HL       0.250000       1.00800           0
     25705 MEMB     221      POPC     C13      CTL5    -0.350000       12.0110           0
     25706 MEMB     221      POPC     H13A     HL       0.250000       1.00800           0
     25707 MEMB     221      POPC     H13B     HL       0.250000       1.00800           0
     25708 MEMB     221      POPC     H13C     HL       0.250000       1.00800           0
     25709 MEMB     221      POPC     C14      CTL5    -0.350000       12.0110           0
     25710 MEMB     221      POPC     H14A     HL       0.250000       1.00800           0
     25711 MEMB     221      POPC     H14B     HL       0.250000       1.00800           0
     25712 MEMB     221      POPC     H14C     HL       0.250000       1.00800           0
     25713 MEMB     221      POPC     C15      CTL5    -0.350000       12.0110           0
     25714 MEMB     221      POPC     H15A     HL       0.250000       1.00800           0
     25715 MEMB     221      POPC     H15B     HL       0.250000       1.00800           0
     25716 MEMB     221      POPC     H15C     HL       0.250000       1.00800           0
     25717 MEMB     221      POPC     C11      CTL2    -0.800000E-01   12.0110           0
     25718 MEMB     221      POPC     H11A     HAL2     0.900000E-01   1.00800           0
     25719 MEMB     221      POPC     H11B     HAL2     0.900000E-01   1.00800           0
     25720 MEMB     221      POPC     P        PL        1.50000       30.9740           0
     25721 MEMB     221      POPC     O13      O2L     -0.780000       15.9994           0
     25722 MEMB     221      POPC     O14      O2L     -0.780000       15.9994           0
     25723 MEMB     221      POPC     O12      OSLP    -0.570000       15.9994           0
     25724 MEMB     221      POPC     O11      OSLP    -0.570000       15.9994           0
     25725 MEMB     221      POPC     C1       CTL2    -0.800000E-01   12.0110           0
     25726 MEMB     221      POPC     HA       HAL2     0.900000E-01   1.00800           0
     25727 MEMB     221      POPC     HB       HAL2     0.900000E-01   1.00800           0
     25728 MEMB     221      POPC     C2       CTL1     0.170000       12.0110           0
     25729 MEMB     221      POPC     HS       HAL1     0.900000E-01   1.00800           0
     25730 MEMB     221      POPC     O21      OSL     -0.490000       15.9994           0
     25731 MEMB     221      POPC     C21      CL       0.900000       12.0110           0
     25732 MEMB     221      POPC     O22      OBL     -0.630000       15.9994           0
     25733 MEMB     221      POPC     C22      CTL2    -0.220000       12.0110           0
     25734 MEMB     221      POPC     H2R      HAL2     0.900000E-01   1.00800           0
     25735 MEMB     221      POPC     H2S      HAL2     0.900000E-01   1.00800           0
     25736 MEMB     221      POPC     C3       CTL2     0.800000E-01   12.0110           0
     25737 MEMB     221      POPC     HX       HAL2     0.900000E-01   1.00800           0
     25738 MEMB     221      POPC     HY       HAL2     0.900000E-01   1.00800           0
     25739 MEMB     221      POPC     O31      OSL     -0.490000       15.9994           0
     25740 MEMB     221      POPC     C31      CL       0.900000       12.0110           0
     25741 MEMB     221      POPC     O32      OBL     -0.630000       15.9994           0
     25742 MEMB     221      POPC     C32      CTL2    -0.220000       12.0110           0
     25743 MEMB     221      POPC     H2X      HAL2     0.900000E-01   1.00800           0
     25744 MEMB     221      POPC     H2Y      HAL2     0.900000E-01   1.00800           0
     25745 MEMB     221      POPC     C23      CTL2    -0.180000       12.0110           0
     25746 MEMB     221      POPC     H3R      HAL2     0.900000E-01   1.00800           0
     25747 MEMB     221      POPC     H3S      HAL2     0.900000E-01   1.00800           0
     25748 MEMB     221      POPC     C24      CTL2    -0.180000       12.0110           0
     25749 MEMB     221      POPC     H4R      HAL2     0.900000E-01   1.00800           0
     25750 MEMB     221      POPC     H4S      HAL2     0.900000E-01   1.00800           0
     25751 MEMB     221      POPC     C25      CTL2    -0.180000       12.0110           0
     25752 MEMB     221      POPC     H5R      HAL2     0.900000E-01   1.00800           0
     25753 MEMB     221      POPC     H5S      HAL2     0.900000E-01   1.00800           0
     25754 MEMB     221      POPC     C26      CTL2    -0.180000       12.0110           0
     25755 MEMB     221      POPC     H6R      HAL2     0.900000E-01   1.00800           0
     25756 MEMB     221      POPC     H6S      HAL2     0.900000E-01   1.00800           0
     25757 MEMB     221      POPC     C27      CTL2    -0.180000       12.0110           0
     25758 MEMB     221      POPC     H7R      HAL2     0.900000E-01   1.00800           0
     25759 MEMB     221      POPC     H7S      HAL2     0.900000E-01   1.00800           0
     25760 MEMB     221      POPC     C28      CTL2    -0.180000       12.0110           0
     25761 MEMB     221      POPC     H8R      HAL2     0.900000E-01   1.00800           0
     25762 MEMB     221      POPC     H8S      HAL2     0.900000E-01   1.00800           0
     25763 MEMB     221      POPC     C29      CEL1    -0.150000       12.0110           0
     25764 MEMB     221      POPC     H91      HEL1     0.150000       1.00800           0
     25765 MEMB     221      POPC     C210     CEL1    -0.150000       12.0110           0
     25766 MEMB     221      POPC     H101     HEL1     0.150000       1.00800           0
     25767 MEMB     221      POPC     C211     CTL2    -0.180000       12.0110           0
     25768 MEMB     221      POPC     H11R     HAL2     0.900000E-01   1.00800           0
     25769 MEMB     221      POPC     H11S     HAL2     0.900000E-01   1.00800           0
     25770 MEMB     221      POPC     C212     CTL2    -0.180000       12.0110           0
     25771 MEMB     221      POPC     H12R     HAL2     0.900000E-01   1.00800           0
     25772 MEMB     221      POPC     H12S     HAL2     0.900000E-01   1.00800           0
     25773 MEMB     221      POPC     C213     CTL2    -0.180000       12.0110           0
     25774 MEMB     221      POPC     H13R     HAL2     0.900000E-01   1.00800           0
     25775 MEMB     221      POPC     H13S     HAL2     0.900000E-01   1.00800           0
     25776 MEMB     221      POPC     C214     CTL2    -0.180000       12.0110           0
     25777 MEMB     221      POPC     H14R     HAL2     0.900000E-01   1.00800           0
     25778 MEMB     221      POPC     H14S     HAL2     0.900000E-01   1.00800           0
     25779 MEMB     221      POPC     C215     CTL2    -0.180000       12.0110           0
     25780 MEMB     221      POPC     H15R     HAL2     0.900000E-01   1.00800           0
     25781 MEMB     221      POPC     H15S     HAL2     0.900000E-01   1.00800           0
     25782 MEMB     221      POPC     C216     CTL2    -0.180000       12.0110           0
     25783 MEMB     221      POPC     H16R     HAL2     0.900000E-01   1.00800           0
     25784 MEMB     221      POPC     H16S     HAL2     0.900000E-01   1.00800           0
     25785 MEMB     221      POPC     C217     CTL2    -0.180000       12.0110           0
     25786 MEMB     221      POPC     H17R     HAL2     0.900000E-01   1.00800           0
     25787 MEMB     221      POPC     H17S     HAL2     0.900000E-01   1.00800           0
     25788 MEMB     221      POPC     C218     CTL3    -0.270000       12.0110           0
     25789 MEMB     221      POPC     H18R     HAL3     0.900000E-01   1.00800           0
     25790 MEMB     221      POPC     H18S     HAL3     0.900000E-01   1.00800           0
     25791 MEMB     221      POPC     H18T     HAL3     0.900000E-01   1.00800           0
     25792 MEMB     221      POPC     C33      CTL2    -0.180000       12.0110           0
     25793 MEMB     221      POPC     H3X      HAL2     0.900000E-01   1.00800           0
     25794 MEMB     221      POPC     H3Y      HAL2     0.900000E-01   1.00800           0
     25795 MEMB     221      POPC     C34      CTL2    -0.180000       12.0110           0
     25796 MEMB     221      POPC     H4X      HAL2     0.900000E-01   1.00800           0
     25797 MEMB     221      POPC     H4Y      HAL2     0.900000E-01   1.00800           0
     25798 MEMB     221      POPC     C35      CTL2    -0.180000       12.0110           0
     25799 MEMB     221      POPC     H5X      HAL2     0.900000E-01   1.00800           0
     25800 MEMB     221      POPC     H5Y      HAL2     0.900000E-01   1.00800           0
     25801 MEMB     221      POPC     C36      CTL2    -0.180000       12.0110           0
     25802 MEMB     221      POPC     H6X      HAL2     0.900000E-01   1.00800           0
     25803 MEMB     221      POPC     H6Y      HAL2     0.900000E-01   1.00800           0
     25804 MEMB     221      POPC     C37      CTL2    -0.180000       12.0110           0
     25805 MEMB     221      POPC     H7X      HAL2     0.900000E-01   1.00800           0
     25806 MEMB     221      POPC     H7Y      HAL2     0.900000E-01   1.00800           0
     25807 MEMB     221      POPC     C38      CTL2    -0.180000       12.0110           0
     25808 MEMB     221      POPC     H8X      HAL2     0.900000E-01   1.00800           0
     25809 MEMB     221      POPC     H8Y      HAL2     0.900000E-01   1.00800           0
     25810 MEMB     221      POPC     C39      CTL2    -0.180000       12.0110           0
     25811 MEMB     221      POPC     H9X      HAL2     0.900000E-01   1.00800           0
     25812 MEMB     221      POPC     H9Y      HAL2     0.900000E-01   1.00800           0
     25813 MEMB     221      POPC     C310     CTL2    -0.180000       12.0110           0
     25814 MEMB     221      POPC     H10X     HAL2     0.900000E-01   1.00800           0
     25815 MEMB     221      POPC     H10Y     HAL2     0.900000E-01   1.00800           0
     25816 MEMB     221      POPC     C311     CTL2    -0.180000       12.0110           0
     25817 MEMB     221      POPC     H11X     HAL2     0.900000E-01   1.00800           0
     25818 MEMB     221      POPC     H11Y     HAL2     0.900000E-01   1.00800           0
     25819 MEMB     221      POPC     C312     CTL2    -0.180000       12.0110           0
     25820 MEMB     221      POPC     H12X     HAL2     0.900000E-01   1.00800           0
     25821 MEMB     221      POPC     H12Y     HAL2     0.900000E-01   1.00800           0
     25822 MEMB     221      POPC     C313     CTL2    -0.180000       12.0110           0
     25823 MEMB     221      POPC     H13X     HAL2     0.900000E-01   1.00800           0
     25824 MEMB     221      POPC     H13Y     HAL2     0.900000E-01   1.00800           0
     25825 MEMB     221      POPC     C314     CTL2    -0.180000       12.0110           0
     25826 MEMB     221      POPC     H14X     HAL2     0.900000E-01   1.00800           0
     25827 MEMB     221      POPC     H14Y     HAL2     0.900000E-01   1.00800           0
     25828 MEMB     221      POPC     C315     CTL2    -0.180000       12.0110           0
     25829 MEMB     221      POPC     H15X     HAL2     0.900000E-01   1.00800           0
     25830 MEMB     221      POPC     H15Y     HAL2     0.900000E-01   1.00800           0
     25831 MEMB     221      POPC     C316     CTL3    -0.270000       12.0110           0
     25832 MEMB     221      POPC     H16X     HAL3     0.900000E-01   1.00800           0
     25833 MEMB     221      POPC     H16Y     HAL3     0.900000E-01   1.00800           0
     25834 MEMB     221      POPC     H16Z     HAL3     0.900000E-01   1.00800           0
     25835 MEMB     222      POPC     N        NTL     -0.600000       14.0070           0
     25836 MEMB     222      POPC     C12      CTL2    -0.100000       12.0110           0
     25837 MEMB     222      POPC     H12A     HL       0.250000       1.00800           0
     25838 MEMB     222      POPC     H12B     HL       0.250000       1.00800           0
     25839 MEMB     222      POPC     C13      CTL5    -0.350000       12.0110           0
     25840 MEMB     222      POPC     H13A     HL       0.250000       1.00800           0
     25841 MEMB     222      POPC     H13B     HL       0.250000       1.00800           0
     25842 MEMB     222      POPC     H13C     HL       0.250000       1.00800           0
     25843 MEMB     222      POPC     C14      CTL5    -0.350000       12.0110           0
     25844 MEMB     222      POPC     H14A     HL       0.250000       1.00800           0
     25845 MEMB     222      POPC     H14B     HL       0.250000       1.00800           0
     25846 MEMB     222      POPC     H14C     HL       0.250000       1.00800           0
     25847 MEMB     222      POPC     C15      CTL5    -0.350000       12.0110           0
     25848 MEMB     222      POPC     H15A     HL       0.250000       1.00800           0
     25849 MEMB     222      POPC     H15B     HL       0.250000       1.00800           0
     25850 MEMB     222      POPC     H15C     HL       0.250000       1.00800           0
     25851 MEMB     222      POPC     C11      CTL2    -0.800000E-01   12.0110           0
     25852 MEMB     222      POPC     H11A     HAL2     0.900000E-01   1.00800           0
     25853 MEMB     222      POPC     H11B     HAL2     0.900000E-01   1.00800           0
     25854 MEMB     222      POPC     P        PL        1.50000       30.9740           0
     25855 MEMB     222      POPC     O13      O2L     -0.780000       15.9994           0
     25856 MEMB     222      POPC     O14      O2L     -0.780000       15.9994           0
     25857 MEMB     222      POPC     O12      OSLP    -0.570000       15.9994           0
     25858 MEMB     222      POPC     O11      OSLP    -0.570000       15.9994           0
     25859 MEMB     222      POPC     C1       CTL2    -0.800000E-01   12.0110           0
     25860 MEMB     222      POPC     HA       HAL2     0.900000E-01   1.00800           0
     25861 MEMB     222      POPC     HB       HAL2     0.900000E-01   1.00800           0
     25862 MEMB     222      POPC     C2       CTL1     0.170000       12.0110           0
     25863 MEMB     222      POPC     HS       HAL1     0.900000E-01   1.00800           0
     25864 MEMB     222      POPC     O21      OSL     -0.490000       15.9994           0
     25865 MEMB     222      POPC     C21      CL       0.900000       12.0110           0
     25866 MEMB     222      POPC     O22      OBL     -0.630000       15.9994           0
     25867 MEMB     222      POPC     C22      CTL2    -0.220000       12.0110           0
     25868 MEMB     222      POPC     H2R      HAL2     0.900000E-01   1.00800           0
     25869 MEMB     222      POPC     H2S      HAL2     0.900000E-01   1.00800           0
     25870 MEMB     222      POPC     C3       CTL2     0.800000E-01   12.0110           0
     25871 MEMB     222      POPC     HX       HAL2     0.900000E-01   1.00800           0
     25872 MEMB     222      POPC     HY       HAL2     0.900000E-01   1.00800           0
     25873 MEMB     222      POPC     O31      OSL     -0.490000       15.9994           0
     25874 MEMB     222      POPC     C31      CL       0.900000       12.0110           0
     25875 MEMB     222      POPC     O32      OBL     -0.630000       15.9994           0
     25876 MEMB     222      POPC     C32      CTL2    -0.220000       12.0110           0
     25877 MEMB     222      POPC     H2X      HAL2     0.900000E-01   1.00800           0
     25878 MEMB     222      POPC     H2Y      HAL2     0.900000E-01   1.00800           0
     25879 MEMB     222      POPC     C23      CTL2    -0.180000       12.0110           0
     25880 MEMB     222      POPC     H3R      HAL2     0.900000E-01   1.00800           0
     25881 MEMB     222      POPC     H3S      HAL2     0.900000E-01   1.00800           0
     25882 MEMB     222      POPC     C24      CTL2    -0.180000       12.0110           0
     25883 MEMB     222      POPC     H4R      HAL2     0.900000E-01   1.00800           0
     25884 MEMB     222      POPC     H4S      HAL2     0.900000E-01   1.00800           0
     25885 MEMB     222      POPC     C25      CTL2    -0.180000       12.0110           0
     25886 MEMB     222      POPC     H5R      HAL2     0.900000E-01   1.00800           0
     25887 MEMB     222      POPC     H5S      HAL2     0.900000E-01   1.00800           0
     25888 MEMB     222      POPC     C26      CTL2    -0.180000       12.0110           0
     25889 MEMB     222      POPC     H6R      HAL2     0.900000E-01   1.00800           0
     25890 MEMB     222      POPC     H6S      HAL2     0.900000E-01   1.00800           0
     25891 MEMB     222      POPC     C27      CTL2    -0.180000       12.0110           0
     25892 MEMB     222      POPC     H7R      HAL2     0.900000E-01   1.00800           0
     25893 MEMB     222      POPC     H7S      HAL2     0.900000E-01   1.00800           0
     25894 MEMB     222      POPC     C28      CTL2    -0.180000       12.0110           0
     25895 MEMB     222      POPC     H8R      HAL2     0.900000E-01   1.00800           0
     25896 MEMB     222      POPC     H8S      HAL2     0.900000E-01   1.00800           0
     25897 MEMB     222      POPC     C29      CEL1    -0.150000       12.0110           0
     25898 MEMB     222      POPC     H91      HEL1     0.150000       1.00800           0
     25899 MEMB     222      POPC     C210     CEL1    -0.150000       12.0110           0
     25900 MEMB     222      POPC     H101     HEL1     0.150000       1.00800           0
     25901 MEMB     222      POPC     C211     CTL2    -0.180000       12.0110           0
     25902 MEMB     222      POPC     H11R     HAL2     0.900000E-01   1.00800           0
     25903 MEMB     222      POPC     H11S     HAL2     0.900000E-01   1.00800           0
     25904 MEMB     222      POPC     C212     CTL2    -0.180000       12.0110           0
     25905 MEMB     222      POPC     H12R     HAL2     0.900000E-01   1.00800           0
     25906 MEMB     222      POPC     H12S     HAL2     0.900000E-01   1.00800           0
     25907 MEMB     222      POPC     C213     CTL2    -0.180000       12.0110           0
     25908 MEMB     222      POPC     H13R     HAL2     0.900000E-01   1.00800           0
     25909 MEMB     222      POPC     H13S     HAL2     0.900000E-01   1.00800           0
     25910 MEMB     222      POPC     C214     CTL2    -0.180000       12.0110           0
     25911 MEMB     222      POPC     H14R     HAL2     0.900000E-01   1.00800           0
     25912 MEMB     222      POPC     H14S     HAL2     0.900000E-01   1.00800           0
     25913 MEMB     222      POPC     C215     CTL2    -0.180000       12.0110           0
     25914 MEMB     222      POPC     H15R     HAL2     0.900000E-01   1.00800           0
     25915 MEMB     222      POPC     H15S     HAL2     0.900000E-01   1.00800           0
     25916 MEMB     222      POPC     C216     CTL2    -0.180000       12.0110           0
     25917 MEMB     222      POPC     H16R     HAL2     0.900000E-01   1.00800           0
     25918 MEMB     222      POPC     H16S     HAL2     0.900000E-01   1.00800           0
     25919 MEMB     222      POPC     C217     CTL2    -0.180000       12.0110           0
     25920 MEMB     222      POPC     H17R     HAL2     0.900000E-01   1.00800           0
     25921 MEMB     222      POPC     H17S     HAL2     0.900000E-01   1.00800           0
     25922 MEMB     222      POPC     C218     CTL3    -0.270000       12.0110           0
     25923 MEMB     222      POPC     H18R     HAL3     0.900000E-01   1.00800           0
     25924 MEMB     222      POPC     H18S     HAL3     0.900000E-01   1.00800           0
     25925 MEMB     222      POPC     H18T     HAL3     0.900000E-01   1.00800           0
     25926 MEMB     222      POPC     C33      CTL2    -0.180000       12.0110           0
     25927 MEMB     222      POPC     H3X      HAL2     0.900000E-01   1.00800           0
     25928 MEMB     222      POPC     H3Y      HAL2     0.900000E-01   1.00800           0
     25929 MEMB     222      POPC     C34      CTL2    -0.180000       12.0110           0
     25930 MEMB     222      POPC     H4X      HAL2     0.900000E-01   1.00800           0
     25931 MEMB     222      POPC     H4Y      HAL2     0.900000E-01   1.00800           0
     25932 MEMB     222      POPC     C35      CTL2    -0.180000       12.0110           0
     25933 MEMB     222      POPC     H5X      HAL2     0.900000E-01   1.00800           0
     25934 MEMB     222      POPC     H5Y      HAL2     0.900000E-01   1.00800           0
     25935 MEMB     222      POPC     C36      CTL2    -0.180000       12.0110           0
     25936 MEMB     222      POPC     H6X      HAL2     0.900000E-01   1.00800           0
     25937 MEMB     222      POPC     H6Y      HAL2     0.900000E-01   1.00800           0
     25938 MEMB     222      POPC     C37      CTL2    -0.180000       12.0110           0
     25939 MEMB     222      POPC     H7X      HAL2     0.900000E-01   1.00800           0
     25940 MEMB     222      POPC     H7Y      HAL2     0.900000E-01   1.00800           0
     25941 MEMB     222      POPC     C38      CTL2    -0.180000       12.0110           0
     25942 MEMB     222      POPC     H8X      HAL2     0.900000E-01   1.00800           0
     25943 MEMB     222      POPC     H8Y      HAL2     0.900000E-01   1.00800           0
     25944 MEMB     222      POPC     C39      CTL2    -0.180000       12.0110           0
     25945 MEMB     222      POPC     H9X      HAL2     0.900000E-01   1.00800           0
     25946 MEMB     222      POPC     H9Y      HAL2     0.900000E-01   1.00800           0
     25947 MEMB     222      POPC     C310     CTL2    -0.180000       12.0110           0
     25948 MEMB     222      POPC     H10X     HAL2     0.900000E-01   1.00800           0
     25949 MEMB     222      POPC     H10Y     HAL2     0.900000E-01   1.00800           0
     25950 MEMB     222      POPC     C311     CTL2    -0.180000       12.0110           0
     25951 MEMB     222      POPC     H11X     HAL2     0.900000E-01   1.00800           0
     25952 MEMB     222      POPC     H11Y     HAL2     0.900000E-01   1.00800           0
     25953 MEMB     222      POPC     C312     CTL2    -0.180000       12.0110           0
     25954 MEMB     222      POPC     H12X     HAL2     0.900000E-01   1.00800           0
     25955 MEMB     222      POPC     H12Y     HAL2     0.900000E-01   1.00800           0
     25956 MEMB     222      POPC     C313     CTL2    -0.180000       12.0110           0
     25957 MEMB     222      POPC     H13X     HAL2     0.900000E-01   1.00800           0
     25958 MEMB     222      POPC     H13Y     HAL2     0.900000E-01   1.00800           0
     25959 MEMB     222      POPC     C314     CTL2    -0.180000       12.0110           0
     25960 MEMB     222      POPC     H14X     HAL2     0.900000E-01   1.00800           0
     25961 MEMB     222      POPC     H14Y     HAL2     0.900000E-01   1.00800           0
     25962 MEMB     222      POPC     C315     CTL2    -0.180000       12.0110           0
     25963 MEMB     222      POPC     H15X     HAL2     0.900000E-01   1.00800           0
     25964 MEMB     222      POPC     H15Y     HAL2     0.900000E-01   1.00800           0
     25965 MEMB     222      POPC     C316     CTL3    -0.270000       12.0110           0
     25966 MEMB     222      POPC     H16X     HAL3     0.900000E-01   1.00800           0
     25967 MEMB     222      POPC     H16Y     HAL3     0.900000E-01   1.00800           0
     25968 MEMB     222      POPC     H16Z     HAL3     0.900000E-01   1.00800           0
     25969 MEMB     223      POPC     N        NTL     -0.600000       14.0070           0
     25970 MEMB     223      POPC     C12      CTL2    -0.100000       12.0110           0
     25971 MEMB     223      POPC     H12A     HL       0.250000       1.00800           0
     25972 MEMB     223      POPC     H12B     HL       0.250000       1.00800           0
     25973 MEMB     223      POPC     C13      CTL5    -0.350000       12.0110           0
     25974 MEMB     223      POPC     H13A     HL       0.250000       1.00800           0
     25975 MEMB     223      POPC     H13B     HL       0.250000       1.00800           0
     25976 MEMB     223      POPC     H13C     HL       0.250000       1.00800           0
     25977 MEMB     223      POPC     C14      CTL5    -0.350000       12.0110           0
     25978 MEMB     223      POPC     H14A     HL       0.250000       1.00800           0
     25979 MEMB     223      POPC     H14B     HL       0.250000       1.00800           0
     25980 MEMB     223      POPC     H14C     HL       0.250000       1.00800           0
     25981 MEMB     223      POPC     C15      CTL5    -0.350000       12.0110           0
     25982 MEMB     223      POPC     H15A     HL       0.250000       1.00800           0
     25983 MEMB     223      POPC     H15B     HL       0.250000       1.00800           0
     25984 MEMB     223      POPC     H15C     HL       0.250000       1.00800           0
     25985 MEMB     223      POPC     C11      CTL2    -0.800000E-01   12.0110           0
     25986 MEMB     223      POPC     H11A     HAL2     0.900000E-01   1.00800           0
     25987 MEMB     223      POPC     H11B     HAL2     0.900000E-01   1.00800           0
     25988 MEMB     223      POPC     P        PL        1.50000       30.9740           0
     25989 MEMB     223      POPC     O13      O2L     -0.780000       15.9994           0
     25990 MEMB     223      POPC     O14      O2L     -0.780000       15.9994           0
     25991 MEMB     223      POPC     O12      OSLP    -0.570000       15.9994           0
     25992 MEMB     223      POPC     O11      OSLP    -0.570000       15.9994           0
     25993 MEMB     223      POPC     C1       CTL2    -0.800000E-01   12.0110           0
     25994 MEMB     223      POPC     HA       HAL2     0.900000E-01   1.00800           0
     25995 MEMB     223      POPC     HB       HAL2     0.900000E-01   1.00800           0
     25996 MEMB     223      POPC     C2       CTL1     0.170000       12.0110           0
     25997 MEMB     223      POPC     HS       HAL1     0.900000E-01   1.00800           0
     25998 MEMB     223      POPC     O21      OSL     -0.490000       15.9994           0
     25999 MEMB     223      POPC     C21      CL       0.900000       12.0110           0
     26000 MEMB     223      POPC     O22      OBL     -0.630000       15.9994           0
     26001 MEMB     223      POPC     C22      CTL2    -0.220000       12.0110           0
     26002 MEMB     223      POPC     H2R      HAL2     0.900000E-01   1.00800           0
     26003 MEMB     223      POPC     H2S      HAL2     0.900000E-01   1.00800           0
     26004 MEMB     223      POPC     C3       CTL2     0.800000E-01   12.0110           0
     26005 MEMB     223      POPC     HX       HAL2     0.900000E-01   1.00800           0
     26006 MEMB     223      POPC     HY       HAL2     0.900000E-01   1.00800           0
     26007 MEMB     223      POPC     O31      OSL     -0.490000       15.9994           0
     26008 MEMB     223      POPC     C31      CL       0.900000       12.0110           0
     26009 MEMB     223      POPC     O32      OBL     -0.630000       15.9994           0
     26010 MEMB     223      POPC     C32      CTL2    -0.220000       12.0110           0
     26011 MEMB     223      POPC     H2X      HAL2     0.900000E-01   1.00800           0
     26012 MEMB     223      POPC     H2Y      HAL2     0.900000E-01   1.00800           0
     26013 MEMB     223      POPC     C23      CTL2    -0.180000       12.0110           0
     26014 MEMB     223      POPC     H3R      HAL2     0.900000E-01   1.00800           0
     26015 MEMB     223      POPC     H3S      HAL2     0.900000E-01   1.00800           0
     26016 MEMB     223      POPC     C24      CTL2    -0.180000       12.0110           0
     26017 MEMB     223      POPC     H4R      HAL2     0.900000E-01   1.00800           0
     26018 MEMB     223      POPC     H4S      HAL2     0.900000E-01   1.00800           0
     26019 MEMB     223      POPC     C25      CTL2    -0.180000       12.0110           0
     26020 MEMB     223      POPC     H5R      HAL2     0.900000E-01   1.00800           0
     26021 MEMB     223      POPC     H5S      HAL2     0.900000E-01   1.00800           0
     26022 MEMB     223      POPC     C26      CTL2    -0.180000       12.0110           0
     26023 MEMB     223      POPC     H6R      HAL2     0.900000E-01   1.00800           0
     26024 MEMB     223      POPC     H6S      HAL2     0.900000E-01   1.00800           0
     26025 MEMB     223      POPC     C27      CTL2    -0.180000       12.0110           0
     26026 MEMB     223      POPC     H7R      HAL2     0.900000E-01   1.00800           0
     26027 MEMB     223      POPC     H7S      HAL2     0.900000E-01   1.00800           0
     26028 MEMB     223      POPC     C28      CTL2    -0.180000       12.0110           0
     26029 MEMB     223      POPC     H8R      HAL2     0.900000E-01   1.00800           0
     26030 MEMB     223      POPC     H8S      HAL2     0.900000E-01   1.00800           0
     26031 MEMB     223      POPC     C29      CEL1    -0.150000       12.0110           0
     26032 MEMB     223      POPC     H91      HEL1     0.150000       1.00800           0
     26033 MEMB     223      POPC     C210     CEL1    -0.150000       12.0110           0
     26034 MEMB     223      POPC     H101     HEL1     0.150000       1.00800           0
     26035 MEMB     223      POPC     C211     CTL2    -0.180000       12.0110           0
     26036 MEMB     223      POPC     H11R     HAL2     0.900000E-01   1.00800           0
     26037 MEMB     223      POPC     H11S     HAL2     0.900000E-01   1.00800           0
     26038 MEMB     223      POPC     C212     CTL2    -0.180000       12.0110           0
     26039 MEMB     223      POPC     H12R     HAL2     0.900000E-01   1.00800           0
     26040 MEMB     223      POPC     H12S     HAL2     0.900000E-01   1.00800           0
     26041 MEMB     223      POPC     C213     CTL2    -0.180000       12.0110           0
     26042 MEMB     223      POPC     H13R     HAL2     0.900000E-01   1.00800           0
     26043 MEMB     223      POPC     H13S     HAL2     0.900000E-01   1.00800           0
     26044 MEMB     223      POPC     C214     CTL2    -0.180000       12.0110           0
     26045 MEMB     223      POPC     H14R     HAL2     0.900000E-01   1.00800           0
     26046 MEMB     223      POPC     H14S     HAL2     0.900000E-01   1.00800           0
     26047 MEMB     223      POPC     C215     CTL2    -0.180000       12.0110           0
     26048 MEMB     223      POPC     H15R     HAL2     0.900000E-01   1.00800           0
     26049 MEMB     223      POPC     H15S     HAL2     0.900000E-01   1.00800           0
     26050 MEMB     223      POPC     C216     CTL2    -0.180000       12.0110           0
     26051 MEMB     223      POPC     H16R     HAL2     0.900000E-01   1.00800           0
     26052 MEMB     223      POPC     H16S     HAL2     0.900000E-01   1.00800           0
     26053 MEMB     223      POPC     C217     CTL2    -0.180000       12.0110           0
     26054 MEMB     223      POPC     H17R     HAL2     0.900000E-01   1.00800           0
     26055 MEMB     223      POPC     H17S     HAL2     0.900000E-01   1.00800           0
     26056 MEMB     223      POPC     C218     CTL3    -0.270000       12.0110           0
     26057 MEMB     223      POPC     H18R     HAL3     0.900000E-01   1.00800           0
     26058 MEMB     223      POPC     H18S     HAL3     0.900000E-01   1.00800           0
     26059 MEMB     223      POPC     H18T     HAL3     0.900000E-01   1.00800           0
     26060 MEMB     223      POPC     C33      CTL2    -0.180000       12.0110           0
     26061 MEMB     223      POPC     H3X      HAL2     0.900000E-01   1.00800           0
     26062 MEMB     223      POPC     H3Y      HAL2     0.900000E-01   1.00800           0
     26063 MEMB     223      POPC     C34      CTL2    -0.180000       12.0110           0
     26064 MEMB     223      POPC     H4X      HAL2     0.900000E-01   1.00800           0
     26065 MEMB     223      POPC     H4Y      HAL2     0.900000E-01   1.00800           0
     26066 MEMB     223      POPC     C35      CTL2    -0.180000       12.0110           0
     26067 MEMB     223      POPC     H5X      HAL2     0.900000E-01   1.00800           0
     26068 MEMB     223      POPC     H5Y      HAL2     0.900000E-01   1.00800           0
     26069 MEMB     223      POPC     C36      CTL2    -0.180000       12.0110           0
     26070 MEMB     223      POPC     H6X      HAL2     0.900000E-01   1.00800           0
     26071 MEMB     223      POPC     H6Y      HAL2     0.900000E-01   1.00800           0
     26072 MEMB     223      POPC     C37      CTL2    -0.180000       12.0110           0
     26073 MEMB     223      POPC     H7X      HAL2     0.900000E-01   1.00800           0
     26074 MEMB     223      POPC     H7Y      HAL2     0.900000E-01   1.00800           0
     26075 MEMB     223      POPC     C38      CTL2    -0.180000       12.0110           0
     26076 MEMB     223      POPC     H8X      HAL2     0.900000E-01   1.00800           0
     26077 MEMB     223      POPC     H8Y      HAL2     0.900000E-01   1.00800           0
     26078 MEMB     223      POPC     C39      CTL2    -0.180000       12.0110           0
     26079 MEMB     223      POPC     H9X      HAL2     0.900000E-01   1.00800           0
     26080 MEMB     223      POPC     H9Y      HAL2     0.900000E-01   1.00800           0
     26081 MEMB     223      POPC     C310     CTL2    -0.180000       12.0110           0
     26082 MEMB     223      POPC     H10X     HAL2     0.900000E-01   1.00800           0
     26083 MEMB     223      POPC     H10Y     HAL2     0.900000E-01   1.00800           0
     26084 MEMB     223      POPC     C311     CTL2    -0.180000       12.0110           0
     26085 MEMB     223      POPC     H11X     HAL2     0.900000E-01   1.00800           0
     26086 MEMB     223      POPC     H11Y     HAL2     0.900000E-01   1.00800           0
     26087 MEMB     223      POPC     C312     CTL2    -0.180000       12.0110           0
     26088 MEMB     223      POPC     H12X     HAL2     0.900000E-01   1.00800           0
     26089 MEMB     223      POPC     H12Y     HAL2     0.900000E-01   1.00800           0
     26090 MEMB     223      POPC     C313     CTL2    -0.180000       12.0110           0
     26091 MEMB     223      POPC     H13X     HAL2     0.900000E-01   1.00800           0
     26092 MEMB     223      POPC     H13Y     HAL2     0.900000E-01   1.00800           0
     26093 MEMB     223      POPC     C314     CTL2    -0.180000       12.0110           0
     26094 MEMB     223      POPC     H14X     HAL2     0.900000E-01   1.00800           0
     26095 MEMB     223      POPC     H14Y     HAL2     0.900000E-01   1.00800           0
     26096 MEMB     223      POPC     C315     CTL2    -0.180000       12.0110           0
     26097 MEMB     223      POPC     H15X     HAL2     0.900000E-01   1.00800           0
     26098 MEMB     223      POPC     H15Y     HAL2     0.900000E-01   1.00800           0
     26099 MEMB     223      POPC     C316     CTL3    -0.270000       12.0110           0
     26100 MEMB     223      POPC     H16X     HAL3     0.900000E-01   1.00800           0
     26101 MEMB     223      POPC     H16Y     HAL3     0.900000E-01   1.00800           0
     26102 MEMB     223      POPC     H16Z     HAL3     0.900000E-01   1.00800           0
     26103 MEMB     224      POPC     N        NTL     -0.600000       14.0070           0
     26104 MEMB     224      POPC     C12      CTL2    -0.100000       12.0110           0
     26105 MEMB     224      POPC     H12A     HL       0.250000       1.00800           0
     26106 MEMB     224      POPC     H12B     HL       0.250000       1.00800           0
     26107 MEMB     224      POPC     C13      CTL5    -0.350000       12.0110           0
     26108 MEMB     224      POPC     H13A     HL       0.250000       1.00800           0
     26109 MEMB     224      POPC     H13B     HL       0.250000       1.00800           0
     26110 MEMB     224      POPC     H13C     HL       0.250000       1.00800           0
     26111 MEMB     224      POPC     C14      CTL5    -0.350000       12.0110           0
     26112 MEMB     224      POPC     H14A     HL       0.250000       1.00800           0
     26113 MEMB     224      POPC     H14B     HL       0.250000       1.00800           0
     26114 MEMB     224      POPC     H14C     HL       0.250000       1.00800           0
     26115 MEMB     224      POPC     C15      CTL5    -0.350000       12.0110           0
     26116 MEMB     224      POPC     H15A     HL       0.250000       1.00800           0
     26117 MEMB     224      POPC     H15B     HL       0.250000       1.00800           0
     26118 MEMB     224      POPC     H15C     HL       0.250000       1.00800           0
     26119 MEMB     224      POPC     C11      CTL2    -0.800000E-01   12.0110           0
     26120 MEMB     224      POPC     H11A     HAL2     0.900000E-01   1.00800           0
     26121 MEMB     224      POPC     H11B     HAL2     0.900000E-01   1.00800           0
     26122 MEMB     224      POPC     P        PL        1.50000       30.9740           0
     26123 MEMB     224      POPC     O13      O2L     -0.780000       15.9994           0
     26124 MEMB     224      POPC     O14      O2L     -0.780000       15.9994           0
     26125 MEMB     224      POPC     O12      OSLP    -0.570000       15.9994           0
     26126 MEMB     224      POPC     O11      OSLP    -0.570000       15.9994           0
     26127 MEMB     224      POPC     C1       CTL2    -0.800000E-01   12.0110           0
     26128 MEMB     224      POPC     HA       HAL2     0.900000E-01   1.00800           0
     26129 MEMB     224      POPC     HB       HAL2     0.900000E-01   1.00800           0
     26130 MEMB     224      POPC     C2       CTL1     0.170000       12.0110           0
     26131 MEMB     224      POPC     HS       HAL1     0.900000E-01   1.00800           0
     26132 MEMB     224      POPC     O21      OSL     -0.490000       15.9994           0
     26133 MEMB     224      POPC     C21      CL       0.900000       12.0110           0
     26134 MEMB     224      POPC     O22      OBL     -0.630000       15.9994           0
     26135 MEMB     224      POPC     C22      CTL2    -0.220000       12.0110           0
     26136 MEMB     224      POPC     H2R      HAL2     0.900000E-01   1.00800           0
     26137 MEMB     224      POPC     H2S      HAL2     0.900000E-01   1.00800           0
     26138 MEMB     224      POPC     C3       CTL2     0.800000E-01   12.0110           0
     26139 MEMB     224      POPC     HX       HAL2     0.900000E-01   1.00800           0
     26140 MEMB     224      POPC     HY       HAL2     0.900000E-01   1.00800           0
     26141 MEMB     224      POPC     O31      OSL     -0.490000       15.9994           0
     26142 MEMB     224      POPC     C31      CL       0.900000       12.0110           0
     26143 MEMB     224      POPC     O32      OBL     -0.630000       15.9994           0
     26144 MEMB     224      POPC     C32      CTL2    -0.220000       12.0110           0
     26145 MEMB     224      POPC     H2X      HAL2     0.900000E-01   1.00800           0
     26146 MEMB     224      POPC     H2Y      HAL2     0.900000E-01   1.00800           0
     26147 MEMB     224      POPC     C23      CTL2    -0.180000       12.0110           0
     26148 MEMB     224      POPC     H3R      HAL2     0.900000E-01   1.00800           0
     26149 MEMB     224      POPC     H3S      HAL2     0.900000E-01   1.00800           0
     26150 MEMB     224      POPC     C24      CTL2    -0.180000       12.0110           0
     26151 MEMB     224      POPC     H4R      HAL2     0.900000E-01   1.00800           0
     26152 MEMB     224      POPC     H4S      HAL2     0.900000E-01   1.00800           0
     26153 MEMB     224      POPC     C25      CTL2    -0.180000       12.0110           0
     26154 MEMB     224      POPC     H5R      HAL2     0.900000E-01   1.00800           0
     26155 MEMB     224      POPC     H5S      HAL2     0.900000E-01   1.00800           0
     26156 MEMB     224      POPC     C26      CTL2    -0.180000       12.0110           0
     26157 MEMB     224      POPC     H6R      HAL2     0.900000E-01   1.00800           0
     26158 MEMB     224      POPC     H6S      HAL2     0.900000E-01   1.00800           0
     26159 MEMB     224      POPC     C27      CTL2    -0.180000       12.0110           0
     26160 MEMB     224      POPC     H7R      HAL2     0.900000E-01   1.00800           0
     26161 MEMB     224      POPC     H7S      HAL2     0.900000E-01   1.00800           0
     26162 MEMB     224      POPC     C28      CTL2    -0.180000       12.0110           0
     26163 MEMB     224      POPC     H8R      HAL2     0.900000E-01   1.00800           0
     26164 MEMB     224      POPC     H8S      HAL2     0.900000E-01   1.00800           0
     26165 MEMB     224      POPC     C29      CEL1    -0.150000       12.0110           0
     26166 MEMB     224      POPC     H91      HEL1     0.150000       1.00800           0
     26167 MEMB     224      POPC     C210     CEL1    -0.150000       12.0110           0
     26168 MEMB     224      POPC     H101     HEL1     0.150000       1.00800           0
     26169 MEMB     224      POPC     C211     CTL2    -0.180000       12.0110           0
     26170 MEMB     224      POPC     H11R     HAL2     0.900000E-01   1.00800           0
     26171 MEMB     224      POPC     H11S     HAL2     0.900000E-01   1.00800           0
     26172 MEMB     224      POPC     C212     CTL2    -0.180000       12.0110           0
     26173 MEMB     224      POPC     H12R     HAL2     0.900000E-01   1.00800           0
     26174 MEMB     224      POPC     H12S     HAL2     0.900000E-01   1.00800           0
     26175 MEMB     224      POPC     C213     CTL2    -0.180000       12.0110           0
     26176 MEMB     224      POPC     H13R     HAL2     0.900000E-01   1.00800           0
     26177 MEMB     224      POPC     H13S     HAL2     0.900000E-01   1.00800           0
     26178 MEMB     224      POPC     C214     CTL2    -0.180000       12.0110           0
     26179 MEMB     224      POPC     H14R     HAL2     0.900000E-01   1.00800           0
     26180 MEMB     224      POPC     H14S     HAL2     0.900000E-01   1.00800           0
     26181 MEMB     224      POPC     C215     CTL2    -0.180000       12.0110           0
     26182 MEMB     224      POPC     H15R     HAL2     0.900000E-01   1.00800           0
     26183 MEMB     224      POPC     H15S     HAL2     0.900000E-01   1.00800           0
     26184 MEMB     224      POPC     C216     CTL2    -0.180000       12.0110           0
     26185 MEMB     224      POPC     H16R     HAL2     0.900000E-01   1.00800           0
     26186 MEMB     224      POPC     H16S     HAL2     0.900000E-01   1.00800           0
     26187 MEMB     224      POPC     C217     CTL2    -0.180000       12.0110           0
     26188 MEMB     224      POPC     H17R     HAL2     0.900000E-01   1.00800           0
     26189 MEMB     224      POPC     H17S     HAL2     0.900000E-01   1.00800           0
     26190 MEMB     224      POPC     C218     CTL3    -0.270000       12.0110           0
     26191 MEMB     224      POPC     H18R     HAL3     0.900000E-01   1.00800           0
     26192 MEMB     224      POPC     H18S     HAL3     0.900000E-01   1.00800           0
     26193 MEMB     224      POPC     H18T     HAL3     0.900000E-01   1.00800           0
     26194 MEMB     224      POPC     C33      CTL2    -0.180000       12.0110           0
     26195 MEMB     224      POPC     H3X      HAL2     0.900000E-01   1.00800           0
     26196 MEMB     224      POPC     H3Y      HAL2     0.900000E-01   1.00800           0
     26197 MEMB     224      POPC     C34      CTL2    -0.180000       12.0110           0
     26198 MEMB     224      POPC     H4X      HAL2     0.900000E-01   1.00800           0
     26199 MEMB     224      POPC     H4Y      HAL2     0.900000E-01   1.00800           0
     26200 MEMB     224      POPC     C35      CTL2    -0.180000       12.0110           0
     26201 MEMB     224      POPC     H5X      HAL2     0.900000E-01   1.00800           0
     26202 MEMB     224      POPC     H5Y      HAL2     0.900000E-01   1.00800           0
     26203 MEMB     224      POPC     C36      CTL2    -0.180000       12.0110           0
     26204 MEMB     224      POPC     H6X      HAL2     0.900000E-01   1.00800           0
     26205 MEMB     224      POPC     H6Y      HAL2     0.900000E-01   1.00800           0
     26206 MEMB     224      POPC     C37      CTL2    -0.180000       12.0110           0
     26207 MEMB     224      POPC     H7X      HAL2     0.900000E-01   1.00800           0
     26208 MEMB     224      POPC     H7Y      HAL2     0.900000E-01   1.00800           0
     26209 MEMB     224      POPC     C38      CTL2    -0.180000       12.0110           0
     26210 MEMB     224      POPC     H8X      HAL2     0.900000E-01   1.00800           0
     26211 MEMB     224      POPC     H8Y      HAL2     0.900000E-01   1.00800           0
     26212 MEMB     224      POPC     C39      CTL2    -0.180000       12.0110           0
     26213 MEMB     224      POPC     H9X      HAL2     0.900000E-01   1.00800           0
     26214 MEMB     224      POPC     H9Y      HAL2     0.900000E-01   1.00800           0
     26215 MEMB     224      POPC     C310     CTL2    -0.180000       12.0110           0
     26216 MEMB     224      POPC     H10X     HAL2     0.900000E-01   1.00800           0
     26217 MEMB     224      POPC     H10Y     HAL2     0.900000E-01   1.00800           0
     26218 MEMB     224      POPC     C311     CTL2    -0.180000       12.0110           0
     26219 MEMB     224      POPC     H11X     HAL2     0.900000E-01   1.00800           0
     26220 MEMB     224      POPC     H11Y     HAL2     0.900000E-01   1.00800           0
     26221 MEMB     224      POPC     C312     CTL2    -0.180000       12.0110           0
     26222 MEMB     224      POPC     H12X     HAL2     0.900000E-01   1.00800           0
     26223 MEMB     224      POPC     H12Y     HAL2     0.900000E-01   1.00800           0
     26224 MEMB     224      POPC     C313     CTL2    -0.180000       12.0110           0
     26225 MEMB     224      POPC     H13X     HAL2     0.900000E-01   1.00800           0
     26226 MEMB     224      POPC     H13Y     HAL2     0.900000E-01   1.00800           0
     26227 MEMB     224      POPC     C314     CTL2    -0.180000       12.0110           0
     26228 MEMB     224      POPC     H14X     HAL2     0.900000E-01   1.00800           0
     26229 MEMB     224      POPC     H14Y     HAL2     0.900000E-01   1.00800           0
     26230 MEMB     224      POPC     C315     CTL2    -0.180000       12.0110           0
     26231 MEMB     224      POPC     H15X     HAL2     0.900000E-01   1.00800           0
     26232 MEMB     224      POPC     H15Y     HAL2     0.900000E-01   1.00800           0
     26233 MEMB     224      POPC     C316     CTL3    -0.270000       12.0110           0
     26234 MEMB     224      POPC     H16X     HAL3     0.900000E-01   1.00800           0
     26235 MEMB     224      POPC     H16Y     HAL3     0.900000E-01   1.00800           0
     26236 MEMB     224      POPC     H16Z     HAL3     0.900000E-01   1.00800           0
     26237 MEMB     225      POPC     N        NTL     -0.600000       14.0070           0
     26238 MEMB     225      POPC     C12      CTL2    -0.100000       12.0110           0
     26239 MEMB     225      POPC     H12A     HL       0.250000       1.00800           0
     26240 MEMB     225      POPC     H12B     HL       0.250000       1.00800           0
     26241 MEMB     225      POPC     C13      CTL5    -0.350000       12.0110           0
     26242 MEMB     225      POPC     H13A     HL       0.250000       1.00800           0
     26243 MEMB     225      POPC     H13B     HL       0.250000       1.00800           0
     26244 MEMB     225      POPC     H13C     HL       0.250000       1.00800           0
     26245 MEMB     225      POPC     C14      CTL5    -0.350000       12.0110           0
     26246 MEMB     225      POPC     H14A     HL       0.250000       1.00800           0
     26247 MEMB     225      POPC     H14B     HL       0.250000       1.00800           0
     26248 MEMB     225      POPC     H14C     HL       0.250000       1.00800           0
     26249 MEMB     225      POPC     C15      CTL5    -0.350000       12.0110           0
     26250 MEMB     225      POPC     H15A     HL       0.250000       1.00800           0
     26251 MEMB     225      POPC     H15B     HL       0.250000       1.00800           0
     26252 MEMB     225      POPC     H15C     HL       0.250000       1.00800           0
     26253 MEMB     225      POPC     C11      CTL2    -0.800000E-01   12.0110           0
     26254 MEMB     225      POPC     H11A     HAL2     0.900000E-01   1.00800           0
     26255 MEMB     225      POPC     H11B     HAL2     0.900000E-01   1.00800           0
     26256 MEMB     225      POPC     P        PL        1.50000       30.9740           0
     26257 MEMB     225      POPC     O13      O2L     -0.780000       15.9994           0
     26258 MEMB     225      POPC     O14      O2L     -0.780000       15.9994           0
     26259 MEMB     225      POPC     O12      OSLP    -0.570000       15.9994           0
     26260 MEMB     225      POPC     O11      OSLP    -0.570000       15.9994           0
     26261 MEMB     225      POPC     C1       CTL2    -0.800000E-01   12.0110           0
     26262 MEMB     225      POPC     HA       HAL2     0.900000E-01   1.00800           0
     26263 MEMB     225      POPC     HB       HAL2     0.900000E-01   1.00800           0
     26264 MEMB     225      POPC     C2       CTL1     0.170000       12.0110           0
     26265 MEMB     225      POPC     HS       HAL1     0.900000E-01   1.00800           0
     26266 MEMB     225      POPC     O21      OSL     -0.490000       15.9994           0
     26267 MEMB     225      POPC     C21      CL       0.900000       12.0110           0
     26268 MEMB     225      POPC     O22      OBL     -0.630000       15.9994           0
     26269 MEMB     225      POPC     C22      CTL2    -0.220000       12.0110           0
     26270 MEMB     225      POPC     H2R      HAL2     0.900000E-01   1.00800           0
     26271 MEMB     225      POPC     H2S      HAL2     0.900000E-01   1.00800           0
     26272 MEMB     225      POPC     C3       CTL2     0.800000E-01   12.0110           0
     26273 MEMB     225      POPC     HX       HAL2     0.900000E-01   1.00800           0
     26274 MEMB     225      POPC     HY       HAL2     0.900000E-01   1.00800           0
     26275 MEMB     225      POPC     O31      OSL     -0.490000       15.9994           0
     26276 MEMB     225      POPC     C31      CL       0.900000       12.0110           0
     26277 MEMB     225      POPC     O32      OBL     -0.630000       15.9994           0
     26278 MEMB     225      POPC     C32      CTL2    -0.220000       12.0110           0
     26279 MEMB     225      POPC     H2X      HAL2     0.900000E-01   1.00800           0
     26280 MEMB     225      POPC     H2Y      HAL2     0.900000E-01   1.00800           0
     26281 MEMB     225      POPC     C23      CTL2    -0.180000       12.0110           0
     26282 MEMB     225      POPC     H3R      HAL2     0.900000E-01   1.00800           0
     26283 MEMB     225      POPC     H3S      HAL2     0.900000E-01   1.00800           0
     26284 MEMB     225      POPC     C24      CTL2    -0.180000       12.0110           0
     26285 MEMB     225      POPC     H4R      HAL2     0.900000E-01   1.00800           0
     26286 MEMB     225      POPC     H4S      HAL2     0.900000E-01   1.00800           0
     26287 MEMB     225      POPC     C25      CTL2    -0.180000       12.0110           0
     26288 MEMB     225      POPC     H5R      HAL2     0.900000E-01   1.00800           0
     26289 MEMB     225      POPC     H5S      HAL2     0.900000E-01   1.00800           0
     26290 MEMB     225      POPC     C26      CTL2    -0.180000       12.0110           0
     26291 MEMB     225      POPC     H6R      HAL2     0.900000E-01   1.00800           0
     26292 MEMB     225      POPC     H6S      HAL2     0.900000E-01   1.00800           0
     26293 MEMB     225      POPC     C27      CTL2    -0.180000       12.0110           0
     26294 MEMB     225      POPC     H7R      HAL2     0.900000E-01   1.00800           0
     26295 MEMB     225      POPC     H7S      HAL2     0.900000E-01   1.00800           0
     26296 MEMB     225      POPC     C28      CTL2    -0.180000       12.0110           0
     26297 MEMB     225      POPC     H8R      HAL2     0.900000E-01   1.00800           0
     26298 MEMB     225      POPC     H8S      HAL2     0.900000E-01   1.00800           0
     26299 MEMB     225      POPC     C29      CEL1    -0.150000       12.0110           0
     26300 MEMB     225      POPC     H91      HEL1     0.150000       1.00800           0
     26301 MEMB     225      POPC     C210     CEL1    -0.150000       12.0110           0
     26302 MEMB     225      POPC     H101     HEL1     0.150000       1.00800           0
     26303 MEMB     225      POPC     C211     CTL2    -0.180000       12.0110           0
     26304 MEMB     225      POPC     H11R     HAL2     0.900000E-01   1.00800           0
     26305 MEMB     225      POPC     H11S     HAL2     0.900000E-01   1.00800           0
     26306 MEMB     225      POPC     C212     CTL2    -0.180000       12.0110           0
     26307 MEMB     225      POPC     H12R     HAL2     0.900000E-01   1.00800           0
     26308 MEMB     225      POPC     H12S     HAL2     0.900000E-01   1.00800           0
     26309 MEMB     225      POPC     C213     CTL2    -0.180000       12.0110           0
     26310 MEMB     225      POPC     H13R     HAL2     0.900000E-01   1.00800           0
     26311 MEMB     225      POPC     H13S     HAL2     0.900000E-01   1.00800           0
     26312 MEMB     225      POPC     C214     CTL2    -0.180000       12.0110           0
     26313 MEMB     225      POPC     H14R     HAL2     0.900000E-01   1.00800           0
     26314 MEMB     225      POPC     H14S     HAL2     0.900000E-01   1.00800           0
     26315 MEMB     225      POPC     C215     CTL2    -0.180000       12.0110           0
     26316 MEMB     225      POPC     H15R     HAL2     0.900000E-01   1.00800           0
     26317 MEMB     225      POPC     H15S     HAL2     0.900000E-01   1.00800           0
     26318 MEMB     225      POPC     C216     CTL2    -0.180000       12.0110           0
     26319 MEMB     225      POPC     H16R     HAL2     0.900000E-01   1.00800           0
     26320 MEMB     225      POPC     H16S     HAL2     0.900000E-01   1.00800           0
     26321 MEMB     225      POPC     C217     CTL2    -0.180000       12.0110           0
     26322 MEMB     225      POPC     H17R     HAL2     0.900000E-01   1.00800           0
     26323 MEMB     225      POPC     H17S     HAL2     0.900000E-01   1.00800           0
     26324 MEMB     225      POPC     C218     CTL3    -0.270000       12.0110           0
     26325 MEMB     225      POPC     H18R     HAL3     0.900000E-01   1.00800           0
     26326 MEMB     225      POPC     H18S     HAL3     0.900000E-01   1.00800           0
     26327 MEMB     225      POPC     H18T     HAL3     0.900000E-01   1.00800           0
     26328 MEMB     225      POPC     C33      CTL2    -0.180000       12.0110           0
     26329 MEMB     225      POPC     H3X      HAL2     0.900000E-01   1.00800           0
     26330 MEMB     225      POPC     H3Y      HAL2     0.900000E-01   1.00800           0
     26331 MEMB     225      POPC     C34      CTL2    -0.180000       12.0110           0
     26332 MEMB     225      POPC     H4X      HAL2     0.900000E-01   1.00800           0
     26333 MEMB     225      POPC     H4Y      HAL2     0.900000E-01   1.00800           0
     26334 MEMB     225      POPC     C35      CTL2    -0.180000       12.0110           0
     26335 MEMB     225      POPC     H5X      HAL2     0.900000E-01   1.00800           0
     26336 MEMB     225      POPC     H5Y      HAL2     0.900000E-01   1.00800           0
     26337 MEMB     225      POPC     C36      CTL2    -0.180000       12.0110           0
     26338 MEMB     225      POPC     H6X      HAL2     0.900000E-01   1.00800           0
     26339 MEMB     225      POPC     H6Y      HAL2     0.900000E-01   1.00800           0
     26340 MEMB     225      POPC     C37      CTL2    -0.180000       12.0110           0
     26341 MEMB     225      POPC     H7X      HAL2     0.900000E-01   1.00800           0
     26342 MEMB     225      POPC     H7Y      HAL2     0.900000E-01   1.00800           0
     26343 MEMB     225      POPC     C38      CTL2    -0.180000       12.0110           0
     26344 MEMB     225      POPC     H8X      HAL2     0.900000E-01   1.00800           0
     26345 MEMB     225      POPC     H8Y      HAL2     0.900000E-01   1.00800           0
     26346 MEMB     225      POPC     C39      CTL2    -0.180000       12.0110           0
     26347 MEMB     225      POPC     H9X      HAL2     0.900000E-01   1.00800           0
     26348 MEMB     225      POPC     H9Y      HAL2     0.900000E-01   1.00800           0
     26349 MEMB     225      POPC     C310     CTL2    -0.180000       12.0110           0
     26350 MEMB     225      POPC     H10X     HAL2     0.900000E-01   1.00800           0
     26351 MEMB     225      POPC     H10Y     HAL2     0.900000E-01   1.00800           0
     26352 MEMB     225      POPC     C311     CTL2    -0.180000       12.0110           0
     26353 MEMB     225      POPC     H11X     HAL2     0.900000E-01   1.00800           0
     26354 MEMB     225      POPC     H11Y     HAL2     0.900000E-01   1.00800           0
     26355 MEMB     225      POPC     C312     CTL2    -0.180000       12.0110           0
     26356 MEMB     225      POPC     H12X     HAL2     0.900000E-01   1.00800           0
     26357 MEMB     225      POPC     H12Y     HAL2     0.900000E-01   1.00800           0
     26358 MEMB     225      POPC     C313     CTL2    -0.180000       12.0110           0
     26359 MEMB     225      POPC     H13X     HAL2     0.900000E-01   1.00800           0
     26360 MEMB     225      POPC     H13Y     HAL2     0.900000E-01   1.00800           0
     26361 MEMB     225      POPC     C314     CTL2    -0.180000       12.0110           0
     26362 MEMB     225      POPC     H14X     HAL2     0.900000E-01   1.00800           0
     26363 MEMB     225      POPC     H14Y     HAL2     0.900000E-01   1.00800           0
     26364 MEMB     225      POPC     C315     CTL2    -0.180000       12.0110           0
     26365 MEMB     225      POPC     H15X     HAL2     0.900000E-01   1.00800           0
     26366 MEMB     225      POPC     H15Y     HAL2     0.900000E-01   1.00800           0
     26367 MEMB     225      POPC     C316     CTL3    -0.270000       12.0110           0
     26368 MEMB     225      POPC     H16X     HAL3     0.900000E-01   1.00800           0
     26369 MEMB     225      POPC     H16Y     HAL3     0.900000E-01   1.00800           0
     26370 MEMB     225      POPC     H16Z     HAL3     0.900000E-01   1.00800           0
     26371 MEMB     226      POPC     N        NTL     -0.600000       14.0070           0
     26372 MEMB     226      POPC     C12      CTL2    -0.100000       12.0110           0
     26373 MEMB     226      POPC     H12A     HL       0.250000       1.00800           0
     26374 MEMB     226      POPC     H12B     HL       0.250000       1.00800           0
     26375 MEMB     226      POPC     C13      CTL5    -0.350000       12.0110           0
     26376 MEMB     226      POPC     H13A     HL       0.250000       1.00800           0
     26377 MEMB     226      POPC     H13B     HL       0.250000       1.00800           0
     26378 MEMB     226      POPC     H13C     HL       0.250000       1.00800           0
     26379 MEMB     226      POPC     C14      CTL5    -0.350000       12.0110           0
     26380 MEMB     226      POPC     H14A     HL       0.250000       1.00800           0
     26381 MEMB     226      POPC     H14B     HL       0.250000       1.00800           0
     26382 MEMB     226      POPC     H14C     HL       0.250000       1.00800           0
     26383 MEMB     226      POPC     C15      CTL5    -0.350000       12.0110           0
     26384 MEMB     226      POPC     H15A     HL       0.250000       1.00800           0
     26385 MEMB     226      POPC     H15B     HL       0.250000       1.00800           0
     26386 MEMB     226      POPC     H15C     HL       0.250000       1.00800           0
     26387 MEMB     226      POPC     C11      CTL2    -0.800000E-01   12.0110           0
     26388 MEMB     226      POPC     H11A     HAL2     0.900000E-01   1.00800           0
     26389 MEMB     226      POPC     H11B     HAL2     0.900000E-01   1.00800           0
     26390 MEMB     226      POPC     P        PL        1.50000       30.9740           0
     26391 MEMB     226      POPC     O13      O2L     -0.780000       15.9994           0
     26392 MEMB     226      POPC     O14      O2L     -0.780000       15.9994           0
     26393 MEMB     226      POPC     O12      OSLP    -0.570000       15.9994           0
     26394 MEMB     226      POPC     O11      OSLP    -0.570000       15.9994           0
     26395 MEMB     226      POPC     C1       CTL2    -0.800000E-01   12.0110           0
     26396 MEMB     226      POPC     HA       HAL2     0.900000E-01   1.00800           0
     26397 MEMB     226      POPC     HB       HAL2     0.900000E-01   1.00800           0
     26398 MEMB     226      POPC     C2       CTL1     0.170000       12.0110           0
     26399 MEMB     226      POPC     HS       HAL1     0.900000E-01   1.00800           0
     26400 MEMB     226      POPC     O21      OSL     -0.490000       15.9994           0
     26401 MEMB     226      POPC     C21      CL       0.900000       12.0110           0
     26402 MEMB     226      POPC     O22      OBL     -0.630000       15.9994           0
     26403 MEMB     226      POPC     C22      CTL2    -0.220000       12.0110           0
     26404 MEMB     226      POPC     H2R      HAL2     0.900000E-01   1.00800           0
     26405 MEMB     226      POPC     H2S      HAL2     0.900000E-01   1.00800           0
     26406 MEMB     226      POPC     C3       CTL2     0.800000E-01   12.0110           0
     26407 MEMB     226      POPC     HX       HAL2     0.900000E-01   1.00800           0
     26408 MEMB     226      POPC     HY       HAL2     0.900000E-01   1.00800           0
     26409 MEMB     226      POPC     O31      OSL     -0.490000       15.9994           0
     26410 MEMB     226      POPC     C31      CL       0.900000       12.0110           0
     26411 MEMB     226      POPC     O32      OBL     -0.630000       15.9994           0
     26412 MEMB     226      POPC     C32      CTL2    -0.220000       12.0110           0
     26413 MEMB     226      POPC     H2X      HAL2     0.900000E-01   1.00800           0
     26414 MEMB     226      POPC     H2Y      HAL2     0.900000E-01   1.00800           0
     26415 MEMB     226      POPC     C23      CTL2    -0.180000       12.0110           0
     26416 MEMB     226      POPC     H3R      HAL2     0.900000E-01   1.00800           0
     26417 MEMB     226      POPC     H3S      HAL2     0.900000E-01   1.00800           0
     26418 MEMB     226      POPC     C24      CTL2    -0.180000       12.0110           0
     26419 MEMB     226      POPC     H4R      HAL2     0.900000E-01   1.00800           0
     26420 MEMB     226      POPC     H4S      HAL2     0.900000E-01   1.00800           0
     26421 MEMB     226      POPC     C25      CTL2    -0.180000       12.0110           0
     26422 MEMB     226      POPC     H5R      HAL2     0.900000E-01   1.00800           0
     26423 MEMB     226      POPC     H5S      HAL2     0.900000E-01   1.00800           0
     26424 MEMB     226      POPC     C26      CTL2    -0.180000       12.0110           0
     26425 MEMB     226      POPC     H6R      HAL2     0.900000E-01   1.00800           0
     26426 MEMB     226      POPC     H6S      HAL2     0.900000E-01   1.00800           0
     26427 MEMB     226      POPC     C27      CTL2    -0.180000       12.0110           0
     26428 MEMB     226      POPC     H7R      HAL2     0.900000E-01   1.00800           0
     26429 MEMB     226      POPC     H7S      HAL2     0.900000E-01   1.00800           0
     26430 MEMB     226      POPC     C28      CTL2    -0.180000       12.0110           0
     26431 MEMB     226      POPC     H8R      HAL2     0.900000E-01   1.00800           0
     26432 MEMB     226      POPC     H8S      HAL2     0.900000E-01   1.00800           0
     26433 MEMB     226      POPC     C29      CEL1    -0.150000       12.0110           0
     26434 MEMB     226      POPC     H91      HEL1     0.150000       1.00800           0
     26435 MEMB     226      POPC     C210     CEL1    -0.150000       12.0110           0
     26436 MEMB     226      POPC     H101     HEL1     0.150000       1.00800           0
     26437 MEMB     226      POPC     C211     CTL2    -0.180000       12.0110           0
     26438 MEMB     226      POPC     H11R     HAL2     0.900000E-01   1.00800           0
     26439 MEMB     226      POPC     H11S     HAL2     0.900000E-01   1.00800           0
     26440 MEMB     226      POPC     C212     CTL2    -0.180000       12.0110           0
     26441 MEMB     226      POPC     H12R     HAL2     0.900000E-01   1.00800           0
     26442 MEMB     226      POPC     H12S     HAL2     0.900000E-01   1.00800           0
     26443 MEMB     226      POPC     C213     CTL2    -0.180000       12.0110           0
     26444 MEMB     226      POPC     H13R     HAL2     0.900000E-01   1.00800           0
     26445 MEMB     226      POPC     H13S     HAL2     0.900000E-01   1.00800           0
     26446 MEMB     226      POPC     C214     CTL2    -0.180000       12.0110           0
     26447 MEMB     226      POPC     H14R     HAL2     0.900000E-01   1.00800           0
     26448 MEMB     226      POPC     H14S     HAL2     0.900000E-01   1.00800           0
     26449 MEMB     226      POPC     C215     CTL2    -0.180000       12.0110           0
     26450 MEMB     226      POPC     H15R     HAL2     0.900000E-01   1.00800           0
     26451 MEMB     226      POPC     H15S     HAL2     0.900000E-01   1.00800           0
     26452 MEMB     226      POPC     C216     CTL2    -0.180000       12.0110           0
     26453 MEMB     226      POPC     H16R     HAL2     0.900000E-01   1.00800           0
     26454 MEMB     226      POPC     H16S     HAL2     0.900000E-01   1.00800           0
     26455 MEMB     226      POPC     C217     CTL2    -0.180000       12.0110           0
     26456 MEMB     226      POPC     H17R     HAL2     0.900000E-01   1.00800           0
     26457 MEMB     226      POPC     H17S     HAL2     0.900000E-01   1.00800           0
     26458 MEMB     226      POPC     C218     CTL3    -0.270000       12.0110           0
     26459 MEMB     226      POPC     H18R     HAL3     0.900000E-01   1.00800           0
     26460 MEMB     226      POPC     H18S     HAL3     0.900000E-01   1.00800           0
     26461 MEMB     226      POPC     H18T     HAL3     0.900000E-01   1.00800           0
     26462 MEMB     226      POPC     C33      CTL2    -0.180000       12.0110           0
     26463 MEMB     226      POPC     H3X      HAL2     0.900000E-01   1.00800           0
     26464 MEMB     226      POPC     H3Y      HAL2     0.900000E-01   1.00800           0
     26465 MEMB     226      POPC     C34      CTL2    -0.180000       12.0110           0
     26466 MEMB     226      POPC     H4X      HAL2     0.900000E-01   1.00800           0
     26467 MEMB     226      POPC     H4Y      HAL2     0.900000E-01   1.00800           0
     26468 MEMB     226      POPC     C35      CTL2    -0.180000       12.0110           0
     26469 MEMB     226      POPC     H5X      HAL2     0.900000E-01   1.00800           0
     26470 MEMB     226      POPC     H5Y      HAL2     0.900000E-01   1.00800           0
     26471 MEMB     226      POPC     C36      CTL2    -0.180000       12.0110           0
     26472 MEMB     226      POPC     H6X      HAL2     0.900000E-01   1.00800           0
     26473 MEMB     226      POPC     H6Y      HAL2     0.900000E-01   1.00800           0
     26474 MEMB     226      POPC     C37      CTL2    -0.180000       12.0110           0
     26475 MEMB     226      POPC     H7X      HAL2     0.900000E-01   1.00800           0
     26476 MEMB     226      POPC     H7Y      HAL2     0.900000E-01   1.00800           0
     26477 MEMB     226      POPC     C38      CTL2    -0.180000       12.0110           0
     26478 MEMB     226      POPC     H8X      HAL2     0.900000E-01   1.00800           0
     26479 MEMB     226      POPC     H8Y      HAL2     0.900000E-01   1.00800           0
     26480 MEMB     226      POPC     C39      CTL2    -0.180000       12.0110           0
     26481 MEMB     226      POPC     H9X      HAL2     0.900000E-01   1.00800           0
     26482 MEMB     226      POPC     H9Y      HAL2     0.900000E-01   1.00800           0
     26483 MEMB     226      POPC     C310     CTL2    -0.180000       12.0110           0
     26484 MEMB     226      POPC     H10X     HAL2     0.900000E-01   1.00800           0
     26485 MEMB     226      POPC     H10Y     HAL2     0.900000E-01   1.00800           0
     26486 MEMB     226      POPC     C311     CTL2    -0.180000       12.0110           0
     26487 MEMB     226      POPC     H11X     HAL2     0.900000E-01   1.00800           0
     26488 MEMB     226      POPC     H11Y     HAL2     0.900000E-01   1.00800           0
     26489 MEMB     226      POPC     C312     CTL2    -0.180000       12.0110           0
     26490 MEMB     226      POPC     H12X     HAL2     0.900000E-01   1.00800           0
     26491 MEMB     226      POPC     H12Y     HAL2     0.900000E-01   1.00800           0
     26492 MEMB     226      POPC     C313     CTL2    -0.180000       12.0110           0
     26493 MEMB     226      POPC     H13X     HAL2     0.900000E-01   1.00800           0
     26494 MEMB     226      POPC     H13Y     HAL2     0.900000E-01   1.00800           0
     26495 MEMB     226      POPC     C314     CTL2    -0.180000       12.0110           0
     26496 MEMB     226      POPC     H14X     HAL2     0.900000E-01   1.00800           0
     26497 MEMB     226      POPC     H14Y     HAL2     0.900000E-01   1.00800           0
     26498 MEMB     226      POPC     C315     CTL2    -0.180000       12.0110           0
     26499 MEMB     226      POPC     H15X     HAL2     0.900000E-01   1.00800           0
     26500 MEMB     226      POPC     H15Y     HAL2     0.900000E-01   1.00800           0
     26501 MEMB     226      POPC     C316     CTL3    -0.270000       12.0110           0
     26502 MEMB     226      POPC     H16X     HAL3     0.900000E-01   1.00800           0
     26503 MEMB     226      POPC     H16Y     HAL3     0.900000E-01   1.00800           0
     26504 MEMB     226      POPC     H16Z     HAL3     0.900000E-01   1.00800           0
     26505 MEMB     227      POPC     N        NTL     -0.600000       14.0070           0
     26506 MEMB     227      POPC     C12      CTL2    -0.100000       12.0110           0
     26507 MEMB     227      POPC     H12A     HL       0.250000       1.00800           0
     26508 MEMB     227      POPC     H12B     HL       0.250000       1.00800           0
     26509 MEMB     227      POPC     C13      CTL5    -0.350000       12.0110           0
     26510 MEMB     227      POPC     H13A     HL       0.250000       1.00800           0
     26511 MEMB     227      POPC     H13B     HL       0.250000       1.00800           0
     26512 MEMB     227      POPC     H13C     HL       0.250000       1.00800           0
     26513 MEMB     227      POPC     C14      CTL5    -0.350000       12.0110           0
     26514 MEMB     227      POPC     H14A     HL       0.250000       1.00800           0
     26515 MEMB     227      POPC     H14B     HL       0.250000       1.00800           0
     26516 MEMB     227      POPC     H14C     HL       0.250000       1.00800           0
     26517 MEMB     227      POPC     C15      CTL5    -0.350000       12.0110           0
     26518 MEMB     227      POPC     H15A     HL       0.250000       1.00800           0
     26519 MEMB     227      POPC     H15B     HL       0.250000       1.00800           0
     26520 MEMB     227      POPC     H15C     HL       0.250000       1.00800           0
     26521 MEMB     227      POPC     C11      CTL2    -0.800000E-01   12.0110           0
     26522 MEMB     227      POPC     H11A     HAL2     0.900000E-01   1.00800           0
     26523 MEMB     227      POPC     H11B     HAL2     0.900000E-01   1.00800           0
     26524 MEMB     227      POPC     P        PL        1.50000       30.9740           0
     26525 MEMB     227      POPC     O13      O2L     -0.780000       15.9994           0
     26526 MEMB     227      POPC     O14      O2L     -0.780000       15.9994           0
     26527 MEMB     227      POPC     O12      OSLP    -0.570000       15.9994           0
     26528 MEMB     227      POPC     O11      OSLP    -0.570000       15.9994           0
     26529 MEMB     227      POPC     C1       CTL2    -0.800000E-01   12.0110           0
     26530 MEMB     227      POPC     HA       HAL2     0.900000E-01   1.00800           0
     26531 MEMB     227      POPC     HB       HAL2     0.900000E-01   1.00800           0
     26532 MEMB     227      POPC     C2       CTL1     0.170000       12.0110           0
     26533 MEMB     227      POPC     HS       HAL1     0.900000E-01   1.00800           0
     26534 MEMB     227      POPC     O21      OSL     -0.490000       15.9994           0
     26535 MEMB     227      POPC     C21      CL       0.900000       12.0110           0
     26536 MEMB     227      POPC     O22      OBL     -0.630000       15.9994           0
     26537 MEMB     227      POPC     C22      CTL2    -0.220000       12.0110           0
     26538 MEMB     227      POPC     H2R      HAL2     0.900000E-01   1.00800           0
     26539 MEMB     227      POPC     H2S      HAL2     0.900000E-01   1.00800           0
     26540 MEMB     227      POPC     C3       CTL2     0.800000E-01   12.0110           0
     26541 MEMB     227      POPC     HX       HAL2     0.900000E-01   1.00800           0
     26542 MEMB     227      POPC     HY       HAL2     0.900000E-01   1.00800           0
     26543 MEMB     227      POPC     O31      OSL     -0.490000       15.9994           0
     26544 MEMB     227      POPC     C31      CL       0.900000       12.0110           0
     26545 MEMB     227      POPC     O32      OBL     -0.630000       15.9994           0
     26546 MEMB     227      POPC     C32      CTL2    -0.220000       12.0110           0
     26547 MEMB     227      POPC     H2X      HAL2     0.900000E-01   1.00800           0
     26548 MEMB     227      POPC     H2Y      HAL2     0.900000E-01   1.00800           0
     26549 MEMB     227      POPC     C23      CTL2    -0.180000       12.0110           0
     26550 MEMB     227      POPC     H3R      HAL2     0.900000E-01   1.00800           0
     26551 MEMB     227      POPC     H3S      HAL2     0.900000E-01   1.00800           0
     26552 MEMB     227      POPC     C24      CTL2    -0.180000       12.0110           0
     26553 MEMB     227      POPC     H4R      HAL2     0.900000E-01   1.00800           0
     26554 MEMB     227      POPC     H4S      HAL2     0.900000E-01   1.00800           0
     26555 MEMB     227      POPC     C25      CTL2    -0.180000       12.0110           0
     26556 MEMB     227      POPC     H5R      HAL2     0.900000E-01   1.00800           0
     26557 MEMB     227      POPC     H5S      HAL2     0.900000E-01   1.00800           0
     26558 MEMB     227      POPC     C26      CTL2    -0.180000       12.0110           0
     26559 MEMB     227      POPC     H6R      HAL2     0.900000E-01   1.00800           0
     26560 MEMB     227      POPC     H6S      HAL2     0.900000E-01   1.00800           0
     26561 MEMB     227      POPC     C27      CTL2    -0.180000       12.0110           0
     26562 MEMB     227      POPC     H7R      HAL2     0.900000E-01   1.00800           0
     26563 MEMB     227      POPC     H7S      HAL2     0.900000E-01   1.00800           0
     26564 MEMB     227      POPC     C28      CTL2    -0.180000       12.0110           0
     26565 MEMB     227      POPC     H8R      HAL2     0.900000E-01   1.00800           0
     26566 MEMB     227      POPC     H8S      HAL2     0.900000E-01   1.00800           0
     26567 MEMB     227      POPC     C29      CEL1    -0.150000       12.0110           0
     26568 MEMB     227      POPC     H91      HEL1     0.150000       1.00800           0
     26569 MEMB     227      POPC     C210     CEL1    -0.150000       12.0110           0
     26570 MEMB     227      POPC     H101     HEL1     0.150000       1.00800           0
     26571 MEMB     227      POPC     C211     CTL2    -0.180000       12.0110           0
     26572 MEMB     227      POPC     H11R     HAL2     0.900000E-01   1.00800           0
     26573 MEMB     227      POPC     H11S     HAL2     0.900000E-01   1.00800           0
     26574 MEMB     227      POPC     C212     CTL2    -0.180000       12.0110           0
     26575 MEMB     227      POPC     H12R     HAL2     0.900000E-01   1.00800           0
     26576 MEMB     227      POPC     H12S     HAL2     0.900000E-01   1.00800           0
     26577 MEMB     227      POPC     C213     CTL2    -0.180000       12.0110           0
     26578 MEMB     227      POPC     H13R     HAL2     0.900000E-01   1.00800           0
     26579 MEMB     227      POPC     H13S     HAL2     0.900000E-01   1.00800           0
     26580 MEMB     227      POPC     C214     CTL2    -0.180000       12.0110           0
     26581 MEMB     227      POPC     H14R     HAL2     0.900000E-01   1.00800           0
     26582 MEMB     227      POPC     H14S     HAL2     0.900000E-01   1.00800           0
     26583 MEMB     227      POPC     C215     CTL2    -0.180000       12.0110           0
     26584 MEMB     227      POPC     H15R     HAL2     0.900000E-01   1.00800           0
     26585 MEMB     227      POPC     H15S     HAL2     0.900000E-01   1.00800           0
     26586 MEMB     227      POPC     C216     CTL2    -0.180000       12.0110           0
     26587 MEMB     227      POPC     H16R     HAL2     0.900000E-01   1.00800           0
     26588 MEMB     227      POPC     H16S     HAL2     0.900000E-01   1.00800           0
     26589 MEMB     227      POPC     C217     CTL2    -0.180000       12.0110           0
     26590 MEMB     227      POPC     H17R     HAL2     0.900000E-01   1.00800           0
     26591 MEMB     227      POPC     H17S     HAL2     0.900000E-01   1.00800           0
     26592 MEMB     227      POPC     C218     CTL3    -0.270000       12.0110           0
     26593 MEMB     227      POPC     H18R     HAL3     0.900000E-01   1.00800           0
     26594 MEMB     227      POPC     H18S     HAL3     0.900000E-01   1.00800           0
     26595 MEMB     227      POPC     H18T     HAL3     0.900000E-01   1.00800           0
     26596 MEMB     227      POPC     C33      CTL2    -0.180000       12.0110           0
     26597 MEMB     227      POPC     H3X      HAL2     0.900000E-01   1.00800           0
     26598 MEMB     227      POPC     H3Y      HAL2     0.900000E-01   1.00800           0
     26599 MEMB     227      POPC     C34      CTL2    -0.180000       12.0110           0
     26600 MEMB     227      POPC     H4X      HAL2     0.900000E-01   1.00800           0
     26601 MEMB     227      POPC     H4Y      HAL2     0.900000E-01   1.00800           0
     26602 MEMB     227      POPC     C35      CTL2    -0.180000       12.0110           0
     26603 MEMB     227      POPC     H5X      HAL2     0.900000E-01   1.00800           0
     26604 MEMB     227      POPC     H5Y      HAL2     0.900000E-01   1.00800           0
     26605 MEMB     227      POPC     C36      CTL2    -0.180000       12.0110           0
     26606 MEMB     227      POPC     H6X      HAL2     0.900000E-01   1.00800           0
     26607 MEMB     227      POPC     H6Y      HAL2     0.900000E-01   1.00800           0
     26608 MEMB     227      POPC     C37      CTL2    -0.180000       12.0110           0
     26609 MEMB     227      POPC     H7X      HAL2     0.900000E-01   1.00800           0
     26610 MEMB     227      POPC     H7Y      HAL2     0.900000E-01   1.00800           0
     26611 MEMB     227      POPC     C38      CTL2    -0.180000       12.0110           0
     26612 MEMB     227      POPC     H8X      HAL2     0.900000E-01   1.00800           0
     26613 MEMB     227      POPC     H8Y      HAL2     0.900000E-01   1.00800           0
     26614 MEMB     227      POPC     C39      CTL2    -0.180000       12.0110           0
     26615 MEMB     227      POPC     H9X      HAL2     0.900000E-01   1.00800           0
     26616 MEMB     227      POPC     H9Y      HAL2     0.900000E-01   1.00800           0
     26617 MEMB     227      POPC     C310     CTL2    -0.180000       12.0110           0
     26618 MEMB     227      POPC     H10X     HAL2     0.900000E-01   1.00800           0
     26619 MEMB     227      POPC     H10Y     HAL2     0.900000E-01   1.00800           0
     26620 MEMB     227      POPC     C311     CTL2    -0.180000       12.0110           0
     26621 MEMB     227      POPC     H11X     HAL2     0.900000E-01   1.00800           0
     26622 MEMB     227      POPC     H11Y     HAL2     0.900000E-01   1.00800           0
     26623 MEMB     227      POPC     C312     CTL2    -0.180000       12.0110           0
     26624 MEMB     227      POPC     H12X     HAL2     0.900000E-01   1.00800           0
     26625 MEMB     227      POPC     H12Y     HAL2     0.900000E-01   1.00800           0
     26626 MEMB     227      POPC     C313     CTL2    -0.180000       12.0110           0
     26627 MEMB     227      POPC     H13X     HAL2     0.900000E-01   1.00800           0
     26628 MEMB     227      POPC     H13Y     HAL2     0.900000E-01   1.00800           0
     26629 MEMB     227      POPC     C314     CTL2    -0.180000       12.0110           0
     26630 MEMB     227      POPC     H14X     HAL2     0.900000E-01   1.00800           0
     26631 MEMB     227      POPC     H14Y     HAL2     0.900000E-01   1.00800           0
     26632 MEMB     227      POPC     C315     CTL2    -0.180000       12.0110           0
     26633 MEMB     227      POPC     H15X     HAL2     0.900000E-01   1.00800           0
     26634 MEMB     227      POPC     H15Y     HAL2     0.900000E-01   1.00800           0
     26635 MEMB     227      POPC     C316     CTL3    -0.270000       12.0110           0
     26636 MEMB     227      POPC     H16X     HAL3     0.900000E-01   1.00800           0
     26637 MEMB     227      POPC     H16Y     HAL3     0.900000E-01   1.00800           0
     26638 MEMB     227      POPC     H16Z     HAL3     0.900000E-01   1.00800           0
     26639 MEMB     228      POPC     N        NTL     -0.600000       14.0070           0
     26640 MEMB     228      POPC     C12      CTL2    -0.100000       12.0110           0
     26641 MEMB     228      POPC     H12A     HL       0.250000       1.00800           0
     26642 MEMB     228      POPC     H12B     HL       0.250000       1.00800           0
     26643 MEMB     228      POPC     C13      CTL5    -0.350000       12.0110           0
     26644 MEMB     228      POPC     H13A     HL       0.250000       1.00800           0
     26645 MEMB     228      POPC     H13B     HL       0.250000       1.00800           0
     26646 MEMB     228      POPC     H13C     HL       0.250000       1.00800           0
     26647 MEMB     228      POPC     C14      CTL5    -0.350000       12.0110           0
     26648 MEMB     228      POPC     H14A     HL       0.250000       1.00800           0
     26649 MEMB     228      POPC     H14B     HL       0.250000       1.00800           0
     26650 MEMB     228      POPC     H14C     HL       0.250000       1.00800           0
     26651 MEMB     228      POPC     C15      CTL5    -0.350000       12.0110           0
     26652 MEMB     228      POPC     H15A     HL       0.250000       1.00800           0
     26653 MEMB     228      POPC     H15B     HL       0.250000       1.00800           0
     26654 MEMB     228      POPC     H15C     HL       0.250000       1.00800           0
     26655 MEMB     228      POPC     C11      CTL2    -0.800000E-01   12.0110           0
     26656 MEMB     228      POPC     H11A     HAL2     0.900000E-01   1.00800           0
     26657 MEMB     228      POPC     H11B     HAL2     0.900000E-01   1.00800           0
     26658 MEMB     228      POPC     P        PL        1.50000       30.9740           0
     26659 MEMB     228      POPC     O13      O2L     -0.780000       15.9994           0
     26660 MEMB     228      POPC     O14      O2L     -0.780000       15.9994           0
     26661 MEMB     228      POPC     O12      OSLP    -0.570000       15.9994           0
     26662 MEMB     228      POPC     O11      OSLP    -0.570000       15.9994           0
     26663 MEMB     228      POPC     C1       CTL2    -0.800000E-01   12.0110           0
     26664 MEMB     228      POPC     HA       HAL2     0.900000E-01   1.00800           0
     26665 MEMB     228      POPC     HB       HAL2     0.900000E-01   1.00800           0
     26666 MEMB     228      POPC     C2       CTL1     0.170000       12.0110           0
     26667 MEMB     228      POPC     HS       HAL1     0.900000E-01   1.00800           0
     26668 MEMB     228      POPC     O21      OSL     -0.490000       15.9994           0
     26669 MEMB     228      POPC     C21      CL       0.900000       12.0110           0
     26670 MEMB     228      POPC     O22      OBL     -0.630000       15.9994           0
     26671 MEMB     228      POPC     C22      CTL2    -0.220000       12.0110           0
     26672 MEMB     228      POPC     H2R      HAL2     0.900000E-01   1.00800           0
     26673 MEMB     228      POPC     H2S      HAL2     0.900000E-01   1.00800           0
     26674 MEMB     228      POPC     C3       CTL2     0.800000E-01   12.0110           0
     26675 MEMB     228      POPC     HX       HAL2     0.900000E-01   1.00800           0
     26676 MEMB     228      POPC     HY       HAL2     0.900000E-01   1.00800           0
     26677 MEMB     228      POPC     O31      OSL     -0.490000       15.9994           0
     26678 MEMB     228      POPC     C31      CL       0.900000       12.0110           0
     26679 MEMB     228      POPC     O32      OBL     -0.630000       15.9994           0
     26680 MEMB     228      POPC     C32      CTL2    -0.220000       12.0110           0
     26681 MEMB     228      POPC     H2X      HAL2     0.900000E-01   1.00800           0
     26682 MEMB     228      POPC     H2Y      HAL2     0.900000E-01   1.00800           0
     26683 MEMB     228      POPC     C23      CTL2    -0.180000       12.0110           0
     26684 MEMB     228      POPC     H3R      HAL2     0.900000E-01   1.00800           0
     26685 MEMB     228      POPC     H3S      HAL2     0.900000E-01   1.00800           0
     26686 MEMB     228      POPC     C24      CTL2    -0.180000       12.0110           0
     26687 MEMB     228      POPC     H4R      HAL2     0.900000E-01   1.00800           0
     26688 MEMB     228      POPC     H4S      HAL2     0.900000E-01   1.00800           0
     26689 MEMB     228      POPC     C25      CTL2    -0.180000       12.0110           0
     26690 MEMB     228      POPC     H5R      HAL2     0.900000E-01   1.00800           0
     26691 MEMB     228      POPC     H5S      HAL2     0.900000E-01   1.00800           0
     26692 MEMB     228      POPC     C26      CTL2    -0.180000       12.0110           0
     26693 MEMB     228      POPC     H6R      HAL2     0.900000E-01   1.00800           0
     26694 MEMB     228      POPC     H6S      HAL2     0.900000E-01   1.00800           0
     26695 MEMB     228      POPC     C27      CTL2    -0.180000       12.0110           0
     26696 MEMB     228      POPC     H7R      HAL2     0.900000E-01   1.00800           0
     26697 MEMB     228      POPC     H7S      HAL2     0.900000E-01   1.00800           0
     26698 MEMB     228      POPC     C28      CTL2    -0.180000       12.0110           0
     26699 MEMB     228      POPC     H8R      HAL2     0.900000E-01   1.00800           0
     26700 MEMB     228      POPC     H8S      HAL2     0.900000E-01   1.00800           0
     26701 MEMB     228      POPC     C29      CEL1    -0.150000       12.0110           0
     26702 MEMB     228      POPC     H91      HEL1     0.150000       1.00800           0
     26703 MEMB     228      POPC     C210     CEL1    -0.150000       12.0110           0
     26704 MEMB     228      POPC     H101     HEL1     0.150000       1.00800           0
     26705 MEMB     228      POPC     C211     CTL2    -0.180000       12.0110           0
     26706 MEMB     228      POPC     H11R     HAL2     0.900000E-01   1.00800           0
     26707 MEMB     228      POPC     H11S     HAL2     0.900000E-01   1.00800           0
     26708 MEMB     228      POPC     C212     CTL2    -0.180000       12.0110           0
     26709 MEMB     228      POPC     H12R     HAL2     0.900000E-01   1.00800           0
     26710 MEMB     228      POPC     H12S     HAL2     0.900000E-01   1.00800           0
     26711 MEMB     228      POPC     C213     CTL2    -0.180000       12.0110           0
     26712 MEMB     228      POPC     H13R     HAL2     0.900000E-01   1.00800           0
     26713 MEMB     228      POPC     H13S     HAL2     0.900000E-01   1.00800           0
     26714 MEMB     228      POPC     C214     CTL2    -0.180000       12.0110           0
     26715 MEMB     228      POPC     H14R     HAL2     0.900000E-01   1.00800           0
     26716 MEMB     228      POPC     H14S     HAL2     0.900000E-01   1.00800           0
     26717 MEMB     228      POPC     C215     CTL2    -0.180000       12.0110           0
     26718 MEMB     228      POPC     H15R     HAL2     0.900000E-01   1.00800           0
     26719 MEMB     228      POPC     H15S     HAL2     0.900000E-01   1.00800           0
     26720 MEMB     228      POPC     C216     CTL2    -0.180000       12.0110           0
     26721 MEMB     228      POPC     H16R     HAL2     0.900000E-01   1.00800           0
     26722 MEMB     228      POPC     H16S     HAL2     0.900000E-01   1.00800           0
     26723 MEMB     228      POPC     C217     CTL2    -0.180000       12.0110           0
     26724 MEMB     228      POPC     H17R     HAL2     0.900000E-01   1.00800           0
     26725 MEMB     228      POPC     H17S     HAL2     0.900000E-01   1.00800           0
     26726 MEMB     228      POPC     C218     CTL3    -0.270000       12.0110           0
     26727 MEMB     228      POPC     H18R     HAL3     0.900000E-01   1.00800           0
     26728 MEMB     228      POPC     H18S     HAL3     0.900000E-01   1.00800           0
     26729 MEMB     228      POPC     H18T     HAL3     0.900000E-01   1.00800           0
     26730 MEMB     228      POPC     C33      CTL2    -0.180000       12.0110           0
     26731 MEMB     228      POPC     H3X      HAL2     0.900000E-01   1.00800           0
     26732 MEMB     228      POPC     H3Y      HAL2     0.900000E-01   1.00800           0
     26733 MEMB     228      POPC     C34      CTL2    -0.180000       12.0110           0
     26734 MEMB     228      POPC     H4X      HAL2     0.900000E-01   1.00800           0
     26735 MEMB     228      POPC     H4Y      HAL2     0.900000E-01   1.00800           0
     26736 MEMB     228      POPC     C35      CTL2    -0.180000       12.0110           0
     26737 MEMB     228      POPC     H5X      HAL2     0.900000E-01   1.00800           0
     26738 MEMB     228      POPC     H5Y      HAL2     0.900000E-01   1.00800           0
     26739 MEMB     228      POPC     C36      CTL2    -0.180000       12.0110           0
     26740 MEMB     228      POPC     H6X      HAL2     0.900000E-01   1.00800           0
     26741 MEMB     228      POPC     H6Y      HAL2     0.900000E-01   1.00800           0
     26742 MEMB     228      POPC     C37      CTL2    -0.180000       12.0110           0
     26743 MEMB     228      POPC     H7X      HAL2     0.900000E-01   1.00800           0
     26744 MEMB     228      POPC     H7Y      HAL2     0.900000E-01   1.00800           0
     26745 MEMB     228      POPC     C38      CTL2    -0.180000       12.0110           0
     26746 MEMB     228      POPC     H8X      HAL2     0.900000E-01   1.00800           0
     26747 MEMB     228      POPC     H8Y      HAL2     0.900000E-01   1.00800           0
     26748 MEMB     228      POPC     C39      CTL2    -0.180000       12.0110           0
     26749 MEMB     228      POPC     H9X      HAL2     0.900000E-01   1.00800           0
     26750 MEMB     228      POPC     H9Y      HAL2     0.900000E-01   1.00800           0
     26751 MEMB     228      POPC     C310     CTL2    -0.180000       12.0110           0
     26752 MEMB     228      POPC     H10X     HAL2     0.900000E-01   1.00800           0
     26753 MEMB     228      POPC     H10Y     HAL2     0.900000E-01   1.00800           0
     26754 MEMB     228      POPC     C311     CTL2    -0.180000       12.0110           0
     26755 MEMB     228      POPC     H11X     HAL2     0.900000E-01   1.00800           0
     26756 MEMB     228      POPC     H11Y     HAL2     0.900000E-01   1.00800           0
     26757 MEMB     228      POPC     C312     CTL2    -0.180000       12.0110           0
     26758 MEMB     228      POPC     H12X     HAL2     0.900000E-01   1.00800           0
     26759 MEMB     228      POPC     H12Y     HAL2     0.900000E-01   1.00800           0
     26760 MEMB     228      POPC     C313     CTL2    -0.180000       12.0110           0
     26761 MEMB     228      POPC     H13X     HAL2     0.900000E-01   1.00800           0
     26762 MEMB     228      POPC     H13Y     HAL2     0.900000E-01   1.00800           0
     26763 MEMB     228      POPC     C314     CTL2    -0.180000       12.0110           0
     26764 MEMB     228      POPC     H14X     HAL2     0.900000E-01   1.00800           0
     26765 MEMB     228      POPC     H14Y     HAL2     0.900000E-01   1.00800           0
     26766 MEMB     228      POPC     C315     CTL2    -0.180000       12.0110           0
     26767 MEMB     228      POPC     H15X     HAL2     0.900000E-01   1.00800           0
     26768 MEMB     228      POPC     H15Y     HAL2     0.900000E-01   1.00800           0
     26769 MEMB     228      POPC     C316     CTL3    -0.270000       12.0110           0
     26770 MEMB     228      POPC     H16X     HAL3     0.900000E-01   1.00800           0
     26771 MEMB     228      POPC     H16Y     HAL3     0.900000E-01   1.00800           0
     26772 MEMB     228      POPC     H16Z     HAL3     0.900000E-01   1.00800           0
     26773 MEMB     229      POPC     N        NTL     -0.600000       14.0070           0
     26774 MEMB     229      POPC     C12      CTL2    -0.100000       12.0110           0
     26775 MEMB     229      POPC     H12A     HL       0.250000       1.00800           0
     26776 MEMB     229      POPC     H12B     HL       0.250000       1.00800           0
     26777 MEMB     229      POPC     C13      CTL5    -0.350000       12.0110           0
     26778 MEMB     229      POPC     H13A     HL       0.250000       1.00800           0
     26779 MEMB     229      POPC     H13B     HL       0.250000       1.00800           0
     26780 MEMB     229      POPC     H13C     HL       0.250000       1.00800           0
     26781 MEMB     229      POPC     C14      CTL5    -0.350000       12.0110           0
     26782 MEMB     229      POPC     H14A     HL       0.250000       1.00800           0
     26783 MEMB     229      POPC     H14B     HL       0.250000       1.00800           0
     26784 MEMB     229      POPC     H14C     HL       0.250000       1.00800           0
     26785 MEMB     229      POPC     C15      CTL5    -0.350000       12.0110           0
     26786 MEMB     229      POPC     H15A     HL       0.250000       1.00800           0
     26787 MEMB     229      POPC     H15B     HL       0.250000       1.00800           0
     26788 MEMB     229      POPC     H15C     HL       0.250000       1.00800           0
     26789 MEMB     229      POPC     C11      CTL2    -0.800000E-01   12.0110           0
     26790 MEMB     229      POPC     H11A     HAL2     0.900000E-01   1.00800           0
     26791 MEMB     229      POPC     H11B     HAL2     0.900000E-01   1.00800           0
     26792 MEMB     229      POPC     P        PL        1.50000       30.9740           0
     26793 MEMB     229      POPC     O13      O2L     -0.780000       15.9994           0
     26794 MEMB     229      POPC     O14      O2L     -0.780000       15.9994           0
     26795 MEMB     229      POPC     O12      OSLP    -0.570000       15.9994           0
     26796 MEMB     229      POPC     O11      OSLP    -0.570000       15.9994           0
     26797 MEMB     229      POPC     C1       CTL2    -0.800000E-01   12.0110           0
     26798 MEMB     229      POPC     HA       HAL2     0.900000E-01   1.00800           0
     26799 MEMB     229      POPC     HB       HAL2     0.900000E-01   1.00800           0
     26800 MEMB     229      POPC     C2       CTL1     0.170000       12.0110           0
     26801 MEMB     229      POPC     HS       HAL1     0.900000E-01   1.00800           0
     26802 MEMB     229      POPC     O21      OSL     -0.490000       15.9994           0
     26803 MEMB     229      POPC     C21      CL       0.900000       12.0110           0
     26804 MEMB     229      POPC     O22      OBL     -0.630000       15.9994           0
     26805 MEMB     229      POPC     C22      CTL2    -0.220000       12.0110           0
     26806 MEMB     229      POPC     H2R      HAL2     0.900000E-01   1.00800           0
     26807 MEMB     229      POPC     H2S      HAL2     0.900000E-01   1.00800           0
     26808 MEMB     229      POPC     C3       CTL2     0.800000E-01   12.0110           0
     26809 MEMB     229      POPC     HX       HAL2     0.900000E-01   1.00800           0
     26810 MEMB     229      POPC     HY       HAL2     0.900000E-01   1.00800           0
     26811 MEMB     229      POPC     O31      OSL     -0.490000       15.9994           0
     26812 MEMB     229      POPC     C31      CL       0.900000       12.0110           0
     26813 MEMB     229      POPC     O32      OBL     -0.630000       15.9994           0
     26814 MEMB     229      POPC     C32      CTL2    -0.220000       12.0110           0
     26815 MEMB     229      POPC     H2X      HAL2     0.900000E-01   1.00800           0
     26816 MEMB     229      POPC     H2Y      HAL2     0.900000E-01   1.00800           0
     26817 MEMB     229      POPC     C23      CTL2    -0.180000       12.0110           0
     26818 MEMB     229      POPC     H3R      HAL2     0.900000E-01   1.00800           0
     26819 MEMB     229      POPC     H3S      HAL2     0.900000E-01   1.00800           0
     26820 MEMB     229      POPC     C24      CTL2    -0.180000       12.0110           0
     26821 MEMB     229      POPC     H4R      HAL2     0.900000E-01   1.00800           0
     26822 MEMB     229      POPC     H4S      HAL2     0.900000E-01   1.00800           0
     26823 MEMB     229      POPC     C25      CTL2    -0.180000       12.0110           0
     26824 MEMB     229      POPC     H5R      HAL2     0.900000E-01   1.00800           0
     26825 MEMB     229      POPC     H5S      HAL2     0.900000E-01   1.00800           0
     26826 MEMB     229      POPC     C26      CTL2    -0.180000       12.0110           0
     26827 MEMB     229      POPC     H6R      HAL2     0.900000E-01   1.00800           0
     26828 MEMB     229      POPC     H6S      HAL2     0.900000E-01   1.00800           0
     26829 MEMB     229      POPC     C27      CTL2    -0.180000       12.0110           0
     26830 MEMB     229      POPC     H7R      HAL2     0.900000E-01   1.00800           0
     26831 MEMB     229      POPC     H7S      HAL2     0.900000E-01   1.00800           0
     26832 MEMB     229      POPC     C28      CTL2    -0.180000       12.0110           0
     26833 MEMB     229      POPC     H8R      HAL2     0.900000E-01   1.00800           0
     26834 MEMB     229      POPC     H8S      HAL2     0.900000E-01   1.00800           0
     26835 MEMB     229      POPC     C29      CEL1    -0.150000       12.0110           0
     26836 MEMB     229      POPC     H91      HEL1     0.150000       1.00800           0
     26837 MEMB     229      POPC     C210     CEL1    -0.150000       12.0110           0
     26838 MEMB     229      POPC     H101     HEL1     0.150000       1.00800           0
     26839 MEMB     229      POPC     C211     CTL2    -0.180000       12.0110           0
     26840 MEMB     229      POPC     H11R     HAL2     0.900000E-01   1.00800           0
     26841 MEMB     229      POPC     H11S     HAL2     0.900000E-01   1.00800           0
     26842 MEMB     229      POPC     C212     CTL2    -0.180000       12.0110           0
     26843 MEMB     229      POPC     H12R     HAL2     0.900000E-01   1.00800           0
     26844 MEMB     229      POPC     H12S     HAL2     0.900000E-01   1.00800           0
     26845 MEMB     229      POPC     C213     CTL2    -0.180000       12.0110           0
     26846 MEMB     229      POPC     H13R     HAL2     0.900000E-01   1.00800           0
     26847 MEMB     229      POPC     H13S     HAL2     0.900000E-01   1.00800           0
     26848 MEMB     229      POPC     C214     CTL2    -0.180000       12.0110           0
     26849 MEMB     229      POPC     H14R     HAL2     0.900000E-01   1.00800           0
     26850 MEMB     229      POPC     H14S     HAL2     0.900000E-01   1.00800           0
     26851 MEMB     229      POPC     C215     CTL2    -0.180000       12.0110           0
     26852 MEMB     229      POPC     H15R     HAL2     0.900000E-01   1.00800           0
     26853 MEMB     229      POPC     H15S     HAL2     0.900000E-01   1.00800           0
     26854 MEMB     229      POPC     C216     CTL2    -0.180000       12.0110           0
     26855 MEMB     229      POPC     H16R     HAL2     0.900000E-01   1.00800           0
     26856 MEMB     229      POPC     H16S     HAL2     0.900000E-01   1.00800           0
     26857 MEMB     229      POPC     C217     CTL2    -0.180000       12.0110           0
     26858 MEMB     229      POPC     H17R     HAL2     0.900000E-01   1.00800           0
     26859 MEMB     229      POPC     H17S     HAL2     0.900000E-01   1.00800           0
     26860 MEMB     229      POPC     C218     CTL3    -0.270000       12.0110           0
     26861 MEMB     229      POPC     H18R     HAL3     0.900000E-01   1.00800           0
     26862 MEMB     229      POPC     H18S     HAL3     0.900000E-01   1.00800           0
     26863 MEMB     229      POPC     H18T     HAL3     0.900000E-01   1.00800           0
     26864 MEMB     229      POPC     C33      CTL2    -0.180000       12.0110           0
     26865 MEMB     229      POPC     H3X      HAL2     0.900000E-01   1.00800           0
     26866 MEMB     229      POPC     H3Y      HAL2     0.900000E-01   1.00800           0
     26867 MEMB     229      POPC     C34      CTL2    -0.180000       12.0110           0
     26868 MEMB     229      POPC     H4X      HAL2     0.900000E-01   1.00800           0
     26869 MEMB     229      POPC     H4Y      HAL2     0.900000E-01   1.00800           0
     26870 MEMB     229      POPC     C35      CTL2    -0.180000       12.0110           0
     26871 MEMB     229      POPC     H5X      HAL2     0.900000E-01   1.00800           0
     26872 MEMB     229      POPC     H5Y      HAL2     0.900000E-01   1.00800           0
     26873 MEMB     229      POPC     C36      CTL2    -0.180000       12.0110           0
     26874 MEMB     229      POPC     H6X      HAL2     0.900000E-01   1.00800           0
     26875 MEMB     229      POPC     H6Y      HAL2     0.900000E-01   1.00800           0
     26876 MEMB     229      POPC     C37      CTL2    -0.180000       12.0110           0
     26877 MEMB     229      POPC     H7X      HAL2     0.900000E-01   1.00800           0
     26878 MEMB     229      POPC     H7Y      HAL2     0.900000E-01   1.00800           0
     26879 MEMB     229      POPC     C38      CTL2    -0.180000       12.0110           0
     26880 MEMB     229      POPC     H8X      HAL2     0.900000E-01   1.00800           0
     26881 MEMB     229      POPC     H8Y      HAL2     0.900000E-01   1.00800           0
     26882 MEMB     229      POPC     C39      CTL2    -0.180000       12.0110           0
     26883 MEMB     229      POPC     H9X      HAL2     0.900000E-01   1.00800           0
     26884 MEMB     229      POPC     H9Y      HAL2     0.900000E-01   1.00800           0
     26885 MEMB     229      POPC     C310     CTL2    -0.180000       12.0110           0
     26886 MEMB     229      POPC     H10X     HAL2     0.900000E-01   1.00800           0
     26887 MEMB     229      POPC     H10Y     HAL2     0.900000E-01   1.00800           0
     26888 MEMB     229      POPC     C311     CTL2    -0.180000       12.0110           0
     26889 MEMB     229      POPC     H11X     HAL2     0.900000E-01   1.00800           0
     26890 MEMB     229      POPC     H11Y     HAL2     0.900000E-01   1.00800           0
     26891 MEMB     229      POPC     C312     CTL2    -0.180000       12.0110           0
     26892 MEMB     229      POPC     H12X     HAL2     0.900000E-01   1.00800           0
     26893 MEMB     229      POPC     H12Y     HAL2     0.900000E-01   1.00800           0
     26894 MEMB     229      POPC     C313     CTL2    -0.180000       12.0110           0
     26895 MEMB     229      POPC     H13X     HAL2     0.900000E-01   1.00800           0
     26896 MEMB     229      POPC     H13Y     HAL2     0.900000E-01   1.00800           0
     26897 MEMB     229      POPC     C314     CTL2    -0.180000       12.0110           0
     26898 MEMB     229      POPC     H14X     HAL2     0.900000E-01   1.00800           0
     26899 MEMB     229      POPC     H14Y     HAL2     0.900000E-01   1.00800           0
     26900 MEMB     229      POPC     C315     CTL2    -0.180000       12.0110           0
     26901 MEMB     229      POPC     H15X     HAL2     0.900000E-01   1.00800           0
     26902 MEMB     229      POPC     H15Y     HAL2     0.900000E-01   1.00800           0
     26903 MEMB     229      POPC     C316     CTL3    -0.270000       12.0110           0
     26904 MEMB     229      POPC     H16X     HAL3     0.900000E-01   1.00800           0
     26905 MEMB     229      POPC     H16Y     HAL3     0.900000E-01   1.00800           0
     26906 MEMB     229      POPC     H16Z     HAL3     0.900000E-01   1.00800           0
     26907 MEMB     230      POPC     N        NTL     -0.600000       14.0070           0
     26908 MEMB     230      POPC     C12      CTL2    -0.100000       12.0110           0
     26909 MEMB     230      POPC     H12A     HL       0.250000       1.00800           0
     26910 MEMB     230      POPC     H12B     HL       0.250000       1.00800           0
     26911 MEMB     230      POPC     C13      CTL5    -0.350000       12.0110           0
     26912 MEMB     230      POPC     H13A     HL       0.250000       1.00800           0
     26913 MEMB     230      POPC     H13B     HL       0.250000       1.00800           0
     26914 MEMB     230      POPC     H13C     HL       0.250000       1.00800           0
     26915 MEMB     230      POPC     C14      CTL5    -0.350000       12.0110           0
     26916 MEMB     230      POPC     H14A     HL       0.250000       1.00800           0
     26917 MEMB     230      POPC     H14B     HL       0.250000       1.00800           0
     26918 MEMB     230      POPC     H14C     HL       0.250000       1.00800           0
     26919 MEMB     230      POPC     C15      CTL5    -0.350000       12.0110           0
     26920 MEMB     230      POPC     H15A     HL       0.250000       1.00800           0
     26921 MEMB     230      POPC     H15B     HL       0.250000       1.00800           0
     26922 MEMB     230      POPC     H15C     HL       0.250000       1.00800           0
     26923 MEMB     230      POPC     C11      CTL2    -0.800000E-01   12.0110           0
     26924 MEMB     230      POPC     H11A     HAL2     0.900000E-01   1.00800           0
     26925 MEMB     230      POPC     H11B     HAL2     0.900000E-01   1.00800           0
     26926 MEMB     230      POPC     P        PL        1.50000       30.9740           0
     26927 MEMB     230      POPC     O13      O2L     -0.780000       15.9994           0
     26928 MEMB     230      POPC     O14      O2L     -0.780000       15.9994           0
     26929 MEMB     230      POPC     O12      OSLP    -0.570000       15.9994           0
     26930 MEMB     230      POPC     O11      OSLP    -0.570000       15.9994           0
     26931 MEMB     230      POPC     C1       CTL2    -0.800000E-01   12.0110           0
     26932 MEMB     230      POPC     HA       HAL2     0.900000E-01   1.00800           0
     26933 MEMB     230      POPC     HB       HAL2     0.900000E-01   1.00800           0
     26934 MEMB     230      POPC     C2       CTL1     0.170000       12.0110           0
     26935 MEMB     230      POPC     HS       HAL1     0.900000E-01   1.00800           0
     26936 MEMB     230      POPC     O21      OSL     -0.490000       15.9994           0
     26937 MEMB     230      POPC     C21      CL       0.900000       12.0110           0
     26938 MEMB     230      POPC     O22      OBL     -0.630000       15.9994           0
     26939 MEMB     230      POPC     C22      CTL2    -0.220000       12.0110           0
     26940 MEMB     230      POPC     H2R      HAL2     0.900000E-01   1.00800           0
     26941 MEMB     230      POPC     H2S      HAL2     0.900000E-01   1.00800           0
     26942 MEMB     230      POPC     C3       CTL2     0.800000E-01   12.0110           0
     26943 MEMB     230      POPC     HX       HAL2     0.900000E-01   1.00800           0
     26944 MEMB     230      POPC     HY       HAL2     0.900000E-01   1.00800           0
     26945 MEMB     230      POPC     O31      OSL     -0.490000       15.9994           0
     26946 MEMB     230      POPC     C31      CL       0.900000       12.0110           0
     26947 MEMB     230      POPC     O32      OBL     -0.630000       15.9994           0
     26948 MEMB     230      POPC     C32      CTL2    -0.220000       12.0110           0
     26949 MEMB     230      POPC     H2X      HAL2     0.900000E-01   1.00800           0
     26950 MEMB     230      POPC     H2Y      HAL2     0.900000E-01   1.00800           0
     26951 MEMB     230      POPC     C23      CTL2    -0.180000       12.0110           0
     26952 MEMB     230      POPC     H3R      HAL2     0.900000E-01   1.00800           0
     26953 MEMB     230      POPC     H3S      HAL2     0.900000E-01   1.00800           0
     26954 MEMB     230      POPC     C24      CTL2    -0.180000       12.0110           0
     26955 MEMB     230      POPC     H4R      HAL2     0.900000E-01   1.00800           0
     26956 MEMB     230      POPC     H4S      HAL2     0.900000E-01   1.00800           0
     26957 MEMB     230      POPC     C25      CTL2    -0.180000       12.0110           0
     26958 MEMB     230      POPC     H5R      HAL2     0.900000E-01   1.00800           0
     26959 MEMB     230      POPC     H5S      HAL2     0.900000E-01   1.00800           0
     26960 MEMB     230      POPC     C26      CTL2    -0.180000       12.0110           0
     26961 MEMB     230      POPC     H6R      HAL2     0.900000E-01   1.00800           0
     26962 MEMB     230      POPC     H6S      HAL2     0.900000E-01   1.00800           0
     26963 MEMB     230      POPC     C27      CTL2    -0.180000       12.0110           0
     26964 MEMB     230      POPC     H7R      HAL2     0.900000E-01   1.00800           0
     26965 MEMB     230      POPC     H7S      HAL2     0.900000E-01   1.00800           0
     26966 MEMB     230      POPC     C28      CTL2    -0.180000       12.0110           0
     26967 MEMB     230      POPC     H8R      HAL2     0.900000E-01   1.00800           0
     26968 MEMB     230      POPC     H8S      HAL2     0.900000E-01   1.00800           0
     26969 MEMB     230      POPC     C29      CEL1    -0.150000       12.0110           0
     26970 MEMB     230      POPC     H91      HEL1     0.150000       1.00800           0
     26971 MEMB     230      POPC     C210     CEL1    -0.150000       12.0110           0
     26972 MEMB     230      POPC     H101     HEL1     0.150000       1.00800           0
     26973 MEMB     230      POPC     C211     CTL2    -0.180000       12.0110           0
     26974 MEMB     230      POPC     H11R     HAL2     0.900000E-01   1.00800           0
     26975 MEMB     230      POPC     H11S     HAL2     0.900000E-01   1.00800           0
     26976 MEMB     230      POPC     C212     CTL2    -0.180000       12.0110           0
     26977 MEMB     230      POPC     H12R     HAL2     0.900000E-01   1.00800           0
     26978 MEMB     230      POPC     H12S     HAL2     0.900000E-01   1.00800           0
     26979 MEMB     230      POPC     C213     CTL2    -0.180000       12.0110           0
     26980 MEMB     230      POPC     H13R     HAL2     0.900000E-01   1.00800           0
     26981 MEMB     230      POPC     H13S     HAL2     0.900000E-01   1.00800           0
     26982 MEMB     230      POPC     C214     CTL2    -0.180000       12.0110           0
     26983 MEMB     230      POPC     H14R     HAL2     0.900000E-01   1.00800           0
     26984 MEMB     230      POPC     H14S     HAL2     0.900000E-01   1.00800           0
     26985 MEMB     230      POPC     C215     CTL2    -0.180000       12.0110           0
     26986 MEMB     230      POPC     H15R     HAL2     0.900000E-01   1.00800           0
     26987 MEMB     230      POPC     H15S     HAL2     0.900000E-01   1.00800           0
     26988 MEMB     230      POPC     C216     CTL2    -0.180000       12.0110           0
     26989 MEMB     230      POPC     H16R     HAL2     0.900000E-01   1.00800           0
     26990 MEMB     230      POPC     H16S     HAL2     0.900000E-01   1.00800           0
     26991 MEMB     230      POPC     C217     CTL2    -0.180000       12.0110           0
     26992 MEMB     230      POPC     H17R     HAL2     0.900000E-01   1.00800           0
     26993 MEMB     230      POPC     H17S     HAL2     0.900000E-01   1.00800           0
     26994 MEMB     230      POPC     C218     CTL3    -0.270000       12.0110           0
     26995 MEMB     230      POPC     H18R     HAL3     0.900000E-01   1.00800           0
     26996 MEMB     230      POPC     H18S     HAL3     0.900000E-01   1.00800           0
     26997 MEMB     230      POPC     H18T     HAL3     0.900000E-01   1.00800           0
     26998 MEMB     230      POPC     C33      CTL2    -0.180000       12.0110           0
     26999 MEMB     230      POPC     H3X      HAL2     0.900000E-01   1.00800           0
     27000 MEMB     230      POPC     H3Y      HAL2     0.900000E-01   1.00800           0
     27001 MEMB     230      POPC     C34      CTL2    -0.180000       12.0110           0
     27002 MEMB     230      POPC     H4X      HAL2     0.900000E-01   1.00800           0
     27003 MEMB     230      POPC     H4Y      HAL2     0.900000E-01   1.00800           0
     27004 MEMB     230      POPC     C35      CTL2    -0.180000       12.0110           0
     27005 MEMB     230      POPC     H5X      HAL2     0.900000E-01   1.00800           0
     27006 MEMB     230      POPC     H5Y      HAL2     0.900000E-01   1.00800           0
     27007 MEMB     230      POPC     C36      CTL2    -0.180000       12.0110           0
     27008 MEMB     230      POPC     H6X      HAL2     0.900000E-01   1.00800           0
     27009 MEMB     230      POPC     H6Y      HAL2     0.900000E-01   1.00800           0
     27010 MEMB     230      POPC     C37      CTL2    -0.180000       12.0110           0
     27011 MEMB     230      POPC     H7X      HAL2     0.900000E-01   1.00800           0
     27012 MEMB     230      POPC     H7Y      HAL2     0.900000E-01   1.00800           0
     27013 MEMB     230      POPC     C38      CTL2    -0.180000       12.0110           0
     27014 MEMB     230      POPC     H8X      HAL2     0.900000E-01   1.00800           0
     27015 MEMB     230      POPC     H8Y      HAL2     0.900000E-01   1.00800           0
     27016 MEMB     230      POPC     C39      CTL2    -0.180000       12.0110           0
     27017 MEMB     230      POPC     H9X      HAL2     0.900000E-01   1.00800           0
     27018 MEMB     230      POPC     H9Y      HAL2     0.900000E-01   1.00800           0
     27019 MEMB     230      POPC     C310     CTL2    -0.180000       12.0110           0
     27020 MEMB     230      POPC     H10X     HAL2     0.900000E-01   1.00800           0
     27021 MEMB     230      POPC     H10Y     HAL2     0.900000E-01   1.00800           0
     27022 MEMB     230      POPC     C311     CTL2    -0.180000       12.0110           0
     27023 MEMB     230      POPC     H11X     HAL2     0.900000E-01   1.00800           0
     27024 MEMB     230      POPC     H11Y     HAL2     0.900000E-01   1.00800           0
     27025 MEMB     230      POPC     C312     CTL2    -0.180000       12.0110           0
     27026 MEMB     230      POPC     H12X     HAL2     0.900000E-01   1.00800           0
     27027 MEMB     230      POPC     H12Y     HAL2     0.900000E-01   1.00800           0
     27028 MEMB     230      POPC     C313     CTL2    -0.180000       12.0110           0
     27029 MEMB     230      POPC     H13X     HAL2     0.900000E-01   1.00800           0
     27030 MEMB     230      POPC     H13Y     HAL2     0.900000E-01   1.00800           0
     27031 MEMB     230      POPC     C314     CTL2    -0.180000       12.0110           0
     27032 MEMB     230      POPC     H14X     HAL2     0.900000E-01   1.00800           0
     27033 MEMB     230      POPC     H14Y     HAL2     0.900000E-01   1.00800           0
     27034 MEMB     230      POPC     C315     CTL2    -0.180000       12.0110           0
     27035 MEMB     230      POPC     H15X     HAL2     0.900000E-01   1.00800           0
     27036 MEMB     230      POPC     H15Y     HAL2     0.900000E-01   1.00800           0
     27037 MEMB     230      POPC     C316     CTL3    -0.270000       12.0110           0
     27038 MEMB     230      POPC     H16X     HAL3     0.900000E-01   1.00800           0
     27039 MEMB     230      POPC     H16Y     HAL3     0.900000E-01   1.00800           0
     27040 MEMB     230      POPC     H16Z     HAL3     0.900000E-01   1.00800           0
     27041 MEMB     231      POPC     N        NTL     -0.600000       14.0070           0
     27042 MEMB     231      POPC     C12      CTL2    -0.100000       12.0110           0
     27043 MEMB     231      POPC     H12A     HL       0.250000       1.00800           0
     27044 MEMB     231      POPC     H12B     HL       0.250000       1.00800           0
     27045 MEMB     231      POPC     C13      CTL5    -0.350000       12.0110           0
     27046 MEMB     231      POPC     H13A     HL       0.250000       1.00800           0
     27047 MEMB     231      POPC     H13B     HL       0.250000       1.00800           0
     27048 MEMB     231      POPC     H13C     HL       0.250000       1.00800           0
     27049 MEMB     231      POPC     C14      CTL5    -0.350000       12.0110           0
     27050 MEMB     231      POPC     H14A     HL       0.250000       1.00800           0
     27051 MEMB     231      POPC     H14B     HL       0.250000       1.00800           0
     27052 MEMB     231      POPC     H14C     HL       0.250000       1.00800           0
     27053 MEMB     231      POPC     C15      CTL5    -0.350000       12.0110           0
     27054 MEMB     231      POPC     H15A     HL       0.250000       1.00800           0
     27055 MEMB     231      POPC     H15B     HL       0.250000       1.00800           0
     27056 MEMB     231      POPC     H15C     HL       0.250000       1.00800           0
     27057 MEMB     231      POPC     C11      CTL2    -0.800000E-01   12.0110           0
     27058 MEMB     231      POPC     H11A     HAL2     0.900000E-01   1.00800           0
     27059 MEMB     231      POPC     H11B     HAL2     0.900000E-01   1.00800           0
     27060 MEMB     231      POPC     P        PL        1.50000       30.9740           0
     27061 MEMB     231      POPC     O13      O2L     -0.780000       15.9994           0
     27062 MEMB     231      POPC     O14      O2L     -0.780000       15.9994           0
     27063 MEMB     231      POPC     O12      OSLP    -0.570000       15.9994           0
     27064 MEMB     231      POPC     O11      OSLP    -0.570000       15.9994           0
     27065 MEMB     231      POPC     C1       CTL2    -0.800000E-01   12.0110           0
     27066 MEMB     231      POPC     HA       HAL2     0.900000E-01   1.00800           0
     27067 MEMB     231      POPC     HB       HAL2     0.900000E-01   1.00800           0
     27068 MEMB     231      POPC     C2       CTL1     0.170000       12.0110           0
     27069 MEMB     231      POPC     HS       HAL1     0.900000E-01   1.00800           0
     27070 MEMB     231      POPC     O21      OSL     -0.490000       15.9994           0
     27071 MEMB     231      POPC     C21      CL       0.900000       12.0110           0
     27072 MEMB     231      POPC     O22      OBL     -0.630000       15.9994           0
     27073 MEMB     231      POPC     C22      CTL2    -0.220000       12.0110           0
     27074 MEMB     231      POPC     H2R      HAL2     0.900000E-01   1.00800           0
     27075 MEMB     231      POPC     H2S      HAL2     0.900000E-01   1.00800           0
     27076 MEMB     231      POPC     C3       CTL2     0.800000E-01   12.0110           0
     27077 MEMB     231      POPC     HX       HAL2     0.900000E-01   1.00800           0
     27078 MEMB     231      POPC     HY       HAL2     0.900000E-01   1.00800           0
     27079 MEMB     231      POPC     O31      OSL     -0.490000       15.9994           0
     27080 MEMB     231      POPC     C31      CL       0.900000       12.0110           0
     27081 MEMB     231      POPC     O32      OBL     -0.630000       15.9994           0
     27082 MEMB     231      POPC     C32      CTL2    -0.220000       12.0110           0
     27083 MEMB     231      POPC     H2X      HAL2     0.900000E-01   1.00800           0
     27084 MEMB     231      POPC     H2Y      HAL2     0.900000E-01   1.00800           0
     27085 MEMB     231      POPC     C23      CTL2    -0.180000       12.0110           0
     27086 MEMB     231      POPC     H3R      HAL2     0.900000E-01   1.00800           0
     27087 MEMB     231      POPC     H3S      HAL2     0.900000E-01   1.00800           0
     27088 MEMB     231      POPC     C24      CTL2    -0.180000       12.0110           0
     27089 MEMB     231      POPC     H4R      HAL2     0.900000E-01   1.00800           0
     27090 MEMB     231      POPC     H4S      HAL2     0.900000E-01   1.00800           0
     27091 MEMB     231      POPC     C25      CTL2    -0.180000       12.0110           0
     27092 MEMB     231      POPC     H5R      HAL2     0.900000E-01   1.00800           0
     27093 MEMB     231      POPC     H5S      HAL2     0.900000E-01   1.00800           0
     27094 MEMB     231      POPC     C26      CTL2    -0.180000       12.0110           0
     27095 MEMB     231      POPC     H6R      HAL2     0.900000E-01   1.00800           0
     27096 MEMB     231      POPC     H6S      HAL2     0.900000E-01   1.00800           0
     27097 MEMB     231      POPC     C27      CTL2    -0.180000       12.0110           0
     27098 MEMB     231      POPC     H7R      HAL2     0.900000E-01   1.00800           0
     27099 MEMB     231      POPC     H7S      HAL2     0.900000E-01   1.00800           0
     27100 MEMB     231      POPC     C28      CTL2    -0.180000       12.0110           0
     27101 MEMB     231      POPC     H8R      HAL2     0.900000E-01   1.00800           0
     27102 MEMB     231      POPC     H8S      HAL2     0.900000E-01   1.00800           0
     27103 MEMB     231      POPC     C29      CEL1    -0.150000       12.0110           0
     27104 MEMB     231      POPC     H91      HEL1     0.150000       1.00800           0
     27105 MEMB     231      POPC     C210     CEL1    -0.150000       12.0110           0
     27106 MEMB     231      POPC     H101     HEL1     0.150000       1.00800           0
     27107 MEMB     231      POPC     C211     CTL2    -0.180000       12.0110           0
     27108 MEMB     231      POPC     H11R     HAL2     0.900000E-01   1.00800           0
     27109 MEMB     231      POPC     H11S     HAL2     0.900000E-01   1.00800           0
     27110 MEMB     231      POPC     C212     CTL2    -0.180000       12.0110           0
     27111 MEMB     231      POPC     H12R     HAL2     0.900000E-01   1.00800           0
     27112 MEMB     231      POPC     H12S     HAL2     0.900000E-01   1.00800           0
     27113 MEMB     231      POPC     C213     CTL2    -0.180000       12.0110           0
     27114 MEMB     231      POPC     H13R     HAL2     0.900000E-01   1.00800           0
     27115 MEMB     231      POPC     H13S     HAL2     0.900000E-01   1.00800           0
     27116 MEMB     231      POPC     C214     CTL2    -0.180000       12.0110           0
     27117 MEMB     231      POPC     H14R     HAL2     0.900000E-01   1.00800           0
     27118 MEMB     231      POPC     H14S     HAL2     0.900000E-01   1.00800           0
     27119 MEMB     231      POPC     C215     CTL2    -0.180000       12.0110           0
     27120 MEMB     231      POPC     H15R     HAL2     0.900000E-01   1.00800           0
     27121 MEMB     231      POPC     H15S     HAL2     0.900000E-01   1.00800           0
     27122 MEMB     231      POPC     C216     CTL2    -0.180000       12.0110           0
     27123 MEMB     231      POPC     H16R     HAL2     0.900000E-01   1.00800           0
     27124 MEMB     231      POPC     H16S     HAL2     0.900000E-01   1.00800           0
     27125 MEMB     231      POPC     C217     CTL2    -0.180000       12.0110           0
     27126 MEMB     231      POPC     H17R     HAL2     0.900000E-01   1.00800           0
     27127 MEMB     231      POPC     H17S     HAL2     0.900000E-01   1.00800           0
     27128 MEMB     231      POPC     C218     CTL3    -0.270000       12.0110           0
     27129 MEMB     231      POPC     H18R     HAL3     0.900000E-01   1.00800           0
     27130 MEMB     231      POPC     H18S     HAL3     0.900000E-01   1.00800           0
     27131 MEMB     231      POPC     H18T     HAL3     0.900000E-01   1.00800           0
     27132 MEMB     231      POPC     C33      CTL2    -0.180000       12.0110           0
     27133 MEMB     231      POPC     H3X      HAL2     0.900000E-01   1.00800           0
     27134 MEMB     231      POPC     H3Y      HAL2     0.900000E-01   1.00800           0
     27135 MEMB     231      POPC     C34      CTL2    -0.180000       12.0110           0
     27136 MEMB     231      POPC     H4X      HAL2     0.900000E-01   1.00800           0
     27137 MEMB     231      POPC     H4Y      HAL2     0.900000E-01   1.00800           0
     27138 MEMB     231      POPC     C35      CTL2    -0.180000       12.0110           0
     27139 MEMB     231      POPC     H5X      HAL2     0.900000E-01   1.00800           0
     27140 MEMB     231      POPC     H5Y      HAL2     0.900000E-01   1.00800           0
     27141 MEMB     231      POPC     C36      CTL2    -0.180000       12.0110           0
     27142 MEMB     231      POPC     H6X      HAL2     0.900000E-01   1.00800           0
     27143 MEMB     231      POPC     H6Y      HAL2     0.900000E-01   1.00800           0
     27144 MEMB     231      POPC     C37      CTL2    -0.180000       12.0110           0
     27145 MEMB     231      POPC     H7X      HAL2     0.900000E-01   1.00800           0
     27146 MEMB     231      POPC     H7Y      HAL2     0.900000E-01   1.00800           0
     27147 MEMB     231      POPC     C38      CTL2    -0.180000       12.0110           0
     27148 MEMB     231      POPC     H8X      HAL2     0.900000E-01   1.00800           0
     27149 MEMB     231      POPC     H8Y      HAL2     0.900000E-01   1.00800           0
     27150 MEMB     231      POPC     C39      CTL2    -0.180000       12.0110           0
     27151 MEMB     231      POPC     H9X      HAL2     0.900000E-01   1.00800           0
     27152 MEMB     231      POPC     H9Y      HAL2     0.900000E-01   1.00800           0
     27153 MEMB     231      POPC     C310     CTL2    -0.180000       12.0110           0
     27154 MEMB     231      POPC     H10X     HAL2     0.900000E-01   1.00800           0
     27155 MEMB     231      POPC     H10Y     HAL2     0.900000E-01   1.00800           0
     27156 MEMB     231      POPC     C311     CTL2    -0.180000       12.0110           0
     27157 MEMB     231      POPC     H11X     HAL2     0.900000E-01   1.00800           0
     27158 MEMB     231      POPC     H11Y     HAL2     0.900000E-01   1.00800           0
     27159 MEMB     231      POPC     C312     CTL2    -0.180000       12.0110           0
     27160 MEMB     231      POPC     H12X     HAL2     0.900000E-01   1.00800           0
     27161 MEMB     231      POPC     H12Y     HAL2     0.900000E-01   1.00800           0
     27162 MEMB     231      POPC     C313     CTL2    -0.180000       12.0110           0
     27163 MEMB     231      POPC     H13X     HAL2     0.900000E-01   1.00800           0
     27164 MEMB     231      POPC     H13Y     HAL2     0.900000E-01   1.00800           0
     27165 MEMB     231      POPC     C314     CTL2    -0.180000       12.0110           0
     27166 MEMB     231      POPC     H14X     HAL2     0.900000E-01   1.00800           0
     27167 MEMB     231      POPC     H14Y     HAL2     0.900000E-01   1.00800           0
     27168 MEMB     231      POPC     C315     CTL2    -0.180000       12.0110           0
     27169 MEMB     231      POPC     H15X     HAL2     0.900000E-01   1.00800           0
     27170 MEMB     231      POPC     H15Y     HAL2     0.900000E-01   1.00800           0
     27171 MEMB     231      POPC     C316     CTL3    -0.270000       12.0110           0
     27172 MEMB     231      POPC     H16X     HAL3     0.900000E-01   1.00800           0
     27173 MEMB     231      POPC     H16Y     HAL3     0.900000E-01   1.00800           0
     27174 MEMB     231      POPC     H16Z     HAL3     0.900000E-01   1.00800           0
     27175 MEMB     232      POPC     N        NTL     -0.600000       14.0070           0
     27176 MEMB     232      POPC     C12      CTL2    -0.100000       12.0110           0
     27177 MEMB     232      POPC     H12A     HL       0.250000       1.00800           0
     27178 MEMB     232      POPC     H12B     HL       0.250000       1.00800           0
     27179 MEMB     232      POPC     C13      CTL5    -0.350000       12.0110           0
     27180 MEMB     232      POPC     H13A     HL       0.250000       1.00800           0
     27181 MEMB     232      POPC     H13B     HL       0.250000       1.00800           0
     27182 MEMB     232      POPC     H13C     HL       0.250000       1.00800           0
     27183 MEMB     232      POPC     C14      CTL5    -0.350000       12.0110           0
     27184 MEMB     232      POPC     H14A     HL       0.250000       1.00800           0
     27185 MEMB     232      POPC     H14B     HL       0.250000       1.00800           0
     27186 MEMB     232      POPC     H14C     HL       0.250000       1.00800           0
     27187 MEMB     232      POPC     C15      CTL5    -0.350000       12.0110           0
     27188 MEMB     232      POPC     H15A     HL       0.250000       1.00800           0
     27189 MEMB     232      POPC     H15B     HL       0.250000       1.00800           0
     27190 MEMB     232      POPC     H15C     HL       0.250000       1.00800           0
     27191 MEMB     232      POPC     C11      CTL2    -0.800000E-01   12.0110           0
     27192 MEMB     232      POPC     H11A     HAL2     0.900000E-01   1.00800           0
     27193 MEMB     232      POPC     H11B     HAL2     0.900000E-01   1.00800           0
     27194 MEMB     232      POPC     P        PL        1.50000       30.9740           0
     27195 MEMB     232      POPC     O13      O2L     -0.780000       15.9994           0
     27196 MEMB     232      POPC     O14      O2L     -0.780000       15.9994           0
     27197 MEMB     232      POPC     O12      OSLP    -0.570000       15.9994           0
     27198 MEMB     232      POPC     O11      OSLP    -0.570000       15.9994           0
     27199 MEMB     232      POPC     C1       CTL2    -0.800000E-01   12.0110           0
     27200 MEMB     232      POPC     HA       HAL2     0.900000E-01   1.00800           0
     27201 MEMB     232      POPC     HB       HAL2     0.900000E-01   1.00800           0
     27202 MEMB     232      POPC     C2       CTL1     0.170000       12.0110           0
     27203 MEMB     232      POPC     HS       HAL1     0.900000E-01   1.00800           0
     27204 MEMB     232      POPC     O21      OSL     -0.490000       15.9994           0
     27205 MEMB     232      POPC     C21      CL       0.900000       12.0110           0
     27206 MEMB     232      POPC     O22      OBL     -0.630000       15.9994           0
     27207 MEMB     232      POPC     C22      CTL2    -0.220000       12.0110           0
     27208 MEMB     232      POPC     H2R      HAL2     0.900000E-01   1.00800           0
     27209 MEMB     232      POPC     H2S      HAL2     0.900000E-01   1.00800           0
     27210 MEMB     232      POPC     C3       CTL2     0.800000E-01   12.0110           0
     27211 MEMB     232      POPC     HX       HAL2     0.900000E-01   1.00800           0
     27212 MEMB     232      POPC     HY       HAL2     0.900000E-01   1.00800           0
     27213 MEMB     232      POPC     O31      OSL     -0.490000       15.9994           0
     27214 MEMB     232      POPC     C31      CL       0.900000       12.0110           0
     27215 MEMB     232      POPC     O32      OBL     -0.630000       15.9994           0
     27216 MEMB     232      POPC     C32      CTL2    -0.220000       12.0110           0
     27217 MEMB     232      POPC     H2X      HAL2     0.900000E-01   1.00800           0
     27218 MEMB     232      POPC     H2Y      HAL2     0.900000E-01   1.00800           0
     27219 MEMB     232      POPC     C23      CTL2    -0.180000       12.0110           0
     27220 MEMB     232      POPC     H3R      HAL2     0.900000E-01   1.00800           0
     27221 MEMB     232      POPC     H3S      HAL2     0.900000E-01   1.00800           0
     27222 MEMB     232      POPC     C24      CTL2    -0.180000       12.0110           0
     27223 MEMB     232      POPC     H4R      HAL2     0.900000E-01   1.00800           0
     27224 MEMB     232      POPC     H4S      HAL2     0.900000E-01   1.00800           0
     27225 MEMB     232      POPC     C25      CTL2    -0.180000       12.0110           0
     27226 MEMB     232      POPC     H5R      HAL2     0.900000E-01   1.00800           0
     27227 MEMB     232      POPC     H5S      HAL2     0.900000E-01   1.00800           0
     27228 MEMB     232      POPC     C26      CTL2    -0.180000       12.0110           0
     27229 MEMB     232      POPC     H6R      HAL2     0.900000E-01   1.00800           0
     27230 MEMB     232      POPC     H6S      HAL2     0.900000E-01   1.00800           0
     27231 MEMB     232      POPC     C27      CTL2    -0.180000       12.0110           0
     27232 MEMB     232      POPC     H7R      HAL2     0.900000E-01   1.00800           0
     27233 MEMB     232      POPC     H7S      HAL2     0.900000E-01   1.00800           0
     27234 MEMB     232      POPC     C28      CTL2    -0.180000       12.0110           0
     27235 MEMB     232      POPC     H8R      HAL2     0.900000E-01   1.00800           0
     27236 MEMB     232      POPC     H8S      HAL2     0.900000E-01   1.00800           0
     27237 MEMB     232      POPC     C29      CEL1    -0.150000       12.0110           0
     27238 MEMB     232      POPC     H91      HEL1     0.150000       1.00800           0
     27239 MEMB     232      POPC     C210     CEL1    -0.150000       12.0110           0
     27240 MEMB     232      POPC     H101     HEL1     0.150000       1.00800           0
     27241 MEMB     232      POPC     C211     CTL2    -0.180000       12.0110           0
     27242 MEMB     232      POPC     H11R     HAL2     0.900000E-01   1.00800           0
     27243 MEMB     232      POPC     H11S     HAL2     0.900000E-01   1.00800           0
     27244 MEMB     232      POPC     C212     CTL2    -0.180000       12.0110           0
     27245 MEMB     232      POPC     H12R     HAL2     0.900000E-01   1.00800           0
     27246 MEMB     232      POPC     H12S     HAL2     0.900000E-01   1.00800           0
     27247 MEMB     232      POPC     C213     CTL2    -0.180000       12.0110           0
     27248 MEMB     232      POPC     H13R     HAL2     0.900000E-01   1.00800           0
     27249 MEMB     232      POPC     H13S     HAL2     0.900000E-01   1.00800           0
     27250 MEMB     232      POPC     C214     CTL2    -0.180000       12.0110           0
     27251 MEMB     232      POPC     H14R     HAL2     0.900000E-01   1.00800           0
     27252 MEMB     232      POPC     H14S     HAL2     0.900000E-01   1.00800           0
     27253 MEMB     232      POPC     C215     CTL2    -0.180000       12.0110           0
     27254 MEMB     232      POPC     H15R     HAL2     0.900000E-01   1.00800           0
     27255 MEMB     232      POPC     H15S     HAL2     0.900000E-01   1.00800           0
     27256 MEMB     232      POPC     C216     CTL2    -0.180000       12.0110           0
     27257 MEMB     232      POPC     H16R     HAL2     0.900000E-01   1.00800           0
     27258 MEMB     232      POPC     H16S     HAL2     0.900000E-01   1.00800           0
     27259 MEMB     232      POPC     C217     CTL2    -0.180000       12.0110           0
     27260 MEMB     232      POPC     H17R     HAL2     0.900000E-01   1.00800           0
     27261 MEMB     232      POPC     H17S     HAL2     0.900000E-01   1.00800           0
     27262 MEMB     232      POPC     C218     CTL3    -0.270000       12.0110           0
     27263 MEMB     232      POPC     H18R     HAL3     0.900000E-01   1.00800           0
     27264 MEMB     232      POPC     H18S     HAL3     0.900000E-01   1.00800           0
     27265 MEMB     232      POPC     H18T     HAL3     0.900000E-01   1.00800           0
     27266 MEMB     232      POPC     C33      CTL2    -0.180000       12.0110           0
     27267 MEMB     232      POPC     H3X      HAL2     0.900000E-01   1.00800           0
     27268 MEMB     232      POPC     H3Y      HAL2     0.900000E-01   1.00800           0
     27269 MEMB     232      POPC     C34      CTL2    -0.180000       12.0110           0
     27270 MEMB     232      POPC     H4X      HAL2     0.900000E-01   1.00800           0
     27271 MEMB     232      POPC     H4Y      HAL2     0.900000E-01   1.00800           0
     27272 MEMB     232      POPC     C35      CTL2    -0.180000       12.0110           0
     27273 MEMB     232      POPC     H5X      HAL2     0.900000E-01   1.00800           0
     27274 MEMB     232      POPC     H5Y      HAL2     0.900000E-01   1.00800           0
     27275 MEMB     232      POPC     C36      CTL2    -0.180000       12.0110           0
     27276 MEMB     232      POPC     H6X      HAL2     0.900000E-01   1.00800           0
     27277 MEMB     232      POPC     H6Y      HAL2     0.900000E-01   1.00800           0
     27278 MEMB     232      POPC     C37      CTL2    -0.180000       12.0110           0
     27279 MEMB     232      POPC     H7X      HAL2     0.900000E-01   1.00800           0
     27280 MEMB     232      POPC     H7Y      HAL2     0.900000E-01   1.00800           0
     27281 MEMB     232      POPC     C38      CTL2    -0.180000       12.0110           0
     27282 MEMB     232      POPC     H8X      HAL2     0.900000E-01   1.00800           0
     27283 MEMB     232      POPC     H8Y      HAL2     0.900000E-01   1.00800           0
     27284 MEMB     232      POPC     C39      CTL2    -0.180000       12.0110           0
     27285 MEMB     232      POPC     H9X      HAL2     0.900000E-01   1.00800           0
     27286 MEMB     232      POPC     H9Y      HAL2     0.900000E-01   1.00800           0
     27287 MEMB     232      POPC     C310     CTL2    -0.180000       12.0110           0
     27288 MEMB     232      POPC     H10X     HAL2     0.900000E-01   1.00800           0
     27289 MEMB     232      POPC     H10Y     HAL2     0.900000E-01   1.00800           0
     27290 MEMB     232      POPC     C311     CTL2    -0.180000       12.0110           0
     27291 MEMB     232      POPC     H11X     HAL2     0.900000E-01   1.00800           0
     27292 MEMB     232      POPC     H11Y     HAL2     0.900000E-01   1.00800           0
     27293 MEMB     232      POPC     C312     CTL2    -0.180000       12.0110           0
     27294 MEMB     232      POPC     H12X     HAL2     0.900000E-01   1.00800           0
     27295 MEMB     232      POPC     H12Y     HAL2     0.900000E-01   1.00800           0
     27296 MEMB     232      POPC     C313     CTL2    -0.180000       12.0110           0
     27297 MEMB     232      POPC     H13X     HAL2     0.900000E-01   1.00800           0
     27298 MEMB     232      POPC     H13Y     HAL2     0.900000E-01   1.00800           0
     27299 MEMB     232      POPC     C314     CTL2    -0.180000       12.0110           0
     27300 MEMB     232      POPC     H14X     HAL2     0.900000E-01   1.00800           0
     27301 MEMB     232      POPC     H14Y     HAL2     0.900000E-01   1.00800           0
     27302 MEMB     232      POPC     C315     CTL2    -0.180000       12.0110           0
     27303 MEMB     232      POPC     H15X     HAL2     0.900000E-01   1.00800           0
     27304 MEMB     232      POPC     H15Y     HAL2     0.900000E-01   1.00800           0
     27305 MEMB     232      POPC     C316     CTL3    -0.270000       12.0110           0
     27306 MEMB     232      POPC     H16X     HAL3     0.900000E-01   1.00800           0
     27307 MEMB     232      POPC     H16Y     HAL3     0.900000E-01   1.00800           0
     27308 MEMB     232      POPC     H16Z     HAL3     0.900000E-01   1.00800           0
     27309 MEMB     233      POPC     N        NTL     -0.600000       14.0070           0
     27310 MEMB     233      POPC     C12      CTL2    -0.100000       12.0110           0
     27311 MEMB     233      POPC     H12A     HL       0.250000       1.00800           0
     27312 MEMB     233      POPC     H12B     HL       0.250000       1.00800           0
     27313 MEMB     233      POPC     C13      CTL5    -0.350000       12.0110           0
     27314 MEMB     233      POPC     H13A     HL       0.250000       1.00800           0
     27315 MEMB     233      POPC     H13B     HL       0.250000       1.00800           0
     27316 MEMB     233      POPC     H13C     HL       0.250000       1.00800           0
     27317 MEMB     233      POPC     C14      CTL5    -0.350000       12.0110           0
     27318 MEMB     233      POPC     H14A     HL       0.250000       1.00800           0
     27319 MEMB     233      POPC     H14B     HL       0.250000       1.00800           0
     27320 MEMB     233      POPC     H14C     HL       0.250000       1.00800           0
     27321 MEMB     233      POPC     C15      CTL5    -0.350000       12.0110           0
     27322 MEMB     233      POPC     H15A     HL       0.250000       1.00800           0
     27323 MEMB     233      POPC     H15B     HL       0.250000       1.00800           0
     27324 MEMB     233      POPC     H15C     HL       0.250000       1.00800           0
     27325 MEMB     233      POPC     C11      CTL2    -0.800000E-01   12.0110           0
     27326 MEMB     233      POPC     H11A     HAL2     0.900000E-01   1.00800           0
     27327 MEMB     233      POPC     H11B     HAL2     0.900000E-01   1.00800           0
     27328 MEMB     233      POPC     P        PL        1.50000       30.9740           0
     27329 MEMB     233      POPC     O13      O2L     -0.780000       15.9994           0
     27330 MEMB     233      POPC     O14      O2L     -0.780000       15.9994           0
     27331 MEMB     233      POPC     O12      OSLP    -0.570000       15.9994           0
     27332 MEMB     233      POPC     O11      OSLP    -0.570000       15.9994           0
     27333 MEMB     233      POPC     C1       CTL2    -0.800000E-01   12.0110           0
     27334 MEMB     233      POPC     HA       HAL2     0.900000E-01   1.00800           0
     27335 MEMB     233      POPC     HB       HAL2     0.900000E-01   1.00800           0
     27336 MEMB     233      POPC     C2       CTL1     0.170000       12.0110           0
     27337 MEMB     233      POPC     HS       HAL1     0.900000E-01   1.00800           0
     27338 MEMB     233      POPC     O21      OSL     -0.490000       15.9994           0
     27339 MEMB     233      POPC     C21      CL       0.900000       12.0110           0
     27340 MEMB     233      POPC     O22      OBL     -0.630000       15.9994           0
     27341 MEMB     233      POPC     C22      CTL2    -0.220000       12.0110           0
     27342 MEMB     233      POPC     H2R      HAL2     0.900000E-01   1.00800           0
     27343 MEMB     233      POPC     H2S      HAL2     0.900000E-01   1.00800           0
     27344 MEMB     233      POPC     C3       CTL2     0.800000E-01   12.0110           0
     27345 MEMB     233      POPC     HX       HAL2     0.900000E-01   1.00800           0
     27346 MEMB     233      POPC     HY       HAL2     0.900000E-01   1.00800           0
     27347 MEMB     233      POPC     O31      OSL     -0.490000       15.9994           0
     27348 MEMB     233      POPC     C31      CL       0.900000       12.0110           0
     27349 MEMB     233      POPC     O32      OBL     -0.630000       15.9994           0
     27350 MEMB     233      POPC     C32      CTL2    -0.220000       12.0110           0
     27351 MEMB     233      POPC     H2X      HAL2     0.900000E-01   1.00800           0
     27352 MEMB     233      POPC     H2Y      HAL2     0.900000E-01   1.00800           0
     27353 MEMB     233      POPC     C23      CTL2    -0.180000       12.0110           0
     27354 MEMB     233      POPC     H3R      HAL2     0.900000E-01   1.00800           0
     27355 MEMB     233      POPC     H3S      HAL2     0.900000E-01   1.00800           0
     27356 MEMB     233      POPC     C24      CTL2    -0.180000       12.0110           0
     27357 MEMB     233      POPC     H4R      HAL2     0.900000E-01   1.00800           0
     27358 MEMB     233      POPC     H4S      HAL2     0.900000E-01   1.00800           0
     27359 MEMB     233      POPC     C25      CTL2    -0.180000       12.0110           0
     27360 MEMB     233      POPC     H5R      HAL2     0.900000E-01   1.00800           0
     27361 MEMB     233      POPC     H5S      HAL2     0.900000E-01   1.00800           0
     27362 MEMB     233      POPC     C26      CTL2    -0.180000       12.0110           0
     27363 MEMB     233      POPC     H6R      HAL2     0.900000E-01   1.00800           0
     27364 MEMB     233      POPC     H6S      HAL2     0.900000E-01   1.00800           0
     27365 MEMB     233      POPC     C27      CTL2    -0.180000       12.0110           0
     27366 MEMB     233      POPC     H7R      HAL2     0.900000E-01   1.00800           0
     27367 MEMB     233      POPC     H7S      HAL2     0.900000E-01   1.00800           0
     27368 MEMB     233      POPC     C28      CTL2    -0.180000       12.0110           0
     27369 MEMB     233      POPC     H8R      HAL2     0.900000E-01   1.00800           0
     27370 MEMB     233      POPC     H8S      HAL2     0.900000E-01   1.00800           0
     27371 MEMB     233      POPC     C29      CEL1    -0.150000       12.0110           0
     27372 MEMB     233      POPC     H91      HEL1     0.150000       1.00800           0
     27373 MEMB     233      POPC     C210     CEL1    -0.150000       12.0110           0
     27374 MEMB     233      POPC     H101     HEL1     0.150000       1.00800           0
     27375 MEMB     233      POPC     C211     CTL2    -0.180000       12.0110           0
     27376 MEMB     233      POPC     H11R     HAL2     0.900000E-01   1.00800           0
     27377 MEMB     233      POPC     H11S     HAL2     0.900000E-01   1.00800           0
     27378 MEMB     233      POPC     C212     CTL2    -0.180000       12.0110           0
     27379 MEMB     233      POPC     H12R     HAL2     0.900000E-01   1.00800           0
     27380 MEMB     233      POPC     H12S     HAL2     0.900000E-01   1.00800           0
     27381 MEMB     233      POPC     C213     CTL2    -0.180000       12.0110           0
     27382 MEMB     233      POPC     H13R     HAL2     0.900000E-01   1.00800           0
     27383 MEMB     233      POPC     H13S     HAL2     0.900000E-01   1.00800           0
     27384 MEMB     233      POPC     C214     CTL2    -0.180000       12.0110           0
     27385 MEMB     233      POPC     H14R     HAL2     0.900000E-01   1.00800           0
     27386 MEMB     233      POPC     H14S     HAL2     0.900000E-01   1.00800           0
     27387 MEMB     233      POPC     C215     CTL2    -0.180000       12.0110           0
     27388 MEMB     233      POPC     H15R     HAL2     0.900000E-01   1.00800           0
     27389 MEMB     233      POPC     H15S     HAL2     0.900000E-01   1.00800           0
     27390 MEMB     233      POPC     C216     CTL2    -0.180000       12.0110           0
     27391 MEMB     233      POPC     H16R     HAL2     0.900000E-01   1.00800           0
     27392 MEMB     233      POPC     H16S     HAL2     0.900000E-01   1.00800           0
     27393 MEMB     233      POPC     C217     CTL2    -0.180000       12.0110           0
     27394 MEMB     233      POPC     H17R     HAL2     0.900000E-01   1.00800           0
     27395 MEMB     233      POPC     H17S     HAL2     0.900000E-01   1.00800           0
     27396 MEMB     233      POPC     C218     CTL3    -0.270000       12.0110           0
     27397 MEMB     233      POPC     H18R     HAL3     0.900000E-01   1.00800           0
     27398 MEMB     233      POPC     H18S     HAL3     0.900000E-01   1.00800           0
     27399 MEMB     233      POPC     H18T     HAL3     0.900000E-01   1.00800           0
     27400 MEMB     233      POPC     C33      CTL2    -0.180000       12.0110           0
     27401 MEMB     233      POPC     H3X      HAL2     0.900000E-01   1.00800           0
     27402 MEMB     233      POPC     H3Y      HAL2     0.900000E-01   1.00800           0
     27403 MEMB     233      POPC     C34      CTL2    -0.180000       12.0110           0
     27404 MEMB     233      POPC     H4X      HAL2     0.900000E-01   1.00800           0
     27405 MEMB     233      POPC     H4Y      HAL2     0.900000E-01   1.00800           0
     27406 MEMB     233      POPC     C35      CTL2    -0.180000       12.0110           0
     27407 MEMB     233      POPC     H5X      HAL2     0.900000E-01   1.00800           0
     27408 MEMB     233      POPC     H5Y      HAL2     0.900000E-01   1.00800           0
     27409 MEMB     233      POPC     C36      CTL2    -0.180000       12.0110           0
     27410 MEMB     233      POPC     H6X      HAL2     0.900000E-01   1.00800           0
     27411 MEMB     233      POPC     H6Y      HAL2     0.900000E-01   1.00800           0
     27412 MEMB     233      POPC     C37      CTL2    -0.180000       12.0110           0
     27413 MEMB     233      POPC     H7X      HAL2     0.900000E-01   1.00800           0
     27414 MEMB     233      POPC     H7Y      HAL2     0.900000E-01   1.00800           0
     27415 MEMB     233      POPC     C38      CTL2    -0.180000       12.0110           0
     27416 MEMB     233      POPC     H8X      HAL2     0.900000E-01   1.00800           0
     27417 MEMB     233      POPC     H8Y      HAL2     0.900000E-01   1.00800           0
     27418 MEMB     233      POPC     C39      CTL2    -0.180000       12.0110           0
     27419 MEMB     233      POPC     H9X      HAL2     0.900000E-01   1.00800           0
     27420 MEMB     233      POPC     H9Y      HAL2     0.900000E-01   1.00800           0
     27421 MEMB     233      POPC     C310     CTL2    -0.180000       12.0110           0
     27422 MEMB     233      POPC     H10X     HAL2     0.900000E-01   1.00800           0
     27423 MEMB     233      POPC     H10Y     HAL2     0.900000E-01   1.00800           0
     27424 MEMB     233      POPC     C311     CTL2    -0.180000       12.0110           0
     27425 MEMB     233      POPC     H11X     HAL2     0.900000E-01   1.00800           0
     27426 MEMB     233      POPC     H11Y     HAL2     0.900000E-01   1.00800           0
     27427 MEMB     233      POPC     C312     CTL2    -0.180000       12.0110           0
     27428 MEMB     233      POPC     H12X     HAL2     0.900000E-01   1.00800           0
     27429 MEMB     233      POPC     H12Y     HAL2     0.900000E-01   1.00800           0
     27430 MEMB     233      POPC     C313     CTL2    -0.180000       12.0110           0
     27431 MEMB     233      POPC     H13X     HAL2     0.900000E-01   1.00800           0
     27432 MEMB     233      POPC     H13Y     HAL2     0.900000E-01   1.00800           0
     27433 MEMB     233      POPC     C314     CTL2    -0.180000       12.0110           0
     27434 MEMB     233      POPC     H14X     HAL2     0.900000E-01   1.00800           0
     27435 MEMB     233      POPC     H14Y     HAL2     0.900000E-01   1.00800           0
     27436 MEMB     233      POPC     C315     CTL2    -0.180000       12.0110           0
     27437 MEMB     233      POPC     H15X     HAL2     0.900000E-01   1.00800           0
     27438 MEMB     233      POPC     H15Y     HAL2     0.900000E-01   1.00800           0
     27439 MEMB     233      POPC     C316     CTL3    -0.270000       12.0110           0
     27440 MEMB     233      POPC     H16X     HAL3     0.900000E-01   1.00800           0
     27441 MEMB     233      POPC     H16Y     HAL3     0.900000E-01   1.00800           0
     27442 MEMB     233      POPC     H16Z     HAL3     0.900000E-01   1.00800           0
     27443 MEMB     234      POPC     N        NTL     -0.600000       14.0070           0
     27444 MEMB     234      POPC     C12      CTL2    -0.100000       12.0110           0
     27445 MEMB     234      POPC     H12A     HL       0.250000       1.00800           0
     27446 MEMB     234      POPC     H12B     HL       0.250000       1.00800           0
     27447 MEMB     234      POPC     C13      CTL5    -0.350000       12.0110           0
     27448 MEMB     234      POPC     H13A     HL       0.250000       1.00800           0
     27449 MEMB     234      POPC     H13B     HL       0.250000       1.00800           0
     27450 MEMB     234      POPC     H13C     HL       0.250000       1.00800           0
     27451 MEMB     234      POPC     C14      CTL5    -0.350000       12.0110           0
     27452 MEMB     234      POPC     H14A     HL       0.250000       1.00800           0
     27453 MEMB     234      POPC     H14B     HL       0.250000       1.00800           0
     27454 MEMB     234      POPC     H14C     HL       0.250000       1.00800           0
     27455 MEMB     234      POPC     C15      CTL5    -0.350000       12.0110           0
     27456 MEMB     234      POPC     H15A     HL       0.250000       1.00800           0
     27457 MEMB     234      POPC     H15B     HL       0.250000       1.00800           0
     27458 MEMB     234      POPC     H15C     HL       0.250000       1.00800           0
     27459 MEMB     234      POPC     C11      CTL2    -0.800000E-01   12.0110           0
     27460 MEMB     234      POPC     H11A     HAL2     0.900000E-01   1.00800           0
     27461 MEMB     234      POPC     H11B     HAL2     0.900000E-01   1.00800           0
     27462 MEMB     234      POPC     P        PL        1.50000       30.9740           0
     27463 MEMB     234      POPC     O13      O2L     -0.780000       15.9994           0
     27464 MEMB     234      POPC     O14      O2L     -0.780000       15.9994           0
     27465 MEMB     234      POPC     O12      OSLP    -0.570000       15.9994           0
     27466 MEMB     234      POPC     O11      OSLP    -0.570000       15.9994           0
     27467 MEMB     234      POPC     C1       CTL2    -0.800000E-01   12.0110           0
     27468 MEMB     234      POPC     HA       HAL2     0.900000E-01   1.00800           0
     27469 MEMB     234      POPC     HB       HAL2     0.900000E-01   1.00800           0
     27470 MEMB     234      POPC     C2       CTL1     0.170000       12.0110           0
     27471 MEMB     234      POPC     HS       HAL1     0.900000E-01   1.00800           0
     27472 MEMB     234      POPC     O21      OSL     -0.490000       15.9994           0
     27473 MEMB     234      POPC     C21      CL       0.900000       12.0110           0
     27474 MEMB     234      POPC     O22      OBL     -0.630000       15.9994           0
     27475 MEMB     234      POPC     C22      CTL2    -0.220000       12.0110           0
     27476 MEMB     234      POPC     H2R      HAL2     0.900000E-01   1.00800           0
     27477 MEMB     234      POPC     H2S      HAL2     0.900000E-01   1.00800           0
     27478 MEMB     234      POPC     C3       CTL2     0.800000E-01   12.0110           0
     27479 MEMB     234      POPC     HX       HAL2     0.900000E-01   1.00800           0
     27480 MEMB     234      POPC     HY       HAL2     0.900000E-01   1.00800           0
     27481 MEMB     234      POPC     O31      OSL     -0.490000       15.9994           0
     27482 MEMB     234      POPC     C31      CL       0.900000       12.0110           0
     27483 MEMB     234      POPC     O32      OBL     -0.630000       15.9994           0
     27484 MEMB     234      POPC     C32      CTL2    -0.220000       12.0110           0
     27485 MEMB     234      POPC     H2X      HAL2     0.900000E-01   1.00800           0
     27486 MEMB     234      POPC     H2Y      HAL2     0.900000E-01   1.00800           0
     27487 MEMB     234      POPC     C23      CTL2    -0.180000       12.0110           0
     27488 MEMB     234      POPC     H3R      HAL2     0.900000E-01   1.00800           0
     27489 MEMB     234      POPC     H3S      HAL2     0.900000E-01   1.00800           0
     27490 MEMB     234      POPC     C24      CTL2    -0.180000       12.0110           0
     27491 MEMB     234      POPC     H4R      HAL2     0.900000E-01   1.00800           0
     27492 MEMB     234      POPC     H4S      HAL2     0.900000E-01   1.00800           0
     27493 MEMB     234      POPC     C25      CTL2    -0.180000       12.0110           0
     27494 MEMB     234      POPC     H5R      HAL2     0.900000E-01   1.00800           0
     27495 MEMB     234      POPC     H5S      HAL2     0.900000E-01   1.00800           0
     27496 MEMB     234      POPC     C26      CTL2    -0.180000       12.0110           0
     27497 MEMB     234      POPC     H6R      HAL2     0.900000E-01   1.00800           0
     27498 MEMB     234      POPC     H6S      HAL2     0.900000E-01   1.00800           0
     27499 MEMB     234      POPC     C27      CTL2    -0.180000       12.0110           0
     27500 MEMB     234      POPC     H7R      HAL2     0.900000E-01   1.00800           0
     27501 MEMB     234      POPC     H7S      HAL2     0.900000E-01   1.00800           0
     27502 MEMB     234      POPC     C28      CTL2    -0.180000       12.0110           0
     27503 MEMB     234      POPC     H8R      HAL2     0.900000E-01   1.00800           0
     27504 MEMB     234      POPC     H8S      HAL2     0.900000E-01   1.00800           0
     27505 MEMB     234      POPC     C29      CEL1    -0.150000       12.0110           0
     27506 MEMB     234      POPC     H91      HEL1     0.150000       1.00800           0
     27507 MEMB     234      POPC     C210     CEL1    -0.150000       12.0110           0
     27508 MEMB     234      POPC     H101     HEL1     0.150000       1.00800           0
     27509 MEMB     234      POPC     C211     CTL2    -0.180000       12.0110           0
     27510 MEMB     234      POPC     H11R     HAL2     0.900000E-01   1.00800           0
     27511 MEMB     234      POPC     H11S     HAL2     0.900000E-01   1.00800           0
     27512 MEMB     234      POPC     C212     CTL2    -0.180000       12.0110           0
     27513 MEMB     234      POPC     H12R     HAL2     0.900000E-01   1.00800           0
     27514 MEMB     234      POPC     H12S     HAL2     0.900000E-01   1.00800           0
     27515 MEMB     234      POPC     C213     CTL2    -0.180000       12.0110           0
     27516 MEMB     234      POPC     H13R     HAL2     0.900000E-01   1.00800           0
     27517 MEMB     234      POPC     H13S     HAL2     0.900000E-01   1.00800           0
     27518 MEMB     234      POPC     C214     CTL2    -0.180000       12.0110           0
     27519 MEMB     234      POPC     H14R     HAL2     0.900000E-01   1.00800           0
     27520 MEMB     234      POPC     H14S     HAL2     0.900000E-01   1.00800           0
     27521 MEMB     234      POPC     C215     CTL2    -0.180000       12.0110           0
     27522 MEMB     234      POPC     H15R     HAL2     0.900000E-01   1.00800           0
     27523 MEMB     234      POPC     H15S     HAL2     0.900000E-01   1.00800           0
     27524 MEMB     234      POPC     C216     CTL2    -0.180000       12.0110           0
     27525 MEMB     234      POPC     H16R     HAL2     0.900000E-01   1.00800           0
     27526 MEMB     234      POPC     H16S     HAL2     0.900000E-01   1.00800           0
     27527 MEMB     234      POPC     C217     CTL2    -0.180000       12.0110           0
     27528 MEMB     234      POPC     H17R     HAL2     0.900000E-01   1.00800           0
     27529 MEMB     234      POPC     H17S     HAL2     0.900000E-01   1.00800           0
     27530 MEMB     234      POPC     C218     CTL3    -0.270000       12.0110           0
     27531 MEMB     234      POPC     H18R     HAL3     0.900000E-01   1.00800           0
     27532 MEMB     234      POPC     H18S     HAL3     0.900000E-01   1.00800           0
     27533 MEMB     234      POPC     H18T     HAL3     0.900000E-01   1.00800           0
     27534 MEMB     234      POPC     C33      CTL2    -0.180000       12.0110           0
     27535 MEMB     234      POPC     H3X      HAL2     0.900000E-01   1.00800           0
     27536 MEMB     234      POPC     H3Y      HAL2     0.900000E-01   1.00800           0
     27537 MEMB     234      POPC     C34      CTL2    -0.180000       12.0110           0
     27538 MEMB     234      POPC     H4X      HAL2     0.900000E-01   1.00800           0
     27539 MEMB     234      POPC     H4Y      HAL2     0.900000E-01   1.00800           0
     27540 MEMB     234      POPC     C35      CTL2    -0.180000       12.0110           0
     27541 MEMB     234      POPC     H5X      HAL2     0.900000E-01   1.00800           0
     27542 MEMB     234      POPC     H5Y      HAL2     0.900000E-01   1.00800           0
     27543 MEMB     234      POPC     C36      CTL2    -0.180000       12.0110           0
     27544 MEMB     234      POPC     H6X      HAL2     0.900000E-01   1.00800           0
     27545 MEMB     234      POPC     H6Y      HAL2     0.900000E-01   1.00800           0
     27546 MEMB     234      POPC     C37      CTL2    -0.180000       12.0110           0
     27547 MEMB     234      POPC     H7X      HAL2     0.900000E-01   1.00800           0
     27548 MEMB     234      POPC     H7Y      HAL2     0.900000E-01   1.00800           0
     27549 MEMB     234      POPC     C38      CTL2    -0.180000       12.0110           0
     27550 MEMB     234      POPC     H8X      HAL2     0.900000E-01   1.00800           0
     27551 MEMB     234      POPC     H8Y      HAL2     0.900000E-01   1.00800           0
     27552 MEMB     234      POPC     C39      CTL2    -0.180000       12.0110           0
     27553 MEMB     234      POPC     H9X      HAL2     0.900000E-01   1.00800           0
     27554 MEMB     234      POPC     H9Y      HAL2     0.900000E-01   1.00800           0
     27555 MEMB     234      POPC     C310     CTL2    -0.180000       12.0110           0
     27556 MEMB     234      POPC     H10X     HAL2     0.900000E-01   1.00800           0
     27557 MEMB     234      POPC     H10Y     HAL2     0.900000E-01   1.00800           0
     27558 MEMB     234      POPC     C311     CTL2    -0.180000       12.0110           0
     27559 MEMB     234      POPC     H11X     HAL2     0.900000E-01   1.00800           0
     27560 MEMB     234      POPC     H11Y     HAL2     0.900000E-01   1.00800           0
     27561 MEMB     234      POPC     C312     CTL2    -0.180000       12.0110           0
     27562 MEMB     234      POPC     H12X     HAL2     0.900000E-01   1.00800           0
     27563 MEMB     234      POPC     H12Y     HAL2     0.900000E-01   1.00800           0
     27564 MEMB     234      POPC     C313     CTL2    -0.180000       12.0110           0
     27565 MEMB     234      POPC     H13X     HAL2     0.900000E-01   1.00800           0
     27566 MEMB     234      POPC     H13Y     HAL2     0.900000E-01   1.00800           0
     27567 MEMB     234      POPC     C314     CTL2    -0.180000       12.0110           0
     27568 MEMB     234      POPC     H14X     HAL2     0.900000E-01   1.00800           0
     27569 MEMB     234      POPC     H14Y     HAL2     0.900000E-01   1.00800           0
     27570 MEMB     234      POPC     C315     CTL2    -0.180000       12.0110           0
     27571 MEMB     234      POPC     H15X     HAL2     0.900000E-01   1.00800           0
     27572 MEMB     234      POPC     H15Y     HAL2     0.900000E-01   1.00800           0
     27573 MEMB     234      POPC     C316     CTL3    -0.270000       12.0110           0
     27574 MEMB     234      POPC     H16X     HAL3     0.900000E-01   1.00800           0
     27575 MEMB     234      POPC     H16Y     HAL3     0.900000E-01   1.00800           0
     27576 MEMB     234      POPC     H16Z     HAL3     0.900000E-01   1.00800           0
     27577 MEMB     235      POPC     N        NTL     -0.600000       14.0070           0
     27578 MEMB     235      POPC     C12      CTL2    -0.100000       12.0110           0
     27579 MEMB     235      POPC     H12A     HL       0.250000       1.00800           0
     27580 MEMB     235      POPC     H12B     HL       0.250000       1.00800           0
     27581 MEMB     235      POPC     C13      CTL5    -0.350000       12.0110           0
     27582 MEMB     235      POPC     H13A     HL       0.250000       1.00800           0
     27583 MEMB     235      POPC     H13B     HL       0.250000       1.00800           0
     27584 MEMB     235      POPC     H13C     HL       0.250000       1.00800           0
     27585 MEMB     235      POPC     C14      CTL5    -0.350000       12.0110           0
     27586 MEMB     235      POPC     H14A     HL       0.250000       1.00800           0
     27587 MEMB     235      POPC     H14B     HL       0.250000       1.00800           0
     27588 MEMB     235      POPC     H14C     HL       0.250000       1.00800           0
     27589 MEMB     235      POPC     C15      CTL5    -0.350000       12.0110           0
     27590 MEMB     235      POPC     H15A     HL       0.250000       1.00800           0
     27591 MEMB     235      POPC     H15B     HL       0.250000       1.00800           0
     27592 MEMB     235      POPC     H15C     HL       0.250000       1.00800           0
     27593 MEMB     235      POPC     C11      CTL2    -0.800000E-01   12.0110           0
     27594 MEMB     235      POPC     H11A     HAL2     0.900000E-01   1.00800           0
     27595 MEMB     235      POPC     H11B     HAL2     0.900000E-01   1.00800           0
     27596 MEMB     235      POPC     P        PL        1.50000       30.9740           0
     27597 MEMB     235      POPC     O13      O2L     -0.780000       15.9994           0
     27598 MEMB     235      POPC     O14      O2L     -0.780000       15.9994           0
     27599 MEMB     235      POPC     O12      OSLP    -0.570000       15.9994           0
     27600 MEMB     235      POPC     O11      OSLP    -0.570000       15.9994           0
     27601 MEMB     235      POPC     C1       CTL2    -0.800000E-01   12.0110           0
     27602 MEMB     235      POPC     HA       HAL2     0.900000E-01   1.00800           0
     27603 MEMB     235      POPC     HB       HAL2     0.900000E-01   1.00800           0
     27604 MEMB     235      POPC     C2       CTL1     0.170000       12.0110           0
     27605 MEMB     235      POPC     HS       HAL1     0.900000E-01   1.00800           0
     27606 MEMB     235      POPC     O21      OSL     -0.490000       15.9994           0
     27607 MEMB     235      POPC     C21      CL       0.900000       12.0110           0
     27608 MEMB     235      POPC     O22      OBL     -0.630000       15.9994           0
     27609 MEMB     235      POPC     C22      CTL2    -0.220000       12.0110           0
     27610 MEMB     235      POPC     H2R      HAL2     0.900000E-01   1.00800           0
     27611 MEMB     235      POPC     H2S      HAL2     0.900000E-01   1.00800           0
     27612 MEMB     235      POPC     C3       CTL2     0.800000E-01   12.0110           0
     27613 MEMB     235      POPC     HX       HAL2     0.900000E-01   1.00800           0
     27614 MEMB     235      POPC     HY       HAL2     0.900000E-01   1.00800           0
     27615 MEMB     235      POPC     O31      OSL     -0.490000       15.9994           0
     27616 MEMB     235      POPC     C31      CL       0.900000       12.0110           0
     27617 MEMB     235      POPC     O32      OBL     -0.630000       15.9994           0
     27618 MEMB     235      POPC     C32      CTL2    -0.220000       12.0110           0
     27619 MEMB     235      POPC     H2X      HAL2     0.900000E-01   1.00800           0
     27620 MEMB     235      POPC     H2Y      HAL2     0.900000E-01   1.00800           0
     27621 MEMB     235      POPC     C23      CTL2    -0.180000       12.0110           0
     27622 MEMB     235      POPC     H3R      HAL2     0.900000E-01   1.00800           0
     27623 MEMB     235      POPC     H3S      HAL2     0.900000E-01   1.00800           0
     27624 MEMB     235      POPC     C24      CTL2    -0.180000       12.0110           0
     27625 MEMB     235      POPC     H4R      HAL2     0.900000E-01   1.00800           0
     27626 MEMB     235      POPC     H4S      HAL2     0.900000E-01   1.00800           0
     27627 MEMB     235      POPC     C25      CTL2    -0.180000       12.0110           0
     27628 MEMB     235      POPC     H5R      HAL2     0.900000E-01   1.00800           0
     27629 MEMB     235      POPC     H5S      HAL2     0.900000E-01   1.00800           0
     27630 MEMB     235      POPC     C26      CTL2    -0.180000       12.0110           0
     27631 MEMB     235      POPC     H6R      HAL2     0.900000E-01   1.00800           0
     27632 MEMB     235      POPC     H6S      HAL2     0.900000E-01   1.00800           0
     27633 MEMB     235      POPC     C27      CTL2    -0.180000       12.0110           0
     27634 MEMB     235      POPC     H7R      HAL2     0.900000E-01   1.00800           0
     27635 MEMB     235      POPC     H7S      HAL2     0.900000E-01   1.00800           0
     27636 MEMB     235      POPC     C28      CTL2    -0.180000       12.0110           0
     27637 MEMB     235      POPC     H8R      HAL2     0.900000E-01   1.00800           0
     27638 MEMB     235      POPC     H8S      HAL2     0.900000E-01   1.00800           0
     27639 MEMB     235      POPC     C29      CEL1    -0.150000       12.0110           0
     27640 MEMB     235      POPC     H91      HEL1     0.150000       1.00800           0
     27641 MEMB     235      POPC     C210     CEL1    -0.150000       12.0110           0
     27642 MEMB     235      POPC     H101     HEL1     0.150000       1.00800           0
     27643 MEMB     235      POPC     C211     CTL2    -0.180000       12.0110           0
     27644 MEMB     235      POPC     H11R     HAL2     0.900000E-01   1.00800           0
     27645 MEMB     235      POPC     H11S     HAL2     0.900000E-01   1.00800           0
     27646 MEMB     235      POPC     C212     CTL2    -0.180000       12.0110           0
     27647 MEMB     235      POPC     H12R     HAL2     0.900000E-01   1.00800           0
     27648 MEMB     235      POPC     H12S     HAL2     0.900000E-01   1.00800           0
     27649 MEMB     235      POPC     C213     CTL2    -0.180000       12.0110           0
     27650 MEMB     235      POPC     H13R     HAL2     0.900000E-01   1.00800           0
     27651 MEMB     235      POPC     H13S     HAL2     0.900000E-01   1.00800           0
     27652 MEMB     235      POPC     C214     CTL2    -0.180000       12.0110           0
     27653 MEMB     235      POPC     H14R     HAL2     0.900000E-01   1.00800           0
     27654 MEMB     235      POPC     H14S     HAL2     0.900000E-01   1.00800           0
     27655 MEMB     235      POPC     C215     CTL2    -0.180000       12.0110           0
     27656 MEMB     235      POPC     H15R     HAL2     0.900000E-01   1.00800           0
     27657 MEMB     235      POPC     H15S     HAL2     0.900000E-01   1.00800           0
     27658 MEMB     235      POPC     C216     CTL2    -0.180000       12.0110           0
     27659 MEMB     235      POPC     H16R     HAL2     0.900000E-01   1.00800           0
     27660 MEMB     235      POPC     H16S     HAL2     0.900000E-01   1.00800           0
     27661 MEMB     235      POPC     C217     CTL2    -0.180000       12.0110           0
     27662 MEMB     235      POPC     H17R     HAL2     0.900000E-01   1.00800           0
     27663 MEMB     235      POPC     H17S     HAL2     0.900000E-01   1.00800           0
     27664 MEMB     235      POPC     C218     CTL3    -0.270000       12.0110           0
     27665 MEMB     235      POPC     H18R     HAL3     0.900000E-01   1.00800           0
     27666 MEMB     235      POPC     H18S     HAL3     0.900000E-01   1.00800           0
     27667 MEMB     235      POPC     H18T     HAL3     0.900000E-01   1.00800           0
     27668 MEMB     235      POPC     C33      CTL2    -0.180000       12.0110           0
     27669 MEMB     235      POPC     H3X      HAL2     0.900000E-01   1.00800           0
     27670 MEMB     235      POPC     H3Y      HAL2     0.900000E-01   1.00800           0
     27671 MEMB     235      POPC     C34      CTL2    -0.180000       12.0110           0
     27672 MEMB     235      POPC     H4X      HAL2     0.900000E-01   1.00800           0
     27673 MEMB     235      POPC     H4Y      HAL2     0.900000E-01   1.00800           0
     27674 MEMB     235      POPC     C35      CTL2    -0.180000       12.0110           0
     27675 MEMB     235      POPC     H5X      HAL2     0.900000E-01   1.00800           0
     27676 MEMB     235      POPC     H5Y      HAL2     0.900000E-01   1.00800           0
     27677 MEMB     235      POPC     C36      CTL2    -0.180000       12.0110           0
     27678 MEMB     235      POPC     H6X      HAL2     0.900000E-01   1.00800           0
     27679 MEMB     235      POPC     H6Y      HAL2     0.900000E-01   1.00800           0
     27680 MEMB     235      POPC     C37      CTL2    -0.180000       12.0110           0
     27681 MEMB     235      POPC     H7X      HAL2     0.900000E-01   1.00800           0
     27682 MEMB     235      POPC     H7Y      HAL2     0.900000E-01   1.00800           0
     27683 MEMB     235      POPC     C38      CTL2    -0.180000       12.0110           0
     27684 MEMB     235      POPC     H8X      HAL2     0.900000E-01   1.00800           0
     27685 MEMB     235      POPC     H8Y      HAL2     0.900000E-01   1.00800           0
     27686 MEMB     235      POPC     C39      CTL2    -0.180000       12.0110           0
     27687 MEMB     235      POPC     H9X      HAL2     0.900000E-01   1.00800           0
     27688 MEMB     235      POPC     H9Y      HAL2     0.900000E-01   1.00800           0
     27689 MEMB     235      POPC     C310     CTL2    -0.180000       12.0110           0
     27690 MEMB     235      POPC     H10X     HAL2     0.900000E-01   1.00800           0
     27691 MEMB     235      POPC     H10Y     HAL2     0.900000E-01   1.00800           0
     27692 MEMB     235      POPC     C311     CTL2    -0.180000       12.0110           0
     27693 MEMB     235      POPC     H11X     HAL2     0.900000E-01   1.00800           0
     27694 MEMB     235      POPC     H11Y     HAL2     0.900000E-01   1.00800           0
     27695 MEMB     235      POPC     C312     CTL2    -0.180000       12.0110           0
     27696 MEMB     235      POPC     H12X     HAL2     0.900000E-01   1.00800           0
     27697 MEMB     235      POPC     H12Y     HAL2     0.900000E-01   1.00800           0
     27698 MEMB     235      POPC     C313     CTL2    -0.180000       12.0110           0
     27699 MEMB     235      POPC     H13X     HAL2     0.900000E-01   1.00800           0
     27700 MEMB     235      POPC     H13Y     HAL2     0.900000E-01   1.00800           0
     27701 MEMB     235      POPC     C314     CTL2    -0.180000       12.0110           0
     27702 MEMB     235      POPC     H14X     HAL2     0.900000E-01   1.00800           0
     27703 MEMB     235      POPC     H14Y     HAL2     0.900000E-01   1.00800           0
     27704 MEMB     235      POPC     C315     CTL2    -0.180000       12.0110           0
     27705 MEMB     235      POPC     H15X     HAL2     0.900000E-01   1.00800           0
     27706 MEMB     235      POPC     H15Y     HAL2     0.900000E-01   1.00800           0
     27707 MEMB     235      POPC     C316     CTL3    -0.270000       12.0110           0
     27708 MEMB     235      POPC     H16X     HAL3     0.900000E-01   1.00800           0
     27709 MEMB     235      POPC     H16Y     HAL3     0.900000E-01   1.00800           0
     27710 MEMB     235      POPC     H16Z     HAL3     0.900000E-01   1.00800           0
     27711 MEMB     236      POPC     N        NTL     -0.600000       14.0070           0
     27712 MEMB     236      POPC     C12      CTL2    -0.100000       12.0110           0
     27713 MEMB     236      POPC     H12A     HL       0.250000       1.00800           0
     27714 MEMB     236      POPC     H12B     HL       0.250000       1.00800           0
     27715 MEMB     236      POPC     C13      CTL5    -0.350000       12.0110           0
     27716 MEMB     236      POPC     H13A     HL       0.250000       1.00800           0
     27717 MEMB     236      POPC     H13B     HL       0.250000       1.00800           0
     27718 MEMB     236      POPC     H13C     HL       0.250000       1.00800           0
     27719 MEMB     236      POPC     C14      CTL5    -0.350000       12.0110           0
     27720 MEMB     236      POPC     H14A     HL       0.250000       1.00800           0
     27721 MEMB     236      POPC     H14B     HL       0.250000       1.00800           0
     27722 MEMB     236      POPC     H14C     HL       0.250000       1.00800           0
     27723 MEMB     236      POPC     C15      CTL5    -0.350000       12.0110           0
     27724 MEMB     236      POPC     H15A     HL       0.250000       1.00800           0
     27725 MEMB     236      POPC     H15B     HL       0.250000       1.00800           0
     27726 MEMB     236      POPC     H15C     HL       0.250000       1.00800           0
     27727 MEMB     236      POPC     C11      CTL2    -0.800000E-01   12.0110           0
     27728 MEMB     236      POPC     H11A     HAL2     0.900000E-01   1.00800           0
     27729 MEMB     236      POPC     H11B     HAL2     0.900000E-01   1.00800           0
     27730 MEMB     236      POPC     P        PL        1.50000       30.9740           0
     27731 MEMB     236      POPC     O13      O2L     -0.780000       15.9994           0
     27732 MEMB     236      POPC     O14      O2L     -0.780000       15.9994           0
     27733 MEMB     236      POPC     O12      OSLP    -0.570000       15.9994           0
     27734 MEMB     236      POPC     O11      OSLP    -0.570000       15.9994           0
     27735 MEMB     236      POPC     C1       CTL2    -0.800000E-01   12.0110           0
     27736 MEMB     236      POPC     HA       HAL2     0.900000E-01   1.00800           0
     27737 MEMB     236      POPC     HB       HAL2     0.900000E-01   1.00800           0
     27738 MEMB     236      POPC     C2       CTL1     0.170000       12.0110           0
     27739 MEMB     236      POPC     HS       HAL1     0.900000E-01   1.00800           0
     27740 MEMB     236      POPC     O21      OSL     -0.490000       15.9994           0
     27741 MEMB     236      POPC     C21      CL       0.900000       12.0110           0
     27742 MEMB     236      POPC     O22      OBL     -0.630000       15.9994           0
     27743 MEMB     236      POPC     C22      CTL2    -0.220000       12.0110           0
     27744 MEMB     236      POPC     H2R      HAL2     0.900000E-01   1.00800           0
     27745 MEMB     236      POPC     H2S      HAL2     0.900000E-01   1.00800           0
     27746 MEMB     236      POPC     C3       CTL2     0.800000E-01   12.0110           0
     27747 MEMB     236      POPC     HX       HAL2     0.900000E-01   1.00800           0
     27748 MEMB     236      POPC     HY       HAL2     0.900000E-01   1.00800           0
     27749 MEMB     236      POPC     O31      OSL     -0.490000       15.9994           0
     27750 MEMB     236      POPC     C31      CL       0.900000       12.0110           0
     27751 MEMB     236      POPC     O32      OBL     -0.630000       15.9994           0
     27752 MEMB     236      POPC     C32      CTL2    -0.220000       12.0110           0
     27753 MEMB     236      POPC     H2X      HAL2     0.900000E-01   1.00800           0
     27754 MEMB     236      POPC     H2Y      HAL2     0.900000E-01   1.00800           0
     27755 MEMB     236      POPC     C23      CTL2    -0.180000       12.0110           0
     27756 MEMB     236      POPC     H3R      HAL2     0.900000E-01   1.00800           0
     27757 MEMB     236      POPC     H3S      HAL2     0.900000E-01   1.00800           0
     27758 MEMB     236      POPC     C24      CTL2    -0.180000       12.0110           0
     27759 MEMB     236      POPC     H4R      HAL2     0.900000E-01   1.00800           0
     27760 MEMB     236      POPC     H4S      HAL2     0.900000E-01   1.00800           0
     27761 MEMB     236      POPC     C25      CTL2    -0.180000       12.0110           0
     27762 MEMB     236      POPC     H5R      HAL2     0.900000E-01   1.00800           0
     27763 MEMB     236      POPC     H5S      HAL2     0.900000E-01   1.00800           0
     27764 MEMB     236      POPC     C26      CTL2    -0.180000       12.0110           0
     27765 MEMB     236      POPC     H6R      HAL2     0.900000E-01   1.00800           0
     27766 MEMB     236      POPC     H6S      HAL2     0.900000E-01   1.00800           0
     27767 MEMB     236      POPC     C27      CTL2    -0.180000       12.0110           0
     27768 MEMB     236      POPC     H7R      HAL2     0.900000E-01   1.00800           0
     27769 MEMB     236      POPC     H7S      HAL2     0.900000E-01   1.00800           0
     27770 MEMB     236      POPC     C28      CTL2    -0.180000       12.0110           0
     27771 MEMB     236      POPC     H8R      HAL2     0.900000E-01   1.00800           0
     27772 MEMB     236      POPC     H8S      HAL2     0.900000E-01   1.00800           0
     27773 MEMB     236      POPC     C29      CEL1    -0.150000       12.0110           0
     27774 MEMB     236      POPC     H91      HEL1     0.150000       1.00800           0
     27775 MEMB     236      POPC     C210     CEL1    -0.150000       12.0110           0
     27776 MEMB     236      POPC     H101     HEL1     0.150000       1.00800           0
     27777 MEMB     236      POPC     C211     CTL2    -0.180000       12.0110           0
     27778 MEMB     236      POPC     H11R     HAL2     0.900000E-01   1.00800           0
     27779 MEMB     236      POPC     H11S     HAL2     0.900000E-01   1.00800           0
     27780 MEMB     236      POPC     C212     CTL2    -0.180000       12.0110           0
     27781 MEMB     236      POPC     H12R     HAL2     0.900000E-01   1.00800           0
     27782 MEMB     236      POPC     H12S     HAL2     0.900000E-01   1.00800           0
     27783 MEMB     236      POPC     C213     CTL2    -0.180000       12.0110           0
     27784 MEMB     236      POPC     H13R     HAL2     0.900000E-01   1.00800           0
     27785 MEMB     236      POPC     H13S     HAL2     0.900000E-01   1.00800           0
     27786 MEMB     236      POPC     C214     CTL2    -0.180000       12.0110           0
     27787 MEMB     236      POPC     H14R     HAL2     0.900000E-01   1.00800           0
     27788 MEMB     236      POPC     H14S     HAL2     0.900000E-01   1.00800           0
     27789 MEMB     236      POPC     C215     CTL2    -0.180000       12.0110           0
     27790 MEMB     236      POPC     H15R     HAL2     0.900000E-01   1.00800           0
     27791 MEMB     236      POPC     H15S     HAL2     0.900000E-01   1.00800           0
     27792 MEMB     236      POPC     C216     CTL2    -0.180000       12.0110           0
     27793 MEMB     236      POPC     H16R     HAL2     0.900000E-01   1.00800           0
     27794 MEMB     236      POPC     H16S     HAL2     0.900000E-01   1.00800           0
     27795 MEMB     236      POPC     C217     CTL2    -0.180000       12.0110           0
     27796 MEMB     236      POPC     H17R     HAL2     0.900000E-01   1.00800           0
     27797 MEMB     236      POPC     H17S     HAL2     0.900000E-01   1.00800           0
     27798 MEMB     236      POPC     C218     CTL3    -0.270000       12.0110           0
     27799 MEMB     236      POPC     H18R     HAL3     0.900000E-01   1.00800           0
     27800 MEMB     236      POPC     H18S     HAL3     0.900000E-01   1.00800           0
     27801 MEMB     236      POPC     H18T     HAL3     0.900000E-01   1.00800           0
     27802 MEMB     236      POPC     C33      CTL2    -0.180000       12.0110           0
     27803 MEMB     236      POPC     H3X      HAL2     0.900000E-01   1.00800           0
     27804 MEMB     236      POPC     H3Y      HAL2     0.900000E-01   1.00800           0
     27805 MEMB     236      POPC     C34      CTL2    -0.180000       12.0110           0
     27806 MEMB     236      POPC     H4X      HAL2     0.900000E-01   1.00800           0
     27807 MEMB     236      POPC     H4Y      HAL2     0.900000E-01   1.00800           0
     27808 MEMB     236      POPC     C35      CTL2    -0.180000       12.0110           0
     27809 MEMB     236      POPC     H5X      HAL2     0.900000E-01   1.00800           0
     27810 MEMB     236      POPC     H5Y      HAL2     0.900000E-01   1.00800           0
     27811 MEMB     236      POPC     C36      CTL2    -0.180000       12.0110           0
     27812 MEMB     236      POPC     H6X      HAL2     0.900000E-01   1.00800           0
     27813 MEMB     236      POPC     H6Y      HAL2     0.900000E-01   1.00800           0
     27814 MEMB     236      POPC     C37      CTL2    -0.180000       12.0110           0
     27815 MEMB     236      POPC     H7X      HAL2     0.900000E-01   1.00800           0
     27816 MEMB     236      POPC     H7Y      HAL2     0.900000E-01   1.00800           0
     27817 MEMB     236      POPC     C38      CTL2    -0.180000       12.0110           0
     27818 MEMB     236      POPC     H8X      HAL2     0.900000E-01   1.00800           0
     27819 MEMB     236      POPC     H8Y      HAL2     0.900000E-01   1.00800           0
     27820 MEMB     236      POPC     C39      CTL2    -0.180000       12.0110           0
     27821 MEMB     236      POPC     H9X      HAL2     0.900000E-01   1.00800           0
     27822 MEMB     236      POPC     H9Y      HAL2     0.900000E-01   1.00800           0
     27823 MEMB     236      POPC     C310     CTL2    -0.180000       12.0110           0
     27824 MEMB     236      POPC     H10X     HAL2     0.900000E-01   1.00800           0
     27825 MEMB     236      POPC     H10Y     HAL2     0.900000E-01   1.00800           0
     27826 MEMB     236      POPC     C311     CTL2    -0.180000       12.0110           0
     27827 MEMB     236      POPC     H11X     HAL2     0.900000E-01   1.00800           0
     27828 MEMB     236      POPC     H11Y     HAL2     0.900000E-01   1.00800           0
     27829 MEMB     236      POPC     C312     CTL2    -0.180000       12.0110           0
     27830 MEMB     236      POPC     H12X     HAL2     0.900000E-01   1.00800           0
     27831 MEMB     236      POPC     H12Y     HAL2     0.900000E-01   1.00800           0
     27832 MEMB     236      POPC     C313     CTL2    -0.180000       12.0110           0
     27833 MEMB     236      POPC     H13X     HAL2     0.900000E-01   1.00800           0
     27834 MEMB     236      POPC     H13Y     HAL2     0.900000E-01   1.00800           0
     27835 MEMB     236      POPC     C314     CTL2    -0.180000       12.0110           0
     27836 MEMB     236      POPC     H14X     HAL2     0.900000E-01   1.00800           0
     27837 MEMB     236      POPC     H14Y     HAL2     0.900000E-01   1.00800           0
     27838 MEMB     236      POPC     C315     CTL2    -0.180000       12.0110           0
     27839 MEMB     236      POPC     H15X     HAL2     0.900000E-01   1.00800           0
     27840 MEMB     236      POPC     H15Y     HAL2     0.900000E-01   1.00800           0
     27841 MEMB     236      POPC     C316     CTL3    -0.270000       12.0110           0
     27842 MEMB     236      POPC     H16X     HAL3     0.900000E-01   1.00800           0
     27843 MEMB     236      POPC     H16Y     HAL3     0.900000E-01   1.00800           0
     27844 MEMB     236      POPC     H16Z     HAL3     0.900000E-01   1.00800           0
     27845 MEMB     237      POPC     N        NTL     -0.600000       14.0070           0
     27846 MEMB     237      POPC     C12      CTL2    -0.100000       12.0110           0
     27847 MEMB     237      POPC     H12A     HL       0.250000       1.00800           0
     27848 MEMB     237      POPC     H12B     HL       0.250000       1.00800           0
     27849 MEMB     237      POPC     C13      CTL5    -0.350000       12.0110           0
     27850 MEMB     237      POPC     H13A     HL       0.250000       1.00800           0
     27851 MEMB     237      POPC     H13B     HL       0.250000       1.00800           0
     27852 MEMB     237      POPC     H13C     HL       0.250000       1.00800           0
     27853 MEMB     237      POPC     C14      CTL5    -0.350000       12.0110           0
     27854 MEMB     237      POPC     H14A     HL       0.250000       1.00800           0
     27855 MEMB     237      POPC     H14B     HL       0.250000       1.00800           0
     27856 MEMB     237      POPC     H14C     HL       0.250000       1.00800           0
     27857 MEMB     237      POPC     C15      CTL5    -0.350000       12.0110           0
     27858 MEMB     237      POPC     H15A     HL       0.250000       1.00800           0
     27859 MEMB     237      POPC     H15B     HL       0.250000       1.00800           0
     27860 MEMB     237      POPC     H15C     HL       0.250000       1.00800           0
     27861 MEMB     237      POPC     C11      CTL2    -0.800000E-01   12.0110           0
     27862 MEMB     237      POPC     H11A     HAL2     0.900000E-01   1.00800           0
     27863 MEMB     237      POPC     H11B     HAL2     0.900000E-01   1.00800           0
     27864 MEMB     237      POPC     P        PL        1.50000       30.9740           0
     27865 MEMB     237      POPC     O13      O2L     -0.780000       15.9994           0
     27866 MEMB     237      POPC     O14      O2L     -0.780000       15.9994           0
     27867 MEMB     237      POPC     O12      OSLP    -0.570000       15.9994           0
     27868 MEMB     237      POPC     O11      OSLP    -0.570000       15.9994           0
     27869 MEMB     237      POPC     C1       CTL2    -0.800000E-01   12.0110           0
     27870 MEMB     237      POPC     HA       HAL2     0.900000E-01   1.00800           0
     27871 MEMB     237      POPC     HB       HAL2     0.900000E-01   1.00800           0
     27872 MEMB     237      POPC     C2       CTL1     0.170000       12.0110           0
     27873 MEMB     237      POPC     HS       HAL1     0.900000E-01   1.00800           0
     27874 MEMB     237      POPC     O21      OSL     -0.490000       15.9994           0
     27875 MEMB     237      POPC     C21      CL       0.900000       12.0110           0
     27876 MEMB     237      POPC     O22      OBL     -0.630000       15.9994           0
     27877 MEMB     237      POPC     C22      CTL2    -0.220000       12.0110           0
     27878 MEMB     237      POPC     H2R      HAL2     0.900000E-01   1.00800           0
     27879 MEMB     237      POPC     H2S      HAL2     0.900000E-01   1.00800           0
     27880 MEMB     237      POPC     C3       CTL2     0.800000E-01   12.0110           0
     27881 MEMB     237      POPC     HX       HAL2     0.900000E-01   1.00800           0
     27882 MEMB     237      POPC     HY       HAL2     0.900000E-01   1.00800           0
     27883 MEMB     237      POPC     O31      OSL     -0.490000       15.9994           0
     27884 MEMB     237      POPC     C31      CL       0.900000       12.0110           0
     27885 MEMB     237      POPC     O32      OBL     -0.630000       15.9994           0
     27886 MEMB     237      POPC     C32      CTL2    -0.220000       12.0110           0
     27887 MEMB     237      POPC     H2X      HAL2     0.900000E-01   1.00800           0
     27888 MEMB     237      POPC     H2Y      HAL2     0.900000E-01   1.00800           0
     27889 MEMB     237      POPC     C23      CTL2    -0.180000       12.0110           0
     27890 MEMB     237      POPC     H3R      HAL2     0.900000E-01   1.00800           0
     27891 MEMB     237      POPC     H3S      HAL2     0.900000E-01   1.00800           0
     27892 MEMB     237      POPC     C24      CTL2    -0.180000       12.0110           0
     27893 MEMB     237      POPC     H4R      HAL2     0.900000E-01   1.00800           0
     27894 MEMB     237      POPC     H4S      HAL2     0.900000E-01   1.00800           0
     27895 MEMB     237      POPC     C25      CTL2    -0.180000       12.0110           0
     27896 MEMB     237      POPC     H5R      HAL2     0.900000E-01   1.00800           0
     27897 MEMB     237      POPC     H5S      HAL2     0.900000E-01   1.00800           0
     27898 MEMB     237      POPC     C26      CTL2    -0.180000       12.0110           0
     27899 MEMB     237      POPC     H6R      HAL2     0.900000E-01   1.00800           0
     27900 MEMB     237      POPC     H6S      HAL2     0.900000E-01   1.00800           0
     27901 MEMB     237      POPC     C27      CTL2    -0.180000       12.0110           0
     27902 MEMB     237      POPC     H7R      HAL2     0.900000E-01   1.00800           0
     27903 MEMB     237      POPC     H7S      HAL2     0.900000E-01   1.00800           0
     27904 MEMB     237      POPC     C28      CTL2    -0.180000       12.0110           0
     27905 MEMB     237      POPC     H8R      HAL2     0.900000E-01   1.00800           0
     27906 MEMB     237      POPC     H8S      HAL2     0.900000E-01   1.00800           0
     27907 MEMB     237      POPC     C29      CEL1    -0.150000       12.0110           0
     27908 MEMB     237      POPC     H91      HEL1     0.150000       1.00800           0
     27909 MEMB     237      POPC     C210     CEL1    -0.150000       12.0110           0
     27910 MEMB     237      POPC     H101     HEL1     0.150000       1.00800           0
     27911 MEMB     237      POPC     C211     CTL2    -0.180000       12.0110           0
     27912 MEMB     237      POPC     H11R     HAL2     0.900000E-01   1.00800           0
     27913 MEMB     237      POPC     H11S     HAL2     0.900000E-01   1.00800           0
     27914 MEMB     237      POPC     C212     CTL2    -0.180000       12.0110           0
     27915 MEMB     237      POPC     H12R     HAL2     0.900000E-01   1.00800           0
     27916 MEMB     237      POPC     H12S     HAL2     0.900000E-01   1.00800           0
     27917 MEMB     237      POPC     C213     CTL2    -0.180000       12.0110           0
     27918 MEMB     237      POPC     H13R     HAL2     0.900000E-01   1.00800           0
     27919 MEMB     237      POPC     H13S     HAL2     0.900000E-01   1.00800           0
     27920 MEMB     237      POPC     C214     CTL2    -0.180000       12.0110           0
     27921 MEMB     237      POPC     H14R     HAL2     0.900000E-01   1.00800           0
     27922 MEMB     237      POPC     H14S     HAL2     0.900000E-01   1.00800           0
     27923 MEMB     237      POPC     C215     CTL2    -0.180000       12.0110           0
     27924 MEMB     237      POPC     H15R     HAL2     0.900000E-01   1.00800           0
     27925 MEMB     237      POPC     H15S     HAL2     0.900000E-01   1.00800           0
     27926 MEMB     237      POPC     C216     CTL2    -0.180000       12.0110           0
     27927 MEMB     237      POPC     H16R     HAL2     0.900000E-01   1.00800           0
     27928 MEMB     237      POPC     H16S     HAL2     0.900000E-01   1.00800           0
     27929 MEMB     237      POPC     C217     CTL2    -0.180000       12.0110           0
     27930 MEMB     237      POPC     H17R     HAL2     0.900000E-01   1.00800           0
     27931 MEMB     237      POPC     H17S     HAL2     0.900000E-01   1.00800           0
     27932 MEMB     237      POPC     C218     CTL3    -0.270000       12.0110           0
     27933 MEMB     237      POPC     H18R     HAL3     0.900000E-01   1.00800           0
     27934 MEMB     237      POPC     H18S     HAL3     0.900000E-01   1.00800           0
     27935 MEMB     237      POPC     H18T     HAL3     0.900000E-01   1.00800           0
     27936 MEMB     237      POPC     C33      CTL2    -0.180000       12.0110           0
     27937 MEMB     237      POPC     H3X      HAL2     0.900000E-01   1.00800           0
     27938 MEMB     237      POPC     H3Y      HAL2     0.900000E-01   1.00800           0
     27939 MEMB     237      POPC     C34      CTL2    -0.180000       12.0110           0
     27940 MEMB     237      POPC     H4X      HAL2     0.900000E-01   1.00800           0
     27941 MEMB     237      POPC     H4Y      HAL2     0.900000E-01   1.00800           0
     27942 MEMB     237      POPC     C35      CTL2    -0.180000       12.0110           0
     27943 MEMB     237      POPC     H5X      HAL2     0.900000E-01   1.00800           0
     27944 MEMB     237      POPC     H5Y      HAL2     0.900000E-01   1.00800           0
     27945 MEMB     237      POPC     C36      CTL2    -0.180000       12.0110           0
     27946 MEMB     237      POPC     H6X      HAL2     0.900000E-01   1.00800           0
     27947 MEMB     237      POPC     H6Y      HAL2     0.900000E-01   1.00800           0
     27948 MEMB     237      POPC     C37      CTL2    -0.180000       12.0110           0
     27949 MEMB     237      POPC     H7X      HAL2     0.900000E-01   1.00800           0
     27950 MEMB     237      POPC     H7Y      HAL2     0.900000E-01   1.00800           0
     27951 MEMB     237      POPC     C38      CTL2    -0.180000       12.0110           0
     27952 MEMB     237      POPC     H8X      HAL2     0.900000E-01   1.00800           0
     27953 MEMB     237      POPC     H8Y      HAL2     0.900000E-01   1.00800           0
     27954 MEMB     237      POPC     C39      CTL2    -0.180000       12.0110           0
     27955 MEMB     237      POPC     H9X      HAL2     0.900000E-01   1.00800           0
     27956 MEMB     237      POPC     H9Y      HAL2     0.900000E-01   1.00800           0
     27957 MEMB     237      POPC     C310     CTL2    -0.180000       12.0110           0
     27958 MEMB     237      POPC     H10X     HAL2     0.900000E-01   1.00800           0
     27959 MEMB     237      POPC     H10Y     HAL2     0.900000E-01   1.00800           0
     27960 MEMB     237      POPC     C311     CTL2    -0.180000       12.0110           0
     27961 MEMB     237      POPC     H11X     HAL2     0.900000E-01   1.00800           0
     27962 MEMB     237      POPC     H11Y     HAL2     0.900000E-01   1.00800           0
     27963 MEMB     237      POPC     C312     CTL2    -0.180000       12.0110           0
     27964 MEMB     237      POPC     H12X     HAL2     0.900000E-01   1.00800           0
     27965 MEMB     237      POPC     H12Y     HAL2     0.900000E-01   1.00800           0
     27966 MEMB     237      POPC     C313     CTL2    -0.180000       12.0110           0
     27967 MEMB     237      POPC     H13X     HAL2     0.900000E-01   1.00800           0
     27968 MEMB     237      POPC     H13Y     HAL2     0.900000E-01   1.00800           0
     27969 MEMB     237      POPC     C314     CTL2    -0.180000       12.0110           0
     27970 MEMB     237      POPC     H14X     HAL2     0.900000E-01   1.00800           0
     27971 MEMB     237      POPC     H14Y     HAL2     0.900000E-01   1.00800           0
     27972 MEMB     237      POPC     C315     CTL2    -0.180000       12.0110           0
     27973 MEMB     237      POPC     H15X     HAL2     0.900000E-01   1.00800           0
     27974 MEMB     237      POPC     H15Y     HAL2     0.900000E-01   1.00800           0
     27975 MEMB     237      POPC     C316     CTL3    -0.270000       12.0110           0
     27976 MEMB     237      POPC     H16X     HAL3     0.900000E-01   1.00800           0
     27977 MEMB     237      POPC     H16Y     HAL3     0.900000E-01   1.00800           0
     27978 MEMB     237      POPC     H16Z     HAL3     0.900000E-01   1.00800           0
     27979 MEMB     238      POPC     N        NTL     -0.600000       14.0070           0
     27980 MEMB     238      POPC     C12      CTL2    -0.100000       12.0110           0
     27981 MEMB     238      POPC     H12A     HL       0.250000       1.00800           0
     27982 MEMB     238      POPC     H12B     HL       0.250000       1.00800           0
     27983 MEMB     238      POPC     C13      CTL5    -0.350000       12.0110           0
     27984 MEMB     238      POPC     H13A     HL       0.250000       1.00800           0
     27985 MEMB     238      POPC     H13B     HL       0.250000       1.00800           0
     27986 MEMB     238      POPC     H13C     HL       0.250000       1.00800           0
     27987 MEMB     238      POPC     C14      CTL5    -0.350000       12.0110           0
     27988 MEMB     238      POPC     H14A     HL       0.250000       1.00800           0
     27989 MEMB     238      POPC     H14B     HL       0.250000       1.00800           0
     27990 MEMB     238      POPC     H14C     HL       0.250000       1.00800           0
     27991 MEMB     238      POPC     C15      CTL5    -0.350000       12.0110           0
     27992 MEMB     238      POPC     H15A     HL       0.250000       1.00800           0
     27993 MEMB     238      POPC     H15B     HL       0.250000       1.00800           0
     27994 MEMB     238      POPC     H15C     HL       0.250000       1.00800           0
     27995 MEMB     238      POPC     C11      CTL2    -0.800000E-01   12.0110           0
     27996 MEMB     238      POPC     H11A     HAL2     0.900000E-01   1.00800           0
     27997 MEMB     238      POPC     H11B     HAL2     0.900000E-01   1.00800           0
     27998 MEMB     238      POPC     P        PL        1.50000       30.9740           0
     27999 MEMB     238      POPC     O13      O2L     -0.780000       15.9994           0
     28000 MEMB     238      POPC     O14      O2L     -0.780000       15.9994           0
     28001 MEMB     238      POPC     O12      OSLP    -0.570000       15.9994           0
     28002 MEMB     238      POPC     O11      OSLP    -0.570000       15.9994           0
     28003 MEMB     238      POPC     C1       CTL2    -0.800000E-01   12.0110           0
     28004 MEMB     238      POPC     HA       HAL2     0.900000E-01   1.00800           0
     28005 MEMB     238      POPC     HB       HAL2     0.900000E-01   1.00800           0
     28006 MEMB     238      POPC     C2       CTL1     0.170000       12.0110           0
     28007 MEMB     238      POPC     HS       HAL1     0.900000E-01   1.00800           0
     28008 MEMB     238      POPC     O21      OSL     -0.490000       15.9994           0
     28009 MEMB     238      POPC     C21      CL       0.900000       12.0110           0
     28010 MEMB     238      POPC     O22      OBL     -0.630000       15.9994           0
     28011 MEMB     238      POPC     C22      CTL2    -0.220000       12.0110           0
     28012 MEMB     238      POPC     H2R      HAL2     0.900000E-01   1.00800           0
     28013 MEMB     238      POPC     H2S      HAL2     0.900000E-01   1.00800           0
     28014 MEMB     238      POPC     C3       CTL2     0.800000E-01   12.0110           0
     28015 MEMB     238      POPC     HX       HAL2     0.900000E-01   1.00800           0
     28016 MEMB     238      POPC     HY       HAL2     0.900000E-01   1.00800           0
     28017 MEMB     238      POPC     O31      OSL     -0.490000       15.9994           0
     28018 MEMB     238      POPC     C31      CL       0.900000       12.0110           0
     28019 MEMB     238      POPC     O32      OBL     -0.630000       15.9994           0
     28020 MEMB     238      POPC     C32      CTL2    -0.220000       12.0110           0
     28021 MEMB     238      POPC     H2X      HAL2     0.900000E-01   1.00800           0
     28022 MEMB     238      POPC     H2Y      HAL2     0.900000E-01   1.00800           0
     28023 MEMB     238      POPC     C23      CTL2    -0.180000       12.0110           0
     28024 MEMB     238      POPC     H3R      HAL2     0.900000E-01   1.00800           0
     28025 MEMB     238      POPC     H3S      HAL2     0.900000E-01   1.00800           0
     28026 MEMB     238      POPC     C24      CTL2    -0.180000       12.0110           0
     28027 MEMB     238      POPC     H4R      HAL2     0.900000E-01   1.00800           0
     28028 MEMB     238      POPC     H4S      HAL2     0.900000E-01   1.00800           0
     28029 MEMB     238      POPC     C25      CTL2    -0.180000       12.0110           0
     28030 MEMB     238      POPC     H5R      HAL2     0.900000E-01   1.00800           0
     28031 MEMB     238      POPC     H5S      HAL2     0.900000E-01   1.00800           0
     28032 MEMB     238      POPC     C26      CTL2    -0.180000       12.0110           0
     28033 MEMB     238      POPC     H6R      HAL2     0.900000E-01   1.00800           0
     28034 MEMB     238      POPC     H6S      HAL2     0.900000E-01   1.00800           0
     28035 MEMB     238      POPC     C27      CTL2    -0.180000       12.0110           0
     28036 MEMB     238      POPC     H7R      HAL2     0.900000E-01   1.00800           0
     28037 MEMB     238      POPC     H7S      HAL2     0.900000E-01   1.00800           0
     28038 MEMB     238      POPC     C28      CTL2    -0.180000       12.0110           0
     28039 MEMB     238      POPC     H8R      HAL2     0.900000E-01   1.00800           0
     28040 MEMB     238      POPC     H8S      HAL2     0.900000E-01   1.00800           0
     28041 MEMB     238      POPC     C29      CEL1    -0.150000       12.0110           0
     28042 MEMB     238      POPC     H91      HEL1     0.150000       1.00800           0
     28043 MEMB     238      POPC     C210     CEL1    -0.150000       12.0110           0
     28044 MEMB     238      POPC     H101     HEL1     0.150000       1.00800           0
     28045 MEMB     238      POPC     C211     CTL2    -0.180000       12.0110           0
     28046 MEMB     238      POPC     H11R     HAL2     0.900000E-01   1.00800           0
     28047 MEMB     238      POPC     H11S     HAL2     0.900000E-01   1.00800           0
     28048 MEMB     238      POPC     C212     CTL2    -0.180000       12.0110           0
     28049 MEMB     238      POPC     H12R     HAL2     0.900000E-01   1.00800           0
     28050 MEMB     238      POPC     H12S     HAL2     0.900000E-01   1.00800           0
     28051 MEMB     238      POPC     C213     CTL2    -0.180000       12.0110           0
     28052 MEMB     238      POPC     H13R     HAL2     0.900000E-01   1.00800           0
     28053 MEMB     238      POPC     H13S     HAL2     0.900000E-01   1.00800           0
     28054 MEMB     238      POPC     C214     CTL2    -0.180000       12.0110           0
     28055 MEMB     238      POPC     H14R     HAL2     0.900000E-01   1.00800           0
     28056 MEMB     238      POPC     H14S     HAL2     0.900000E-01   1.00800           0
     28057 MEMB     238      POPC     C215     CTL2    -0.180000       12.0110           0
     28058 MEMB     238      POPC     H15R     HAL2     0.900000E-01   1.00800           0
     28059 MEMB     238      POPC     H15S     HAL2     0.900000E-01   1.00800           0
     28060 MEMB     238      POPC     C216     CTL2    -0.180000       12.0110           0
     28061 MEMB     238      POPC     H16R     HAL2     0.900000E-01   1.00800           0
     28062 MEMB     238      POPC     H16S     HAL2     0.900000E-01   1.00800           0
     28063 MEMB     238      POPC     C217     CTL2    -0.180000       12.0110           0
     28064 MEMB     238      POPC     H17R     HAL2     0.900000E-01   1.00800           0
     28065 MEMB     238      POPC     H17S     HAL2     0.900000E-01   1.00800           0
     28066 MEMB     238      POPC     C218     CTL3    -0.270000       12.0110           0
     28067 MEMB     238      POPC     H18R     HAL3     0.900000E-01   1.00800           0
     28068 MEMB     238      POPC     H18S     HAL3     0.900000E-01   1.00800           0
     28069 MEMB     238      POPC     H18T     HAL3     0.900000E-01   1.00800           0
     28070 MEMB     238      POPC     C33      CTL2    -0.180000       12.0110           0
     28071 MEMB     238      POPC     H3X      HAL2     0.900000E-01   1.00800           0
     28072 MEMB     238      POPC     H3Y      HAL2     0.900000E-01   1.00800           0
     28073 MEMB     238      POPC     C34      CTL2    -0.180000       12.0110           0
     28074 MEMB     238      POPC     H4X      HAL2     0.900000E-01   1.00800           0
     28075 MEMB     238      POPC     H4Y      HAL2     0.900000E-01   1.00800           0
     28076 MEMB     238      POPC     C35      CTL2    -0.180000       12.0110           0
     28077 MEMB     238      POPC     H5X      HAL2     0.900000E-01   1.00800           0
     28078 MEMB     238      POPC     H5Y      HAL2     0.900000E-01   1.00800           0
     28079 MEMB     238      POPC     C36      CTL2    -0.180000       12.0110           0
     28080 MEMB     238      POPC     H6X      HAL2     0.900000E-01   1.00800           0
     28081 MEMB     238      POPC     H6Y      HAL2     0.900000E-01   1.00800           0
     28082 MEMB     238      POPC     C37      CTL2    -0.180000       12.0110           0
     28083 MEMB     238      POPC     H7X      HAL2     0.900000E-01   1.00800           0
     28084 MEMB     238      POPC     H7Y      HAL2     0.900000E-01   1.00800           0
     28085 MEMB     238      POPC     C38      CTL2    -0.180000       12.0110           0
     28086 MEMB     238      POPC     H8X      HAL2     0.900000E-01   1.00800           0
     28087 MEMB     238      POPC     H8Y      HAL2     0.900000E-01   1.00800           0
     28088 MEMB     238      POPC     C39      CTL2    -0.180000       12.0110           0
     28089 MEMB     238      POPC     H9X      HAL2     0.900000E-01   1.00800           0
     28090 MEMB     238      POPC     H9Y      HAL2     0.900000E-01   1.00800           0
     28091 MEMB     238      POPC     C310     CTL2    -0.180000       12.0110           0
     28092 MEMB     238      POPC     H10X     HAL2     0.900000E-01   1.00800           0
     28093 MEMB     238      POPC     H10Y     HAL2     0.900000E-01   1.00800           0
     28094 MEMB     238      POPC     C311     CTL2    -0.180000       12.0110           0
     28095 MEMB     238      POPC     H11X     HAL2     0.900000E-01   1.00800           0
     28096 MEMB     238      POPC     H11Y     HAL2     0.900000E-01   1.00800           0
     28097 MEMB     238      POPC     C312     CTL2    -0.180000       12.0110           0
     28098 MEMB     238      POPC     H12X     HAL2     0.900000E-01   1.00800           0
     28099 MEMB     238      POPC     H12Y     HAL2     0.900000E-01   1.00800           0
     28100 MEMB     238      POPC     C313     CTL2    -0.180000       12.0110           0
     28101 MEMB     238      POPC     H13X     HAL2     0.900000E-01   1.00800           0
     28102 MEMB     238      POPC     H13Y     HAL2     0.900000E-01   1.00800           0
     28103 MEMB     238      POPC     C314     CTL2    -0.180000       12.0110           0
     28104 MEMB     238      POPC     H14X     HAL2     0.900000E-01   1.00800           0
     28105 MEMB     238      POPC     H14Y     HAL2     0.900000E-01   1.00800           0
     28106 MEMB     238      POPC     C315     CTL2    -0.180000       12.0110           0
     28107 MEMB     238      POPC     H15X     HAL2     0.900000E-01   1.00800           0
     28108 MEMB     238      POPC     H15Y     HAL2     0.900000E-01   1.00800           0
     28109 MEMB     238      POPC     C316     CTL3    -0.270000       12.0110           0
     28110 MEMB     238      POPC     H16X     HAL3     0.900000E-01   1.00800           0
     28111 MEMB     238      POPC     H16Y     HAL3     0.900000E-01   1.00800           0
     28112 MEMB     238      POPC     H16Z     HAL3     0.900000E-01   1.00800           0
     28113 MEMB     239      POPC     N        NTL     -0.600000       14.0070           0
     28114 MEMB     239      POPC     C12      CTL2    -0.100000       12.0110           0
     28115 MEMB     239      POPC     H12A     HL       0.250000       1.00800           0
     28116 MEMB     239      POPC     H12B     HL       0.250000       1.00800           0
     28117 MEMB     239      POPC     C13      CTL5    -0.350000       12.0110           0
     28118 MEMB     239      POPC     H13A     HL       0.250000       1.00800           0
     28119 MEMB     239      POPC     H13B     HL       0.250000       1.00800           0
     28120 MEMB     239      POPC     H13C     HL       0.250000       1.00800           0
     28121 MEMB     239      POPC     C14      CTL5    -0.350000       12.0110           0
     28122 MEMB     239      POPC     H14A     HL       0.250000       1.00800           0
     28123 MEMB     239      POPC     H14B     HL       0.250000       1.00800           0
     28124 MEMB     239      POPC     H14C     HL       0.250000       1.00800           0
     28125 MEMB     239      POPC     C15      CTL5    -0.350000       12.0110           0
     28126 MEMB     239      POPC     H15A     HL       0.250000       1.00800           0
     28127 MEMB     239      POPC     H15B     HL       0.250000       1.00800           0
     28128 MEMB     239      POPC     H15C     HL       0.250000       1.00800           0
     28129 MEMB     239      POPC     C11      CTL2    -0.800000E-01   12.0110           0
     28130 MEMB     239      POPC     H11A     HAL2     0.900000E-01   1.00800           0
     28131 MEMB     239      POPC     H11B     HAL2     0.900000E-01   1.00800           0
     28132 MEMB     239      POPC     P        PL        1.50000       30.9740           0
     28133 MEMB     239      POPC     O13      O2L     -0.780000       15.9994           0
     28134 MEMB     239      POPC     O14      O2L     -0.780000       15.9994           0
     28135 MEMB     239      POPC     O12      OSLP    -0.570000       15.9994           0
     28136 MEMB     239      POPC     O11      OSLP    -0.570000       15.9994           0
     28137 MEMB     239      POPC     C1       CTL2    -0.800000E-01   12.0110           0
     28138 MEMB     239      POPC     HA       HAL2     0.900000E-01   1.00800           0
     28139 MEMB     239      POPC     HB       HAL2     0.900000E-01   1.00800           0
     28140 MEMB     239      POPC     C2       CTL1     0.170000       12.0110           0
     28141 MEMB     239      POPC     HS       HAL1     0.900000E-01   1.00800           0
     28142 MEMB     239      POPC     O21      OSL     -0.490000       15.9994           0
     28143 MEMB     239      POPC     C21      CL       0.900000       12.0110           0
     28144 MEMB     239      POPC     O22      OBL     -0.630000       15.9994           0
     28145 MEMB     239      POPC     C22      CTL2    -0.220000       12.0110           0
     28146 MEMB     239      POPC     H2R      HAL2     0.900000E-01   1.00800           0
     28147 MEMB     239      POPC     H2S      HAL2     0.900000E-01   1.00800           0
     28148 MEMB     239      POPC     C3       CTL2     0.800000E-01   12.0110           0
     28149 MEMB     239      POPC     HX       HAL2     0.900000E-01   1.00800           0
     28150 MEMB     239      POPC     HY       HAL2     0.900000E-01   1.00800           0
     28151 MEMB     239      POPC     O31      OSL     -0.490000       15.9994           0
     28152 MEMB     239      POPC     C31      CL       0.900000       12.0110           0
     28153 MEMB     239      POPC     O32      OBL     -0.630000       15.9994           0
     28154 MEMB     239      POPC     C32      CTL2    -0.220000       12.0110           0
     28155 MEMB     239      POPC     H2X      HAL2     0.900000E-01   1.00800           0
     28156 MEMB     239      POPC     H2Y      HAL2     0.900000E-01   1.00800           0
     28157 MEMB     239      POPC     C23      CTL2    -0.180000       12.0110           0
     28158 MEMB     239      POPC     H3R      HAL2     0.900000E-01   1.00800           0
     28159 MEMB     239      POPC     H3S      HAL2     0.900000E-01   1.00800           0
     28160 MEMB     239      POPC     C24      CTL2    -0.180000       12.0110           0
     28161 MEMB     239      POPC     H4R      HAL2     0.900000E-01   1.00800           0
     28162 MEMB     239      POPC     H4S      HAL2     0.900000E-01   1.00800           0
     28163 MEMB     239      POPC     C25      CTL2    -0.180000       12.0110           0
     28164 MEMB     239      POPC     H5R      HAL2     0.900000E-01   1.00800           0
     28165 MEMB     239      POPC     H5S      HAL2     0.900000E-01   1.00800           0
     28166 MEMB     239      POPC     C26      CTL2    -0.180000       12.0110           0
     28167 MEMB     239      POPC     H6R      HAL2     0.900000E-01   1.00800           0
     28168 MEMB     239      POPC     H6S      HAL2     0.900000E-01   1.00800           0
     28169 MEMB     239      POPC     C27      CTL2    -0.180000       12.0110           0
     28170 MEMB     239      POPC     H7R      HAL2     0.900000E-01   1.00800           0
     28171 MEMB     239      POPC     H7S      HAL2     0.900000E-01   1.00800           0
     28172 MEMB     239      POPC     C28      CTL2    -0.180000       12.0110           0
     28173 MEMB     239      POPC     H8R      HAL2     0.900000E-01   1.00800           0
     28174 MEMB     239      POPC     H8S      HAL2     0.900000E-01   1.00800           0
     28175 MEMB     239      POPC     C29      CEL1    -0.150000       12.0110           0
     28176 MEMB     239      POPC     H91      HEL1     0.150000       1.00800           0
     28177 MEMB     239      POPC     C210     CEL1    -0.150000       12.0110           0
     28178 MEMB     239      POPC     H101     HEL1     0.150000       1.00800           0
     28179 MEMB     239      POPC     C211     CTL2    -0.180000       12.0110           0
     28180 MEMB     239      POPC     H11R     HAL2     0.900000E-01   1.00800           0
     28181 MEMB     239      POPC     H11S     HAL2     0.900000E-01   1.00800           0
     28182 MEMB     239      POPC     C212     CTL2    -0.180000       12.0110           0
     28183 MEMB     239      POPC     H12R     HAL2     0.900000E-01   1.00800           0
     28184 MEMB     239      POPC     H12S     HAL2     0.900000E-01   1.00800           0
     28185 MEMB     239      POPC     C213     CTL2    -0.180000       12.0110           0
     28186 MEMB     239      POPC     H13R     HAL2     0.900000E-01   1.00800           0
     28187 MEMB     239      POPC     H13S     HAL2     0.900000E-01   1.00800           0
     28188 MEMB     239      POPC     C214     CTL2    -0.180000       12.0110           0
     28189 MEMB     239      POPC     H14R     HAL2     0.900000E-01   1.00800           0
     28190 MEMB     239      POPC     H14S     HAL2     0.900000E-01   1.00800           0
     28191 MEMB     239      POPC     C215     CTL2    -0.180000       12.0110           0
     28192 MEMB     239      POPC     H15R     HAL2     0.900000E-01   1.00800           0
     28193 MEMB     239      POPC     H15S     HAL2     0.900000E-01   1.00800           0
     28194 MEMB     239      POPC     C216     CTL2    -0.180000       12.0110           0
     28195 MEMB     239      POPC     H16R     HAL2     0.900000E-01   1.00800           0
     28196 MEMB     239      POPC     H16S     HAL2     0.900000E-01   1.00800           0
     28197 MEMB     239      POPC     C217     CTL2    -0.180000       12.0110           0
     28198 MEMB     239      POPC     H17R     HAL2     0.900000E-01   1.00800           0
     28199 MEMB     239      POPC     H17S     HAL2     0.900000E-01   1.00800           0
     28200 MEMB     239      POPC     C218     CTL3    -0.270000       12.0110           0
     28201 MEMB     239      POPC     H18R     HAL3     0.900000E-01   1.00800           0
     28202 MEMB     239      POPC     H18S     HAL3     0.900000E-01   1.00800           0
     28203 MEMB     239      POPC     H18T     HAL3     0.900000E-01   1.00800           0
     28204 MEMB     239      POPC     C33      CTL2    -0.180000       12.0110           0
     28205 MEMB     239      POPC     H3X      HAL2     0.900000E-01   1.00800           0
     28206 MEMB     239      POPC     H3Y      HAL2     0.900000E-01   1.00800           0
     28207 MEMB     239      POPC     C34      CTL2    -0.180000       12.0110           0
     28208 MEMB     239      POPC     H4X      HAL2     0.900000E-01   1.00800           0
     28209 MEMB     239      POPC     H4Y      HAL2     0.900000E-01   1.00800           0
     28210 MEMB     239      POPC     C35      CTL2    -0.180000       12.0110           0
     28211 MEMB     239      POPC     H5X      HAL2     0.900000E-01   1.00800           0
     28212 MEMB     239      POPC     H5Y      HAL2     0.900000E-01   1.00800           0
     28213 MEMB     239      POPC     C36      CTL2    -0.180000       12.0110           0
     28214 MEMB     239      POPC     H6X      HAL2     0.900000E-01   1.00800           0
     28215 MEMB     239      POPC     H6Y      HAL2     0.900000E-01   1.00800           0
     28216 MEMB     239      POPC     C37      CTL2    -0.180000       12.0110           0
     28217 MEMB     239      POPC     H7X      HAL2     0.900000E-01   1.00800           0
     28218 MEMB     239      POPC     H7Y      HAL2     0.900000E-01   1.00800           0
     28219 MEMB     239      POPC     C38      CTL2    -0.180000       12.0110           0
     28220 MEMB     239      POPC     H8X      HAL2     0.900000E-01   1.00800           0
     28221 MEMB     239      POPC     H8Y      HAL2     0.900000E-01   1.00800           0
     28222 MEMB     239      POPC     C39      CTL2    -0.180000       12.0110           0
     28223 MEMB     239      POPC     H9X      HAL2     0.900000E-01   1.00800           0
     28224 MEMB     239      POPC     H9Y      HAL2     0.900000E-01   1.00800           0
     28225 MEMB     239      POPC     C310     CTL2    -0.180000       12.0110           0
     28226 MEMB     239      POPC     H10X     HAL2     0.900000E-01   1.00800           0
     28227 MEMB     239      POPC     H10Y     HAL2     0.900000E-01   1.00800           0
     28228 MEMB     239      POPC     C311     CTL2    -0.180000       12.0110           0
     28229 MEMB     239      POPC     H11X     HAL2     0.900000E-01   1.00800           0
     28230 MEMB     239      POPC     H11Y     HAL2     0.900000E-01   1.00800           0
     28231 MEMB     239      POPC     C312     CTL2    -0.180000       12.0110           0
     28232 MEMB     239      POPC     H12X     HAL2     0.900000E-01   1.00800           0
     28233 MEMB     239      POPC     H12Y     HAL2     0.900000E-01   1.00800           0
     28234 MEMB     239      POPC     C313     CTL2    -0.180000       12.0110           0
     28235 MEMB     239      POPC     H13X     HAL2     0.900000E-01   1.00800           0
     28236 MEMB     239      POPC     H13Y     HAL2     0.900000E-01   1.00800           0
     28237 MEMB     239      POPC     C314     CTL2    -0.180000       12.0110           0
     28238 MEMB     239      POPC     H14X     HAL2     0.900000E-01   1.00800           0
     28239 MEMB     239      POPC     H14Y     HAL2     0.900000E-01   1.00800           0
     28240 MEMB     239      POPC     C315     CTL2    -0.180000       12.0110           0
     28241 MEMB     239      POPC     H15X     HAL2     0.900000E-01   1.00800           0
     28242 MEMB     239      POPC     H15Y     HAL2     0.900000E-01   1.00800           0
     28243 MEMB     239      POPC     C316     CTL3    -0.270000       12.0110           0
     28244 MEMB     239      POPC     H16X     HAL3     0.900000E-01   1.00800           0
     28245 MEMB     239      POPC     H16Y     HAL3     0.900000E-01   1.00800           0
     28246 MEMB     239      POPC     H16Z     HAL3     0.900000E-01   1.00800           0
     28247 MEMB     240      POPC     N        NTL     -0.600000       14.0070           0
     28248 MEMB     240      POPC     C12      CTL2    -0.100000       12.0110           0
     28249 MEMB     240      POPC     H12A     HL       0.250000       1.00800           0
     28250 MEMB     240      POPC     H12B     HL       0.250000       1.00800           0
     28251 MEMB     240      POPC     C13      CTL5    -0.350000       12.0110           0
     28252 MEMB     240      POPC     H13A     HL       0.250000       1.00800           0
     28253 MEMB     240      POPC     H13B     HL       0.250000       1.00800           0
     28254 MEMB     240      POPC     H13C     HL       0.250000       1.00800           0
     28255 MEMB     240      POPC     C14      CTL5    -0.350000       12.0110           0
     28256 MEMB     240      POPC     H14A     HL       0.250000       1.00800           0
     28257 MEMB     240      POPC     H14B     HL       0.250000       1.00800           0
     28258 MEMB     240      POPC     H14C     HL       0.250000       1.00800           0
     28259 MEMB     240      POPC     C15      CTL5    -0.350000       12.0110           0
     28260 MEMB     240      POPC     H15A     HL       0.250000       1.00800           0
     28261 MEMB     240      POPC     H15B     HL       0.250000       1.00800           0
     28262 MEMB     240      POPC     H15C     HL       0.250000       1.00800           0
     28263 MEMB     240      POPC     C11      CTL2    -0.800000E-01   12.0110           0
     28264 MEMB     240      POPC     H11A     HAL2     0.900000E-01   1.00800           0
     28265 MEMB     240      POPC     H11B     HAL2     0.900000E-01   1.00800           0
     28266 MEMB     240      POPC     P        PL        1.50000       30.9740           0
     28267 MEMB     240      POPC     O13      O2L     -0.780000       15.9994           0
     28268 MEMB     240      POPC     O14      O2L     -0.780000       15.9994           0
     28269 MEMB     240      POPC     O12      OSLP    -0.570000       15.9994           0
     28270 MEMB     240      POPC     O11      OSLP    -0.570000       15.9994           0
     28271 MEMB     240      POPC     C1       CTL2    -0.800000E-01   12.0110           0
     28272 MEMB     240      POPC     HA       HAL2     0.900000E-01   1.00800           0
     28273 MEMB     240      POPC     HB       HAL2     0.900000E-01   1.00800           0
     28274 MEMB     240      POPC     C2       CTL1     0.170000       12.0110           0
     28275 MEMB     240      POPC     HS       HAL1     0.900000E-01   1.00800           0
     28276 MEMB     240      POPC     O21      OSL     -0.490000       15.9994           0
     28277 MEMB     240      POPC     C21      CL       0.900000       12.0110           0
     28278 MEMB     240      POPC     O22      OBL     -0.630000       15.9994           0
     28279 MEMB     240      POPC     C22      CTL2    -0.220000       12.0110           0
     28280 MEMB     240      POPC     H2R      HAL2     0.900000E-01   1.00800           0
     28281 MEMB     240      POPC     H2S      HAL2     0.900000E-01   1.00800           0
     28282 MEMB     240      POPC     C3       CTL2     0.800000E-01   12.0110           0
     28283 MEMB     240      POPC     HX       HAL2     0.900000E-01   1.00800           0
     28284 MEMB     240      POPC     HY       HAL2     0.900000E-01   1.00800           0
     28285 MEMB     240      POPC     O31      OSL     -0.490000       15.9994           0
     28286 MEMB     240      POPC     C31      CL       0.900000       12.0110           0
     28287 MEMB     240      POPC     O32      OBL     -0.630000       15.9994           0
     28288 MEMB     240      POPC     C32      CTL2    -0.220000       12.0110           0
     28289 MEMB     240      POPC     H2X      HAL2     0.900000E-01   1.00800           0
     28290 MEMB     240      POPC     H2Y      HAL2     0.900000E-01   1.00800           0
     28291 MEMB     240      POPC     C23      CTL2    -0.180000       12.0110           0
     28292 MEMB     240      POPC     H3R      HAL2     0.900000E-01   1.00800           0
     28293 MEMB     240      POPC     H3S      HAL2     0.900000E-01   1.00800           0
     28294 MEMB     240      POPC     C24      CTL2    -0.180000       12.0110           0
     28295 MEMB     240      POPC     H4R      HAL2     0.900000E-01   1.00800           0
     28296 MEMB     240      POPC     H4S      HAL2     0.900000E-01   1.00800           0
     28297 MEMB     240      POPC     C25      CTL2    -0.180000       12.0110           0
     28298 MEMB     240      POPC     H5R      HAL2     0.900000E-01   1.00800           0
     28299 MEMB     240      POPC     H5S      HAL2     0.900000E-01   1.00800           0
     28300 MEMB     240      POPC     C26      CTL2    -0.180000       12.0110           0
     28301 MEMB     240      POPC     H6R      HAL2     0.900000E-01   1.00800           0
     28302 MEMB     240      POPC     H6S      HAL2     0.900000E-01   1.00800           0
     28303 MEMB     240      POPC     C27      CTL2    -0.180000       12.0110           0
     28304 MEMB     240      POPC     H7R      HAL2     0.900000E-01   1.00800           0
     28305 MEMB     240      POPC     H7S      HAL2     0.900000E-01   1.00800           0
     28306 MEMB     240      POPC     C28      CTL2    -0.180000       12.0110           0
     28307 MEMB     240      POPC     H8R      HAL2     0.900000E-01   1.00800           0
     28308 MEMB     240      POPC     H8S      HAL2     0.900000E-01   1.00800           0
     28309 MEMB     240      POPC     C29      CEL1    -0.150000       12.0110           0
     28310 MEMB     240      POPC     H91      HEL1     0.150000       1.00800           0
     28311 MEMB     240      POPC     C210     CEL1    -0.150000       12.0110           0
     28312 MEMB     240      POPC     H101     HEL1     0.150000       1.00800           0
     28313 MEMB     240      POPC     C211     CTL2    -0.180000       12.0110           0
     28314 MEMB     240      POPC     H11R     HAL2     0.900000E-01   1.00800           0
     28315 MEMB     240      POPC     H11S     HAL2     0.900000E-01   1.00800           0
     28316 MEMB     240      POPC     C212     CTL2    -0.180000       12.0110           0
     28317 MEMB     240      POPC     H12R     HAL2     0.900000E-01   1.00800           0
     28318 MEMB     240      POPC     H12S     HAL2     0.900000E-01   1.00800           0
     28319 MEMB     240      POPC     C213     CTL2    -0.180000       12.0110           0
     28320 MEMB     240      POPC     H13R     HAL2     0.900000E-01   1.00800           0
     28321 MEMB     240      POPC     H13S     HAL2     0.900000E-01   1.00800           0
     28322 MEMB     240      POPC     C214     CTL2    -0.180000       12.0110           0
     28323 MEMB     240      POPC     H14R     HAL2     0.900000E-01   1.00800           0
     28324 MEMB     240      POPC     H14S     HAL2     0.900000E-01   1.00800           0
     28325 MEMB     240      POPC     C215     CTL2    -0.180000       12.0110           0
     28326 MEMB     240      POPC     H15R     HAL2     0.900000E-01   1.00800           0
     28327 MEMB     240      POPC     H15S     HAL2     0.900000E-01   1.00800           0
     28328 MEMB     240      POPC     C216     CTL2    -0.180000       12.0110           0
     28329 MEMB     240      POPC     H16R     HAL2     0.900000E-01   1.00800           0
     28330 MEMB     240      POPC     H16S     HAL2     0.900000E-01   1.00800           0
     28331 MEMB     240      POPC     C217     CTL2    -0.180000       12.0110           0
     28332 MEMB     240      POPC     H17R     HAL2     0.900000E-01   1.00800           0
     28333 MEMB     240      POPC     H17S     HAL2     0.900000E-01   1.00800           0
     28334 MEMB     240      POPC     C218     CTL3    -0.270000       12.0110           0
     28335 MEMB     240      POPC     H18R     HAL3     0.900000E-01   1.00800           0
     28336 MEMB     240      POPC     H18S     HAL3     0.900000E-01   1.00800           0
     28337 MEMB     240      POPC     H18T     HAL3     0.900000E-01   1.00800           0
     28338 MEMB     240      POPC     C33      CTL2    -0.180000       12.0110           0
     28339 MEMB     240      POPC     H3X      HAL2     0.900000E-01   1.00800           0
     28340 MEMB     240      POPC     H3Y      HAL2     0.900000E-01   1.00800           0
     28341 MEMB     240      POPC     C34      CTL2    -0.180000       12.0110           0
     28342 MEMB     240      POPC     H4X      HAL2     0.900000E-01   1.00800           0
     28343 MEMB     240      POPC     H4Y      HAL2     0.900000E-01   1.00800           0
     28344 MEMB     240      POPC     C35      CTL2    -0.180000       12.0110           0
     28345 MEMB     240      POPC     H5X      HAL2     0.900000E-01   1.00800           0
     28346 MEMB     240      POPC     H5Y      HAL2     0.900000E-01   1.00800           0
     28347 MEMB     240      POPC     C36      CTL2    -0.180000       12.0110           0
     28348 MEMB     240      POPC     H6X      HAL2     0.900000E-01   1.00800           0
     28349 MEMB     240      POPC     H6Y      HAL2     0.900000E-01   1.00800           0
     28350 MEMB     240      POPC     C37      CTL2    -0.180000       12.0110           0
     28351 MEMB     240      POPC     H7X      HAL2     0.900000E-01   1.00800           0
     28352 MEMB     240      POPC     H7Y      HAL2     0.900000E-01   1.00800           0
     28353 MEMB     240      POPC     C38      CTL2    -0.180000       12.0110           0
     28354 MEMB     240      POPC     H8X      HAL2     0.900000E-01   1.00800           0
     28355 MEMB     240      POPC     H8Y      HAL2     0.900000E-01   1.00800           0
     28356 MEMB     240      POPC     C39      CTL2    -0.180000       12.0110           0
     28357 MEMB     240      POPC     H9X      HAL2     0.900000E-01   1.00800           0
     28358 MEMB     240      POPC     H9Y      HAL2     0.900000E-01   1.00800           0
     28359 MEMB     240      POPC     C310     CTL2    -0.180000       12.0110           0
     28360 MEMB     240      POPC     H10X     HAL2     0.900000E-01   1.00800           0
     28361 MEMB     240      POPC     H10Y     HAL2     0.900000E-01   1.00800           0
     28362 MEMB     240      POPC     C311     CTL2    -0.180000       12.0110           0
     28363 MEMB     240      POPC     H11X     HAL2     0.900000E-01   1.00800           0
     28364 MEMB     240      POPC     H11Y     HAL2     0.900000E-01   1.00800           0
     28365 MEMB     240      POPC     C312     CTL2    -0.180000       12.0110           0
     28366 MEMB     240      POPC     H12X     HAL2     0.900000E-01   1.00800           0
     28367 MEMB     240      POPC     H12Y     HAL2     0.900000E-01   1.00800           0
     28368 MEMB     240      POPC     C313     CTL2    -0.180000       12.0110           0
     28369 MEMB     240      POPC     H13X     HAL2     0.900000E-01   1.00800           0
     28370 MEMB     240      POPC     H13Y     HAL2     0.900000E-01   1.00800           0
     28371 MEMB     240      POPC     C314     CTL2    -0.180000       12.0110           0
     28372 MEMB     240      POPC     H14X     HAL2     0.900000E-01   1.00800           0
     28373 MEMB     240      POPC     H14Y     HAL2     0.900000E-01   1.00800           0
     28374 MEMB     240      POPC     C315     CTL2    -0.180000       12.0110           0
     28375 MEMB     240      POPC     H15X     HAL2     0.900000E-01   1.00800           0
     28376 MEMB     240      POPC     H15Y     HAL2     0.900000E-01   1.00800           0
     28377 MEMB     240      POPC     C316     CTL3    -0.270000       12.0110           0
     28378 MEMB     240      POPC     H16X     HAL3     0.900000E-01   1.00800           0
     28379 MEMB     240      POPC     H16Y     HAL3     0.900000E-01   1.00800           0
     28380 MEMB     240      POPC     H16Z     HAL3     0.900000E-01   1.00800           0
     28381 MEMB     241      POPC     N        NTL     -0.600000       14.0070           0
     28382 MEMB     241      POPC     C12      CTL2    -0.100000       12.0110           0
     28383 MEMB     241      POPC     H12A     HL       0.250000       1.00800           0
     28384 MEMB     241      POPC     H12B     HL       0.250000       1.00800           0
     28385 MEMB     241      POPC     C13      CTL5    -0.350000       12.0110           0
     28386 MEMB     241      POPC     H13A     HL       0.250000       1.00800           0
     28387 MEMB     241      POPC     H13B     HL       0.250000       1.00800           0
     28388 MEMB     241      POPC     H13C     HL       0.250000       1.00800           0
     28389 MEMB     241      POPC     C14      CTL5    -0.350000       12.0110           0
     28390 MEMB     241      POPC     H14A     HL       0.250000       1.00800           0
     28391 MEMB     241      POPC     H14B     HL       0.250000       1.00800           0
     28392 MEMB     241      POPC     H14C     HL       0.250000       1.00800           0
     28393 MEMB     241      POPC     C15      CTL5    -0.350000       12.0110           0
     28394 MEMB     241      POPC     H15A     HL       0.250000       1.00800           0
     28395 MEMB     241      POPC     H15B     HL       0.250000       1.00800           0
     28396 MEMB     241      POPC     H15C     HL       0.250000       1.00800           0
     28397 MEMB     241      POPC     C11      CTL2    -0.800000E-01   12.0110           0
     28398 MEMB     241      POPC     H11A     HAL2     0.900000E-01   1.00800           0
     28399 MEMB     241      POPC     H11B     HAL2     0.900000E-01   1.00800           0
     28400 MEMB     241      POPC     P        PL        1.50000       30.9740           0
     28401 MEMB     241      POPC     O13      O2L     -0.780000       15.9994           0
     28402 MEMB     241      POPC     O14      O2L     -0.780000       15.9994           0
     28403 MEMB     241      POPC     O12      OSLP    -0.570000       15.9994           0
     28404 MEMB     241      POPC     O11      OSLP    -0.570000       15.9994           0
     28405 MEMB     241      POPC     C1       CTL2    -0.800000E-01   12.0110           0
     28406 MEMB     241      POPC     HA       HAL2     0.900000E-01   1.00800           0
     28407 MEMB     241      POPC     HB       HAL2     0.900000E-01   1.00800           0
     28408 MEMB     241      POPC     C2       CTL1     0.170000       12.0110           0
     28409 MEMB     241      POPC     HS       HAL1     0.900000E-01   1.00800           0
     28410 MEMB     241      POPC     O21      OSL     -0.490000       15.9994           0
     28411 MEMB     241      POPC     C21      CL       0.900000       12.0110           0
     28412 MEMB     241      POPC     O22      OBL     -0.630000       15.9994           0
     28413 MEMB     241      POPC     C22      CTL2    -0.220000       12.0110           0
     28414 MEMB     241      POPC     H2R      HAL2     0.900000E-01   1.00800           0
     28415 MEMB     241      POPC     H2S      HAL2     0.900000E-01   1.00800           0
     28416 MEMB     241      POPC     C3       CTL2     0.800000E-01   12.0110           0
     28417 MEMB     241      POPC     HX       HAL2     0.900000E-01   1.00800           0
     28418 MEMB     241      POPC     HY       HAL2     0.900000E-01   1.00800           0
     28419 MEMB     241      POPC     O31      OSL     -0.490000       15.9994           0
     28420 MEMB     241      POPC     C31      CL       0.900000       12.0110           0
     28421 MEMB     241      POPC     O32      OBL     -0.630000       15.9994           0
     28422 MEMB     241      POPC     C32      CTL2    -0.220000       12.0110           0
     28423 MEMB     241      POPC     H2X      HAL2     0.900000E-01   1.00800           0
     28424 MEMB     241      POPC     H2Y      HAL2     0.900000E-01   1.00800           0
     28425 MEMB     241      POPC     C23      CTL2    -0.180000       12.0110           0
     28426 MEMB     241      POPC     H3R      HAL2     0.900000E-01   1.00800           0
     28427 MEMB     241      POPC     H3S      HAL2     0.900000E-01   1.00800           0
     28428 MEMB     241      POPC     C24      CTL2    -0.180000       12.0110           0
     28429 MEMB     241      POPC     H4R      HAL2     0.900000E-01   1.00800           0
     28430 MEMB     241      POPC     H4S      HAL2     0.900000E-01   1.00800           0
     28431 MEMB     241      POPC     C25      CTL2    -0.180000       12.0110           0
     28432 MEMB     241      POPC     H5R      HAL2     0.900000E-01   1.00800           0
     28433 MEMB     241      POPC     H5S      HAL2     0.900000E-01   1.00800           0
     28434 MEMB     241      POPC     C26      CTL2    -0.180000       12.0110           0
     28435 MEMB     241      POPC     H6R      HAL2     0.900000E-01   1.00800           0
     28436 MEMB     241      POPC     H6S      HAL2     0.900000E-01   1.00800           0
     28437 MEMB     241      POPC     C27      CTL2    -0.180000       12.0110           0
     28438 MEMB     241      POPC     H7R      HAL2     0.900000E-01   1.00800           0
     28439 MEMB     241      POPC     H7S      HAL2     0.900000E-01   1.00800           0
     28440 MEMB     241      POPC     C28      CTL2    -0.180000       12.0110           0
     28441 MEMB     241      POPC     H8R      HAL2     0.900000E-01   1.00800           0
     28442 MEMB     241      POPC     H8S      HAL2     0.900000E-01   1.00800           0
     28443 MEMB     241      POPC     C29      CEL1    -0.150000       12.0110           0
     28444 MEMB     241      POPC     H91      HEL1     0.150000       1.00800           0
     28445 MEMB     241      POPC     C210     CEL1    -0.150000       12.0110           0
     28446 MEMB     241      POPC     H101     HEL1     0.150000       1.00800           0
     28447 MEMB     241      POPC     C211     CTL2    -0.180000       12.0110           0
     28448 MEMB     241      POPC     H11R     HAL2     0.900000E-01   1.00800           0
     28449 MEMB     241      POPC     H11S     HAL2     0.900000E-01   1.00800           0
     28450 MEMB     241      POPC     C212     CTL2    -0.180000       12.0110           0
     28451 MEMB     241      POPC     H12R     HAL2     0.900000E-01   1.00800           0
     28452 MEMB     241      POPC     H12S     HAL2     0.900000E-01   1.00800           0
     28453 MEMB     241      POPC     C213     CTL2    -0.180000       12.0110           0
     28454 MEMB     241      POPC     H13R     HAL2     0.900000E-01   1.00800           0
     28455 MEMB     241      POPC     H13S     HAL2     0.900000E-01   1.00800           0
     28456 MEMB     241      POPC     C214     CTL2    -0.180000       12.0110           0
     28457 MEMB     241      POPC     H14R     HAL2     0.900000E-01   1.00800           0
     28458 MEMB     241      POPC     H14S     HAL2     0.900000E-01   1.00800           0
     28459 MEMB     241      POPC     C215     CTL2    -0.180000       12.0110           0
     28460 MEMB     241      POPC     H15R     HAL2     0.900000E-01   1.00800           0
     28461 MEMB     241      POPC     H15S     HAL2     0.900000E-01   1.00800           0
     28462 MEMB     241      POPC     C216     CTL2    -0.180000       12.0110           0
     28463 MEMB     241      POPC     H16R     HAL2     0.900000E-01   1.00800           0
     28464 MEMB     241      POPC     H16S     HAL2     0.900000E-01   1.00800           0
     28465 MEMB     241      POPC     C217     CTL2    -0.180000       12.0110           0
     28466 MEMB     241      POPC     H17R     HAL2     0.900000E-01   1.00800           0
     28467 MEMB     241      POPC     H17S     HAL2     0.900000E-01   1.00800           0
     28468 MEMB     241      POPC     C218     CTL3    -0.270000       12.0110           0
     28469 MEMB     241      POPC     H18R     HAL3     0.900000E-01   1.00800           0
     28470 MEMB     241      POPC     H18S     HAL3     0.900000E-01   1.00800           0
     28471 MEMB     241      POPC     H18T     HAL3     0.900000E-01   1.00800           0
     28472 MEMB     241      POPC     C33      CTL2    -0.180000       12.0110           0
     28473 MEMB     241      POPC     H3X      HAL2     0.900000E-01   1.00800           0
     28474 MEMB     241      POPC     H3Y      HAL2     0.900000E-01   1.00800           0
     28475 MEMB     241      POPC     C34      CTL2    -0.180000       12.0110           0
     28476 MEMB     241      POPC     H4X      HAL2     0.900000E-01   1.00800           0
     28477 MEMB     241      POPC     H4Y      HAL2     0.900000E-01   1.00800           0
     28478 MEMB     241      POPC     C35      CTL2    -0.180000       12.0110           0
     28479 MEMB     241      POPC     H5X      HAL2     0.900000E-01   1.00800           0
     28480 MEMB     241      POPC     H5Y      HAL2     0.900000E-01   1.00800           0
     28481 MEMB     241      POPC     C36      CTL2    -0.180000       12.0110           0
     28482 MEMB     241      POPC     H6X      HAL2     0.900000E-01   1.00800           0
     28483 MEMB     241      POPC     H6Y      HAL2     0.900000E-01   1.00800           0
     28484 MEMB     241      POPC     C37      CTL2    -0.180000       12.0110           0
     28485 MEMB     241      POPC     H7X      HAL2     0.900000E-01   1.00800           0
     28486 MEMB     241      POPC     H7Y      HAL2     0.900000E-01   1.00800           0
     28487 MEMB     241      POPC     C38      CTL2    -0.180000       12.0110           0
     28488 MEMB     241      POPC     H8X      HAL2     0.900000E-01   1.00800           0
     28489 MEMB     241      POPC     H8Y      HAL2     0.900000E-01   1.00800           0
     28490 MEMB     241      POPC     C39      CTL2    -0.180000       12.0110           0
     28491 MEMB     241      POPC     H9X      HAL2     0.900000E-01   1.00800           0
     28492 MEMB     241      POPC     H9Y      HAL2     0.900000E-01   1.00800           0
     28493 MEMB     241      POPC     C310     CTL2    -0.180000       12.0110           0
     28494 MEMB     241      POPC     H10X     HAL2     0.900000E-01   1.00800           0
     28495 MEMB     241      POPC     H10Y     HAL2     0.900000E-01   1.00800           0
     28496 MEMB     241      POPC     C311     CTL2    -0.180000       12.0110           0
     28497 MEMB     241      POPC     H11X     HAL2     0.900000E-01   1.00800           0
     28498 MEMB     241      POPC     H11Y     HAL2     0.900000E-01   1.00800           0
     28499 MEMB     241      POPC     C312     CTL2    -0.180000       12.0110           0
     28500 MEMB     241      POPC     H12X     HAL2     0.900000E-01   1.00800           0
     28501 MEMB     241      POPC     H12Y     HAL2     0.900000E-01   1.00800           0
     28502 MEMB     241      POPC     C313     CTL2    -0.180000       12.0110           0
     28503 MEMB     241      POPC     H13X     HAL2     0.900000E-01   1.00800           0
     28504 MEMB     241      POPC     H13Y     HAL2     0.900000E-01   1.00800           0
     28505 MEMB     241      POPC     C314     CTL2    -0.180000       12.0110           0
     28506 MEMB     241      POPC     H14X     HAL2     0.900000E-01   1.00800           0
     28507 MEMB     241      POPC     H14Y     HAL2     0.900000E-01   1.00800           0
     28508 MEMB     241      POPC     C315     CTL2    -0.180000       12.0110           0
     28509 MEMB     241      POPC     H15X     HAL2     0.900000E-01   1.00800           0
     28510 MEMB     241      POPC     H15Y     HAL2     0.900000E-01   1.00800           0
     28511 MEMB     241      POPC     C316     CTL3    -0.270000       12.0110           0
     28512 MEMB     241      POPC     H16X     HAL3     0.900000E-01   1.00800           0
     28513 MEMB     241      POPC     H16Y     HAL3     0.900000E-01   1.00800           0
     28514 MEMB     241      POPC     H16Z     HAL3     0.900000E-01   1.00800           0
     28515 MEMB     242      POPC     N        NTL     -0.600000       14.0070           0
     28516 MEMB     242      POPC     C12      CTL2    -0.100000       12.0110           0
     28517 MEMB     242      POPC     H12A     HL       0.250000       1.00800           0
     28518 MEMB     242      POPC     H12B     HL       0.250000       1.00800           0
     28519 MEMB     242      POPC     C13      CTL5    -0.350000       12.0110           0
     28520 MEMB     242      POPC     H13A     HL       0.250000       1.00800           0
     28521 MEMB     242      POPC     H13B     HL       0.250000       1.00800           0
     28522 MEMB     242      POPC     H13C     HL       0.250000       1.00800           0
     28523 MEMB     242      POPC     C14      CTL5    -0.350000       12.0110           0
     28524 MEMB     242      POPC     H14A     HL       0.250000       1.00800           0
     28525 MEMB     242      POPC     H14B     HL       0.250000       1.00800           0
     28526 MEMB     242      POPC     H14C     HL       0.250000       1.00800           0
     28527 MEMB     242      POPC     C15      CTL5    -0.350000       12.0110           0
     28528 MEMB     242      POPC     H15A     HL       0.250000       1.00800           0
     28529 MEMB     242      POPC     H15B     HL       0.250000       1.00800           0
     28530 MEMB     242      POPC     H15C     HL       0.250000       1.00800           0
     28531 MEMB     242      POPC     C11      CTL2    -0.800000E-01   12.0110           0
     28532 MEMB     242      POPC     H11A     HAL2     0.900000E-01   1.00800           0
     28533 MEMB     242      POPC     H11B     HAL2     0.900000E-01   1.00800           0
     28534 MEMB     242      POPC     P        PL        1.50000       30.9740           0
     28535 MEMB     242      POPC     O13      O2L     -0.780000       15.9994           0
     28536 MEMB     242      POPC     O14      O2L     -0.780000       15.9994           0
     28537 MEMB     242      POPC     O12      OSLP    -0.570000       15.9994           0
     28538 MEMB     242      POPC     O11      OSLP    -0.570000       15.9994           0
     28539 MEMB     242      POPC     C1       CTL2    -0.800000E-01   12.0110           0
     28540 MEMB     242      POPC     HA       HAL2     0.900000E-01   1.00800           0
     28541 MEMB     242      POPC     HB       HAL2     0.900000E-01   1.00800           0
     28542 MEMB     242      POPC     C2       CTL1     0.170000       12.0110           0
     28543 MEMB     242      POPC     HS       HAL1     0.900000E-01   1.00800           0
     28544 MEMB     242      POPC     O21      OSL     -0.490000       15.9994           0
     28545 MEMB     242      POPC     C21      CL       0.900000       12.0110           0
     28546 MEMB     242      POPC     O22      OBL     -0.630000       15.9994           0
     28547 MEMB     242      POPC     C22      CTL2    -0.220000       12.0110           0
     28548 MEMB     242      POPC     H2R      HAL2     0.900000E-01   1.00800           0
     28549 MEMB     242      POPC     H2S      HAL2     0.900000E-01   1.00800           0
     28550 MEMB     242      POPC     C3       CTL2     0.800000E-01   12.0110           0
     28551 MEMB     242      POPC     HX       HAL2     0.900000E-01   1.00800           0
     28552 MEMB     242      POPC     HY       HAL2     0.900000E-01   1.00800           0
     28553 MEMB     242      POPC     O31      OSL     -0.490000       15.9994           0
     28554 MEMB     242      POPC     C31      CL       0.900000       12.0110           0
     28555 MEMB     242      POPC     O32      OBL     -0.630000       15.9994           0
     28556 MEMB     242      POPC     C32      CTL2    -0.220000       12.0110           0
     28557 MEMB     242      POPC     H2X      HAL2     0.900000E-01   1.00800           0
     28558 MEMB     242      POPC     H2Y      HAL2     0.900000E-01   1.00800           0
     28559 MEMB     242      POPC     C23      CTL2    -0.180000       12.0110           0
     28560 MEMB     242      POPC     H3R      HAL2     0.900000E-01   1.00800           0
     28561 MEMB     242      POPC     H3S      HAL2     0.900000E-01   1.00800           0
     28562 MEMB     242      POPC     C24      CTL2    -0.180000       12.0110           0
     28563 MEMB     242      POPC     H4R      HAL2     0.900000E-01   1.00800           0
     28564 MEMB     242      POPC     H4S      HAL2     0.900000E-01   1.00800           0
     28565 MEMB     242      POPC     C25      CTL2    -0.180000       12.0110           0
     28566 MEMB     242      POPC     H5R      HAL2     0.900000E-01   1.00800           0
     28567 MEMB     242      POPC     H5S      HAL2     0.900000E-01   1.00800           0
     28568 MEMB     242      POPC     C26      CTL2    -0.180000       12.0110           0
     28569 MEMB     242      POPC     H6R      HAL2     0.900000E-01   1.00800           0
     28570 MEMB     242      POPC     H6S      HAL2     0.900000E-01   1.00800           0
     28571 MEMB     242      POPC     C27      CTL2    -0.180000       12.0110           0
     28572 MEMB     242      POPC     H7R      HAL2     0.900000E-01   1.00800           0
     28573 MEMB     242      POPC     H7S      HAL2     0.900000E-01   1.00800           0
     28574 MEMB     242      POPC     C28      CTL2    -0.180000       12.0110           0
     28575 MEMB     242      POPC     H8R      HAL2     0.900000E-01   1.00800           0
     28576 MEMB     242      POPC     H8S      HAL2     0.900000E-01   1.00800           0
     28577 MEMB     242      POPC     C29      CEL1    -0.150000       12.0110           0
     28578 MEMB     242      POPC     H91      HEL1     0.150000       1.00800           0
     28579 MEMB     242      POPC     C210     CEL1    -0.150000       12.0110           0
     28580 MEMB     242      POPC     H101     HEL1     0.150000       1.00800           0
     28581 MEMB     242      POPC     C211     CTL2    -0.180000       12.0110           0
     28582 MEMB     242      POPC     H11R     HAL2     0.900000E-01   1.00800           0
     28583 MEMB     242      POPC     H11S     HAL2     0.900000E-01   1.00800           0
     28584 MEMB     242      POPC     C212     CTL2    -0.180000       12.0110           0
     28585 MEMB     242      POPC     H12R     HAL2     0.900000E-01   1.00800           0
     28586 MEMB     242      POPC     H12S     HAL2     0.900000E-01   1.00800           0
     28587 MEMB     242      POPC     C213     CTL2    -0.180000       12.0110           0
     28588 MEMB     242      POPC     H13R     HAL2     0.900000E-01   1.00800           0
     28589 MEMB     242      POPC     H13S     HAL2     0.900000E-01   1.00800           0
     28590 MEMB     242      POPC     C214     CTL2    -0.180000       12.0110           0
     28591 MEMB     242      POPC     H14R     HAL2     0.900000E-01   1.00800           0
     28592 MEMB     242      POPC     H14S     HAL2     0.900000E-01   1.00800           0
     28593 MEMB     242      POPC     C215     CTL2    -0.180000       12.0110           0
     28594 MEMB     242      POPC     H15R     HAL2     0.900000E-01   1.00800           0
     28595 MEMB     242      POPC     H15S     HAL2     0.900000E-01   1.00800           0
     28596 MEMB     242      POPC     C216     CTL2    -0.180000       12.0110           0
     28597 MEMB     242      POPC     H16R     HAL2     0.900000E-01   1.00800           0
     28598 MEMB     242      POPC     H16S     HAL2     0.900000E-01   1.00800           0
     28599 MEMB     242      POPC     C217     CTL2    -0.180000       12.0110           0
     28600 MEMB     242      POPC     H17R     HAL2     0.900000E-01   1.00800           0
     28601 MEMB     242      POPC     H17S     HAL2     0.900000E-01   1.00800           0
     28602 MEMB     242      POPC     C218     CTL3    -0.270000       12.0110           0
     28603 MEMB     242      POPC     H18R     HAL3     0.900000E-01   1.00800           0
     28604 MEMB     242      POPC     H18S     HAL3     0.900000E-01   1.00800           0
     28605 MEMB     242      POPC     H18T     HAL3     0.900000E-01   1.00800           0
     28606 MEMB     242      POPC     C33      CTL2    -0.180000       12.0110           0
     28607 MEMB     242      POPC     H3X      HAL2     0.900000E-01   1.00800           0
     28608 MEMB     242      POPC     H3Y      HAL2     0.900000E-01   1.00800           0
     28609 MEMB     242      POPC     C34      CTL2    -0.180000       12.0110           0
     28610 MEMB     242      POPC     H4X      HAL2     0.900000E-01   1.00800           0
     28611 MEMB     242      POPC     H4Y      HAL2     0.900000E-01   1.00800           0
     28612 MEMB     242      POPC     C35      CTL2    -0.180000       12.0110           0
     28613 MEMB     242      POPC     H5X      HAL2     0.900000E-01   1.00800           0
     28614 MEMB     242      POPC     H5Y      HAL2     0.900000E-01   1.00800           0
     28615 MEMB     242      POPC     C36      CTL2    -0.180000       12.0110           0
     28616 MEMB     242      POPC     H6X      HAL2     0.900000E-01   1.00800           0
     28617 MEMB     242      POPC     H6Y      HAL2     0.900000E-01   1.00800           0
     28618 MEMB     242      POPC     C37      CTL2    -0.180000       12.0110           0
     28619 MEMB     242      POPC     H7X      HAL2     0.900000E-01   1.00800           0
     28620 MEMB     242      POPC     H7Y      HAL2     0.900000E-01   1.00800           0
     28621 MEMB     242      POPC     C38      CTL2    -0.180000       12.0110           0
     28622 MEMB     242      POPC     H8X      HAL2     0.900000E-01   1.00800           0
     28623 MEMB     242      POPC     H8Y      HAL2     0.900000E-01   1.00800           0
     28624 MEMB     242      POPC     C39      CTL2    -0.180000       12.0110           0
     28625 MEMB     242      POPC     H9X      HAL2     0.900000E-01   1.00800           0
     28626 MEMB     242      POPC     H9Y      HAL2     0.900000E-01   1.00800           0
     28627 MEMB     242      POPC     C310     CTL2    -0.180000       12.0110           0
     28628 MEMB     242      POPC     H10X     HAL2     0.900000E-01   1.00800           0
     28629 MEMB     242      POPC     H10Y     HAL2     0.900000E-01   1.00800           0
     28630 MEMB     242      POPC     C311     CTL2    -0.180000       12.0110           0
     28631 MEMB     242      POPC     H11X     HAL2     0.900000E-01   1.00800           0
     28632 MEMB     242      POPC     H11Y     HAL2     0.900000E-01   1.00800           0
     28633 MEMB     242      POPC     C312     CTL2    -0.180000       12.0110           0
     28634 MEMB     242      POPC     H12X     HAL2     0.900000E-01   1.00800           0
     28635 MEMB     242      POPC     H12Y     HAL2     0.900000E-01   1.00800           0
     28636 MEMB     242      POPC     C313     CTL2    -0.180000       12.0110           0
     28637 MEMB     242      POPC     H13X     HAL2     0.900000E-01   1.00800           0
     28638 MEMB     242      POPC     H13Y     HAL2     0.900000E-01   1.00800           0
     28639 MEMB     242      POPC     C314     CTL2    -0.180000       12.0110           0
     28640 MEMB     242      POPC     H14X     HAL2     0.900000E-01   1.00800           0
     28641 MEMB     242      POPC     H14Y     HAL2     0.900000E-01   1.00800           0
     28642 MEMB     242      POPC     C315     CTL2    -0.180000       12.0110           0
     28643 MEMB     242      POPC     H15X     HAL2     0.900000E-01   1.00800           0
     28644 MEMB     242      POPC     H15Y     HAL2     0.900000E-01   1.00800           0
     28645 MEMB     242      POPC     C316     CTL3    -0.270000       12.0110           0
     28646 MEMB     242      POPC     H16X     HAL3     0.900000E-01   1.00800           0
     28647 MEMB     242      POPC     H16Y     HAL3     0.900000E-01   1.00800           0
     28648 MEMB     242      POPC     H16Z     HAL3     0.900000E-01   1.00800           0
     28649 MEMB     243      POPC     N        NTL     -0.600000       14.0070           0
     28650 MEMB     243      POPC     C12      CTL2    -0.100000       12.0110           0
     28651 MEMB     243      POPC     H12A     HL       0.250000       1.00800           0
     28652 MEMB     243      POPC     H12B     HL       0.250000       1.00800           0
     28653 MEMB     243      POPC     C13      CTL5    -0.350000       12.0110           0
     28654 MEMB     243      POPC     H13A     HL       0.250000       1.00800           0
     28655 MEMB     243      POPC     H13B     HL       0.250000       1.00800           0
     28656 MEMB     243      POPC     H13C     HL       0.250000       1.00800           0
     28657 MEMB     243      POPC     C14      CTL5    -0.350000       12.0110           0
     28658 MEMB     243      POPC     H14A     HL       0.250000       1.00800           0
     28659 MEMB     243      POPC     H14B     HL       0.250000       1.00800           0
     28660 MEMB     243      POPC     H14C     HL       0.250000       1.00800           0
     28661 MEMB     243      POPC     C15      CTL5    -0.350000       12.0110           0
     28662 MEMB     243      POPC     H15A     HL       0.250000       1.00800           0
     28663 MEMB     243      POPC     H15B     HL       0.250000       1.00800           0
     28664 MEMB     243      POPC     H15C     HL       0.250000       1.00800           0
     28665 MEMB     243      POPC     C11      CTL2    -0.800000E-01   12.0110           0
     28666 MEMB     243      POPC     H11A     HAL2     0.900000E-01   1.00800           0
     28667 MEMB     243      POPC     H11B     HAL2     0.900000E-01   1.00800           0
     28668 MEMB     243      POPC     P        PL        1.50000       30.9740           0
     28669 MEMB     243      POPC     O13      O2L     -0.780000       15.9994           0
     28670 MEMB     243      POPC     O14      O2L     -0.780000       15.9994           0
     28671 MEMB     243      POPC     O12      OSLP    -0.570000       15.9994           0
     28672 MEMB     243      POPC     O11      OSLP    -0.570000       15.9994           0
     28673 MEMB     243      POPC     C1       CTL2    -0.800000E-01   12.0110           0
     28674 MEMB     243      POPC     HA       HAL2     0.900000E-01   1.00800           0
     28675 MEMB     243      POPC     HB       HAL2     0.900000E-01   1.00800           0
     28676 MEMB     243      POPC     C2       CTL1     0.170000       12.0110           0
     28677 MEMB     243      POPC     HS       HAL1     0.900000E-01   1.00800           0
     28678 MEMB     243      POPC     O21      OSL     -0.490000       15.9994           0
     28679 MEMB     243      POPC     C21      CL       0.900000       12.0110           0
     28680 MEMB     243      POPC     O22      OBL     -0.630000       15.9994           0
     28681 MEMB     243      POPC     C22      CTL2    -0.220000       12.0110           0
     28682 MEMB     243      POPC     H2R      HAL2     0.900000E-01   1.00800           0
     28683 MEMB     243      POPC     H2S      HAL2     0.900000E-01   1.00800           0
     28684 MEMB     243      POPC     C3       CTL2     0.800000E-01   12.0110           0
     28685 MEMB     243      POPC     HX       HAL2     0.900000E-01   1.00800           0
     28686 MEMB     243      POPC     HY       HAL2     0.900000E-01   1.00800           0
     28687 MEMB     243      POPC     O31      OSL     -0.490000       15.9994           0
     28688 MEMB     243      POPC     C31      CL       0.900000       12.0110           0
     28689 MEMB     243      POPC     O32      OBL     -0.630000       15.9994           0
     28690 MEMB     243      POPC     C32      CTL2    -0.220000       12.0110           0
     28691 MEMB     243      POPC     H2X      HAL2     0.900000E-01   1.00800           0
     28692 MEMB     243      POPC     H2Y      HAL2     0.900000E-01   1.00800           0
     28693 MEMB     243      POPC     C23      CTL2    -0.180000       12.0110           0
     28694 MEMB     243      POPC     H3R      HAL2     0.900000E-01   1.00800           0
     28695 MEMB     243      POPC     H3S      HAL2     0.900000E-01   1.00800           0
     28696 MEMB     243      POPC     C24      CTL2    -0.180000       12.0110           0
     28697 MEMB     243      POPC     H4R      HAL2     0.900000E-01   1.00800           0
     28698 MEMB     243      POPC     H4S      HAL2     0.900000E-01   1.00800           0
     28699 MEMB     243      POPC     C25      CTL2    -0.180000       12.0110           0
     28700 MEMB     243      POPC     H5R      HAL2     0.900000E-01   1.00800           0
     28701 MEMB     243      POPC     H5S      HAL2     0.900000E-01   1.00800           0
     28702 MEMB     243      POPC     C26      CTL2    -0.180000       12.0110           0
     28703 MEMB     243      POPC     H6R      HAL2     0.900000E-01   1.00800           0
     28704 MEMB     243      POPC     H6S      HAL2     0.900000E-01   1.00800           0
     28705 MEMB     243      POPC     C27      CTL2    -0.180000       12.0110           0
     28706 MEMB     243      POPC     H7R      HAL2     0.900000E-01   1.00800           0
     28707 MEMB     243      POPC     H7S      HAL2     0.900000E-01   1.00800           0
     28708 MEMB     243      POPC     C28      CTL2    -0.180000       12.0110           0
     28709 MEMB     243      POPC     H8R      HAL2     0.900000E-01   1.00800           0
     28710 MEMB     243      POPC     H8S      HAL2     0.900000E-01   1.00800           0
     28711 MEMB     243      POPC     C29      CEL1    -0.150000       12.0110           0
     28712 MEMB     243      POPC     H91      HEL1     0.150000       1.00800           0
     28713 MEMB     243      POPC     C210     CEL1    -0.150000       12.0110           0
     28714 MEMB     243      POPC     H101     HEL1     0.150000       1.00800           0
     28715 MEMB     243      POPC     C211     CTL2    -0.180000       12.0110           0
     28716 MEMB     243      POPC     H11R     HAL2     0.900000E-01   1.00800           0
     28717 MEMB     243      POPC     H11S     HAL2     0.900000E-01   1.00800           0
     28718 MEMB     243      POPC     C212     CTL2    -0.180000       12.0110           0
     28719 MEMB     243      POPC     H12R     HAL2     0.900000E-01   1.00800           0
     28720 MEMB     243      POPC     H12S     HAL2     0.900000E-01   1.00800           0
     28721 MEMB     243      POPC     C213     CTL2    -0.180000       12.0110           0
     28722 MEMB     243      POPC     H13R     HAL2     0.900000E-01   1.00800           0
     28723 MEMB     243      POPC     H13S     HAL2     0.900000E-01   1.00800           0
     28724 MEMB     243      POPC     C214     CTL2    -0.180000       12.0110           0
     28725 MEMB     243      POPC     H14R     HAL2     0.900000E-01   1.00800           0
     28726 MEMB     243      POPC     H14S     HAL2     0.900000E-01   1.00800           0
     28727 MEMB     243      POPC     C215     CTL2    -0.180000       12.0110           0
     28728 MEMB     243      POPC     H15R     HAL2     0.900000E-01   1.00800           0
     28729 MEMB     243      POPC     H15S     HAL2     0.900000E-01   1.00800           0
     28730 MEMB     243      POPC     C216     CTL2    -0.180000       12.0110           0
     28731 MEMB     243      POPC     H16R     HAL2     0.900000E-01   1.00800           0
     28732 MEMB     243      POPC     H16S     HAL2     0.900000E-01   1.00800           0
     28733 MEMB     243      POPC     C217     CTL2    -0.180000       12.0110           0
     28734 MEMB     243      POPC     H17R     HAL2     0.900000E-01   1.00800           0
     28735 MEMB     243      POPC     H17S     HAL2     0.900000E-01   1.00800           0
     28736 MEMB     243      POPC     C218     CTL3    -0.270000       12.0110           0
     28737 MEMB     243      POPC     H18R     HAL3     0.900000E-01   1.00800           0
     28738 MEMB     243      POPC     H18S     HAL3     0.900000E-01   1.00800           0
     28739 MEMB     243      POPC     H18T     HAL3     0.900000E-01   1.00800           0
     28740 MEMB     243      POPC     C33      CTL2    -0.180000       12.0110           0
     28741 MEMB     243      POPC     H3X      HAL2     0.900000E-01   1.00800           0
     28742 MEMB     243      POPC     H3Y      HAL2     0.900000E-01   1.00800           0
     28743 MEMB     243      POPC     C34      CTL2    -0.180000       12.0110           0
     28744 MEMB     243      POPC     H4X      HAL2     0.900000E-01   1.00800           0
     28745 MEMB     243      POPC     H4Y      HAL2     0.900000E-01   1.00800           0
     28746 MEMB     243      POPC     C35      CTL2    -0.180000       12.0110           0
     28747 MEMB     243      POPC     H5X      HAL2     0.900000E-01   1.00800           0
     28748 MEMB     243      POPC     H5Y      HAL2     0.900000E-01   1.00800           0
     28749 MEMB     243      POPC     C36      CTL2    -0.180000       12.0110           0
     28750 MEMB     243      POPC     H6X      HAL2     0.900000E-01   1.00800           0
     28751 MEMB     243      POPC     H6Y      HAL2     0.900000E-01   1.00800           0
     28752 MEMB     243      POPC     C37      CTL2    -0.180000       12.0110           0
     28753 MEMB     243      POPC     H7X      HAL2     0.900000E-01   1.00800           0
     28754 MEMB     243      POPC     H7Y      HAL2     0.900000E-01   1.00800           0
     28755 MEMB     243      POPC     C38      CTL2    -0.180000       12.0110           0
     28756 MEMB     243      POPC     H8X      HAL2     0.900000E-01   1.00800           0
     28757 MEMB     243      POPC     H8Y      HAL2     0.900000E-01   1.00800           0
     28758 MEMB     243      POPC     C39      CTL2    -0.180000       12.0110           0
     28759 MEMB     243      POPC     H9X      HAL2     0.900000E-01   1.00800           0
     28760 MEMB     243      POPC     H9Y      HAL2     0.900000E-01   1.00800           0
     28761 MEMB     243      POPC     C310     CTL2    -0.180000       12.0110           0
     28762 MEMB     243      POPC     H10X     HAL2     0.900000E-01   1.00800           0
     28763 MEMB     243      POPC     H10Y     HAL2     0.900000E-01   1.00800           0
     28764 MEMB     243      POPC     C311     CTL2    -0.180000       12.0110           0
     28765 MEMB     243      POPC     H11X     HAL2     0.900000E-01   1.00800           0
     28766 MEMB     243      POPC     H11Y     HAL2     0.900000E-01   1.00800           0
     28767 MEMB     243      POPC     C312     CTL2    -0.180000       12.0110           0
     28768 MEMB     243      POPC     H12X     HAL2     0.900000E-01   1.00800           0
     28769 MEMB     243      POPC     H12Y     HAL2     0.900000E-01   1.00800           0
     28770 MEMB     243      POPC     C313     CTL2    -0.180000       12.0110           0
     28771 MEMB     243      POPC     H13X     HAL2     0.900000E-01   1.00800           0
     28772 MEMB     243      POPC     H13Y     HAL2     0.900000E-01   1.00800           0
     28773 MEMB     243      POPC     C314     CTL2    -0.180000       12.0110           0
     28774 MEMB     243      POPC     H14X     HAL2     0.900000E-01   1.00800           0
     28775 MEMB     243      POPC     H14Y     HAL2     0.900000E-01   1.00800           0
     28776 MEMB     243      POPC     C315     CTL2    -0.180000       12.0110           0
     28777 MEMB     243      POPC     H15X     HAL2     0.900000E-01   1.00800           0
     28778 MEMB     243      POPC     H15Y     HAL2     0.900000E-01   1.00800           0
     28779 MEMB     243      POPC     C316     CTL3    -0.270000       12.0110           0
     28780 MEMB     243      POPC     H16X     HAL3     0.900000E-01   1.00800           0
     28781 MEMB     243      POPC     H16Y     HAL3     0.900000E-01   1.00800           0
     28782 MEMB     243      POPC     H16Z     HAL3     0.900000E-01   1.00800           0
     28783 MEMB     244      POPC     N        NTL     -0.600000       14.0070           0
     28784 MEMB     244      POPC     C12      CTL2    -0.100000       12.0110           0
     28785 MEMB     244      POPC     H12A     HL       0.250000       1.00800           0
     28786 MEMB     244      POPC     H12B     HL       0.250000       1.00800           0
     28787 MEMB     244      POPC     C13      CTL5    -0.350000       12.0110           0
     28788 MEMB     244      POPC     H13A     HL       0.250000       1.00800           0
     28789 MEMB     244      POPC     H13B     HL       0.250000       1.00800           0
     28790 MEMB     244      POPC     H13C     HL       0.250000       1.00800           0
     28791 MEMB     244      POPC     C14      CTL5    -0.350000       12.0110           0
     28792 MEMB     244      POPC     H14A     HL       0.250000       1.00800           0
     28793 MEMB     244      POPC     H14B     HL       0.250000       1.00800           0
     28794 MEMB     244      POPC     H14C     HL       0.250000       1.00800           0
     28795 MEMB     244      POPC     C15      CTL5    -0.350000       12.0110           0
     28796 MEMB     244      POPC     H15A     HL       0.250000       1.00800           0
     28797 MEMB     244      POPC     H15B     HL       0.250000       1.00800           0
     28798 MEMB     244      POPC     H15C     HL       0.250000       1.00800           0
     28799 MEMB     244      POPC     C11      CTL2    -0.800000E-01   12.0110           0
     28800 MEMB     244      POPC     H11A     HAL2     0.900000E-01   1.00800           0
     28801 MEMB     244      POPC     H11B     HAL2     0.900000E-01   1.00800           0
     28802 MEMB     244      POPC     P        PL        1.50000       30.9740           0
     28803 MEMB     244      POPC     O13      O2L     -0.780000       15.9994           0
     28804 MEMB     244      POPC     O14      O2L     -0.780000       15.9994           0
     28805 MEMB     244      POPC     O12      OSLP    -0.570000       15.9994           0
     28806 MEMB     244      POPC     O11      OSLP    -0.570000       15.9994           0
     28807 MEMB     244      POPC     C1       CTL2    -0.800000E-01   12.0110           0
     28808 MEMB     244      POPC     HA       HAL2     0.900000E-01   1.00800           0
     28809 MEMB     244      POPC     HB       HAL2     0.900000E-01   1.00800           0
     28810 MEMB     244      POPC     C2       CTL1     0.170000       12.0110           0
     28811 MEMB     244      POPC     HS       HAL1     0.900000E-01   1.00800           0
     28812 MEMB     244      POPC     O21      OSL     -0.490000       15.9994           0
     28813 MEMB     244      POPC     C21      CL       0.900000       12.0110           0
     28814 MEMB     244      POPC     O22      OBL     -0.630000       15.9994           0
     28815 MEMB     244      POPC     C22      CTL2    -0.220000       12.0110           0
     28816 MEMB     244      POPC     H2R      HAL2     0.900000E-01   1.00800           0
     28817 MEMB     244      POPC     H2S      HAL2     0.900000E-01   1.00800           0
     28818 MEMB     244      POPC     C3       CTL2     0.800000E-01   12.0110           0
     28819 MEMB     244      POPC     HX       HAL2     0.900000E-01   1.00800           0
     28820 MEMB     244      POPC     HY       HAL2     0.900000E-01   1.00800           0
     28821 MEMB     244      POPC     O31      OSL     -0.490000       15.9994           0
     28822 MEMB     244      POPC     C31      CL       0.900000       12.0110           0
     28823 MEMB     244      POPC     O32      OBL     -0.630000       15.9994           0
     28824 MEMB     244      POPC     C32      CTL2    -0.220000       12.0110           0
     28825 MEMB     244      POPC     H2X      HAL2     0.900000E-01   1.00800           0
     28826 MEMB     244      POPC     H2Y      HAL2     0.900000E-01   1.00800           0
     28827 MEMB     244      POPC     C23      CTL2    -0.180000       12.0110           0
     28828 MEMB     244      POPC     H3R      HAL2     0.900000E-01   1.00800           0
     28829 MEMB     244      POPC     H3S      HAL2     0.900000E-01   1.00800           0
     28830 MEMB     244      POPC     C24      CTL2    -0.180000       12.0110           0
     28831 MEMB     244      POPC     H4R      HAL2     0.900000E-01   1.00800           0
     28832 MEMB     244      POPC     H4S      HAL2     0.900000E-01   1.00800           0
     28833 MEMB     244      POPC     C25      CTL2    -0.180000       12.0110           0
     28834 MEMB     244      POPC     H5R      HAL2     0.900000E-01   1.00800           0
     28835 MEMB     244      POPC     H5S      HAL2     0.900000E-01   1.00800           0
     28836 MEMB     244      POPC     C26      CTL2    -0.180000       12.0110           0
     28837 MEMB     244      POPC     H6R      HAL2     0.900000E-01   1.00800           0
     28838 MEMB     244      POPC     H6S      HAL2     0.900000E-01   1.00800           0
     28839 MEMB     244      POPC     C27      CTL2    -0.180000       12.0110           0
     28840 MEMB     244      POPC     H7R      HAL2     0.900000E-01   1.00800           0
     28841 MEMB     244      POPC     H7S      HAL2     0.900000E-01   1.00800           0
     28842 MEMB     244      POPC     C28      CTL2    -0.180000       12.0110           0
     28843 MEMB     244      POPC     H8R      HAL2     0.900000E-01   1.00800           0
     28844 MEMB     244      POPC     H8S      HAL2     0.900000E-01   1.00800           0
     28845 MEMB     244      POPC     C29      CEL1    -0.150000       12.0110           0
     28846 MEMB     244      POPC     H91      HEL1     0.150000       1.00800           0
     28847 MEMB     244      POPC     C210     CEL1    -0.150000       12.0110           0
     28848 MEMB     244      POPC     H101     HEL1     0.150000       1.00800           0
     28849 MEMB     244      POPC     C211     CTL2    -0.180000       12.0110           0
     28850 MEMB     244      POPC     H11R     HAL2     0.900000E-01   1.00800           0
     28851 MEMB     244      POPC     H11S     HAL2     0.900000E-01   1.00800           0
     28852 MEMB     244      POPC     C212     CTL2    -0.180000       12.0110           0
     28853 MEMB     244      POPC     H12R     HAL2     0.900000E-01   1.00800           0
     28854 MEMB     244      POPC     H12S     HAL2     0.900000E-01   1.00800           0
     28855 MEMB     244      POPC     C213     CTL2    -0.180000       12.0110           0
     28856 MEMB     244      POPC     H13R     HAL2     0.900000E-01   1.00800           0
     28857 MEMB     244      POPC     H13S     HAL2     0.900000E-01   1.00800           0
     28858 MEMB     244      POPC     C214     CTL2    -0.180000       12.0110           0
     28859 MEMB     244      POPC     H14R     HAL2     0.900000E-01   1.00800           0
     28860 MEMB     244      POPC     H14S     HAL2     0.900000E-01   1.00800           0
     28861 MEMB     244      POPC     C215     CTL2    -0.180000       12.0110           0
     28862 MEMB     244      POPC     H15R     HAL2     0.900000E-01   1.00800           0
     28863 MEMB     244      POPC     H15S     HAL2     0.900000E-01   1.00800           0
     28864 MEMB     244      POPC     C216     CTL2    -0.180000       12.0110           0
     28865 MEMB     244      POPC     H16R     HAL2     0.900000E-01   1.00800           0
     28866 MEMB     244      POPC     H16S     HAL2     0.900000E-01   1.00800           0
     28867 MEMB     244      POPC     C217     CTL2    -0.180000       12.0110           0
     28868 MEMB     244      POPC     H17R     HAL2     0.900000E-01   1.00800           0
     28869 MEMB     244      POPC     H17S     HAL2     0.900000E-01   1.00800           0
     28870 MEMB     244      POPC     C218     CTL3    -0.270000       12.0110           0
     28871 MEMB     244      POPC     H18R     HAL3     0.900000E-01   1.00800           0
     28872 MEMB     244      POPC     H18S     HAL3     0.900000E-01   1.00800           0
     28873 MEMB     244      POPC     H18T     HAL3     0.900000E-01   1.00800           0
     28874 MEMB     244      POPC     C33      CTL2    -0.180000       12.0110           0
     28875 MEMB     244      POPC     H3X      HAL2     0.900000E-01   1.00800           0
     28876 MEMB     244      POPC     H3Y      HAL2     0.900000E-01   1.00800           0
     28877 MEMB     244      POPC     C34      CTL2    -0.180000       12.0110           0
     28878 MEMB     244      POPC     H4X      HAL2     0.900000E-01   1.00800           0
     28879 MEMB     244      POPC     H4Y      HAL2     0.900000E-01   1.00800           0
     28880 MEMB     244      POPC     C35      CTL2    -0.180000       12.0110           0
     28881 MEMB     244      POPC     H5X      HAL2     0.900000E-01   1.00800           0
     28882 MEMB     244      POPC     H5Y      HAL2     0.900000E-01   1.00800           0
     28883 MEMB     244      POPC     C36      CTL2    -0.180000       12.0110           0
     28884 MEMB     244      POPC     H6X      HAL2     0.900000E-01   1.00800           0
     28885 MEMB     244      POPC     H6Y      HAL2     0.900000E-01   1.00800           0
     28886 MEMB     244      POPC     C37      CTL2    -0.180000       12.0110           0
     28887 MEMB     244      POPC     H7X      HAL2     0.900000E-01   1.00800           0
     28888 MEMB     244      POPC     H7Y      HAL2     0.900000E-01   1.00800           0
     28889 MEMB     244      POPC     C38      CTL2    -0.180000       12.0110           0
     28890 MEMB     244      POPC     H8X      HAL2     0.900000E-01   1.00800           0
     28891 MEMB     244      POPC     H8Y      HAL2     0.900000E-01   1.00800           0
     28892 MEMB     244      POPC     C39      CTL2    -0.180000       12.0110           0
     28893 MEMB     244      POPC     H9X      HAL2     0.900000E-01   1.00800           0
     28894 MEMB     244      POPC     H9Y      HAL2     0.900000E-01   1.00800           0
     28895 MEMB     244      POPC     C310     CTL2    -0.180000       12.0110           0
     28896 MEMB     244      POPC     H10X     HAL2     0.900000E-01   1.00800           0
     28897 MEMB     244      POPC     H10Y     HAL2     0.900000E-01   1.00800           0
     28898 MEMB     244      POPC     C311     CTL2    -0.180000       12.0110           0
     28899 MEMB     244      POPC     H11X     HAL2     0.900000E-01   1.00800           0
     28900 MEMB     244      POPC     H11Y     HAL2     0.900000E-01   1.00800           0
     28901 MEMB     244      POPC     C312     CTL2    -0.180000       12.0110           0
     28902 MEMB     244      POPC     H12X     HAL2     0.900000E-01   1.00800           0
     28903 MEMB     244      POPC     H12Y     HAL2     0.900000E-01   1.00800           0
     28904 MEMB     244      POPC     C313     CTL2    -0.180000       12.0110           0
     28905 MEMB     244      POPC     H13X     HAL2     0.900000E-01   1.00800           0
     28906 MEMB     244      POPC     H13Y     HAL2     0.900000E-01   1.00800           0
     28907 MEMB     244      POPC     C314     CTL2    -0.180000       12.0110           0
     28908 MEMB     244      POPC     H14X     HAL2     0.900000E-01   1.00800           0
     28909 MEMB     244      POPC     H14Y     HAL2     0.900000E-01   1.00800           0
     28910 MEMB     244      POPC     C315     CTL2    -0.180000       12.0110           0
     28911 MEMB     244      POPC     H15X     HAL2     0.900000E-01   1.00800           0
     28912 MEMB     244      POPC     H15Y     HAL2     0.900000E-01   1.00800           0
     28913 MEMB     244      POPC     C316     CTL3    -0.270000       12.0110           0
     28914 MEMB     244      POPC     H16X     HAL3     0.900000E-01   1.00800           0
     28915 MEMB     244      POPC     H16Y     HAL3     0.900000E-01   1.00800           0
     28916 MEMB     244      POPC     H16Z     HAL3     0.900000E-01   1.00800           0
     28917 MEMB     245      POPC     N        NTL     -0.600000       14.0070           0
     28918 MEMB     245      POPC     C12      CTL2    -0.100000       12.0110           0
     28919 MEMB     245      POPC     H12A     HL       0.250000       1.00800           0
     28920 MEMB     245      POPC     H12B     HL       0.250000       1.00800           0
     28921 MEMB     245      POPC     C13      CTL5    -0.350000       12.0110           0
     28922 MEMB     245      POPC     H13A     HL       0.250000       1.00800           0
     28923 MEMB     245      POPC     H13B     HL       0.250000       1.00800           0
     28924 MEMB     245      POPC     H13C     HL       0.250000       1.00800           0
     28925 MEMB     245      POPC     C14      CTL5    -0.350000       12.0110           0
     28926 MEMB     245      POPC     H14A     HL       0.250000       1.00800           0
     28927 MEMB     245      POPC     H14B     HL       0.250000       1.00800           0
     28928 MEMB     245      POPC     H14C     HL       0.250000       1.00800           0
     28929 MEMB     245      POPC     C15      CTL5    -0.350000       12.0110           0
     28930 MEMB     245      POPC     H15A     HL       0.250000       1.00800           0
     28931 MEMB     245      POPC     H15B     HL       0.250000       1.00800           0
     28932 MEMB     245      POPC     H15C     HL       0.250000       1.00800           0
     28933 MEMB     245      POPC     C11      CTL2    -0.800000E-01   12.0110           0
     28934 MEMB     245      POPC     H11A     HAL2     0.900000E-01   1.00800           0
     28935 MEMB     245      POPC     H11B     HAL2     0.900000E-01   1.00800           0
     28936 MEMB     245      POPC     P        PL        1.50000       30.9740           0
     28937 MEMB     245      POPC     O13      O2L     -0.780000       15.9994           0
     28938 MEMB     245      POPC     O14      O2L     -0.780000       15.9994           0
     28939 MEMB     245      POPC     O12      OSLP    -0.570000       15.9994           0
     28940 MEMB     245      POPC     O11      OSLP    -0.570000       15.9994           0
     28941 MEMB     245      POPC     C1       CTL2    -0.800000E-01   12.0110           0
     28942 MEMB     245      POPC     HA       HAL2     0.900000E-01   1.00800           0
     28943 MEMB     245      POPC     HB       HAL2     0.900000E-01   1.00800           0
     28944 MEMB     245      POPC     C2       CTL1     0.170000       12.0110           0
     28945 MEMB     245      POPC     HS       HAL1     0.900000E-01   1.00800           0
     28946 MEMB     245      POPC     O21      OSL     -0.490000       15.9994           0
     28947 MEMB     245      POPC     C21      CL       0.900000       12.0110           0
     28948 MEMB     245      POPC     O22      OBL     -0.630000       15.9994           0
     28949 MEMB     245      POPC     C22      CTL2    -0.220000       12.0110           0
     28950 MEMB     245      POPC     H2R      HAL2     0.900000E-01   1.00800           0
     28951 MEMB     245      POPC     H2S      HAL2     0.900000E-01   1.00800           0
     28952 MEMB     245      POPC     C3       CTL2     0.800000E-01   12.0110           0
     28953 MEMB     245      POPC     HX       HAL2     0.900000E-01   1.00800           0
     28954 MEMB     245      POPC     HY       HAL2     0.900000E-01   1.00800           0
     28955 MEMB     245      POPC     O31      OSL     -0.490000       15.9994           0
     28956 MEMB     245      POPC     C31      CL       0.900000       12.0110           0
     28957 MEMB     245      POPC     O32      OBL     -0.630000       15.9994           0
     28958 MEMB     245      POPC     C32      CTL2    -0.220000       12.0110           0
     28959 MEMB     245      POPC     H2X      HAL2     0.900000E-01   1.00800           0
     28960 MEMB     245      POPC     H2Y      HAL2     0.900000E-01   1.00800           0
     28961 MEMB     245      POPC     C23      CTL2    -0.180000       12.0110           0
     28962 MEMB     245      POPC     H3R      HAL2     0.900000E-01   1.00800           0
     28963 MEMB     245      POPC     H3S      HAL2     0.900000E-01   1.00800           0
     28964 MEMB     245      POPC     C24      CTL2    -0.180000       12.0110           0
     28965 MEMB     245      POPC     H4R      HAL2     0.900000E-01   1.00800           0
     28966 MEMB     245      POPC     H4S      HAL2     0.900000E-01   1.00800           0
     28967 MEMB     245      POPC     C25      CTL2    -0.180000       12.0110           0
     28968 MEMB     245      POPC     H5R      HAL2     0.900000E-01   1.00800           0
     28969 MEMB     245      POPC     H5S      HAL2     0.900000E-01   1.00800           0
     28970 MEMB     245      POPC     C26      CTL2    -0.180000       12.0110           0
     28971 MEMB     245      POPC     H6R      HAL2     0.900000E-01   1.00800           0
     28972 MEMB     245      POPC     H6S      HAL2     0.900000E-01   1.00800           0
     28973 MEMB     245      POPC     C27      CTL2    -0.180000       12.0110           0
     28974 MEMB     245      POPC     H7R      HAL2     0.900000E-01   1.00800           0
     28975 MEMB     245      POPC     H7S      HAL2     0.900000E-01   1.00800           0
     28976 MEMB     245      POPC     C28      CTL2    -0.180000       12.0110           0
     28977 MEMB     245      POPC     H8R      HAL2     0.900000E-01   1.00800           0
     28978 MEMB     245      POPC     H8S      HAL2     0.900000E-01   1.00800           0
     28979 MEMB     245      POPC     C29      CEL1    -0.150000       12.0110           0
     28980 MEMB     245      POPC     H91      HEL1     0.150000       1.00800           0
     28981 MEMB     245      POPC     C210     CEL1    -0.150000       12.0110           0
     28982 MEMB     245      POPC     H101     HEL1     0.150000       1.00800           0
     28983 MEMB     245      POPC     C211     CTL2    -0.180000       12.0110           0
     28984 MEMB     245      POPC     H11R     HAL2     0.900000E-01   1.00800           0
     28985 MEMB     245      POPC     H11S     HAL2     0.900000E-01   1.00800           0
     28986 MEMB     245      POPC     C212     CTL2    -0.180000       12.0110           0
     28987 MEMB     245      POPC     H12R     HAL2     0.900000E-01   1.00800           0
     28988 MEMB     245      POPC     H12S     HAL2     0.900000E-01   1.00800           0
     28989 MEMB     245      POPC     C213     CTL2    -0.180000       12.0110           0
     28990 MEMB     245      POPC     H13R     HAL2     0.900000E-01   1.00800           0
     28991 MEMB     245      POPC     H13S     HAL2     0.900000E-01   1.00800           0
     28992 MEMB     245      POPC     C214     CTL2    -0.180000       12.0110           0
     28993 MEMB     245      POPC     H14R     HAL2     0.900000E-01   1.00800           0
     28994 MEMB     245      POPC     H14S     HAL2     0.900000E-01   1.00800           0
     28995 MEMB     245      POPC     C215     CTL2    -0.180000       12.0110           0
     28996 MEMB     245      POPC     H15R     HAL2     0.900000E-01   1.00800           0
     28997 MEMB     245      POPC     H15S     HAL2     0.900000E-01   1.00800           0
     28998 MEMB     245      POPC     C216     CTL2    -0.180000       12.0110           0
     28999 MEMB     245      POPC     H16R     HAL2     0.900000E-01   1.00800           0
     29000 MEMB     245      POPC     H16S     HAL2     0.900000E-01   1.00800           0
     29001 MEMB     245      POPC     C217     CTL2    -0.180000       12.0110           0
     29002 MEMB     245      POPC     H17R     HAL2     0.900000E-01   1.00800           0
     29003 MEMB     245      POPC     H17S     HAL2     0.900000E-01   1.00800           0
     29004 MEMB     245      POPC     C218     CTL3    -0.270000       12.0110           0
     29005 MEMB     245      POPC     H18R     HAL3     0.900000E-01   1.00800           0
     29006 MEMB     245      POPC     H18S     HAL3     0.900000E-01   1.00800           0
     29007 MEMB     245      POPC     H18T     HAL3     0.900000E-01   1.00800           0
     29008 MEMB     245      POPC     C33      CTL2    -0.180000       12.0110           0
     29009 MEMB     245      POPC     H3X      HAL2     0.900000E-01   1.00800           0
     29010 MEMB     245      POPC     H3Y      HAL2     0.900000E-01   1.00800           0
     29011 MEMB     245      POPC     C34      CTL2    -0.180000       12.0110           0
     29012 MEMB     245      POPC     H4X      HAL2     0.900000E-01   1.00800           0
     29013 MEMB     245      POPC     H4Y      HAL2     0.900000E-01   1.00800           0
     29014 MEMB     245      POPC     C35      CTL2    -0.180000       12.0110           0
     29015 MEMB     245      POPC     H5X      HAL2     0.900000E-01   1.00800           0
     29016 MEMB     245      POPC     H5Y      HAL2     0.900000E-01   1.00800           0
     29017 MEMB     245      POPC     C36      CTL2    -0.180000       12.0110           0
     29018 MEMB     245      POPC     H6X      HAL2     0.900000E-01   1.00800           0
     29019 MEMB     245      POPC     H6Y      HAL2     0.900000E-01   1.00800           0
     29020 MEMB     245      POPC     C37      CTL2    -0.180000       12.0110           0
     29021 MEMB     245      POPC     H7X      HAL2     0.900000E-01   1.00800           0
     29022 MEMB     245      POPC     H7Y      HAL2     0.900000E-01   1.00800           0
     29023 MEMB     245      POPC     C38      CTL2    -0.180000       12.0110           0
     29024 MEMB     245      POPC     H8X      HAL2     0.900000E-01   1.00800           0
     29025 MEMB     245      POPC     H8Y      HAL2     0.900000E-01   1.00800           0
     29026 MEMB     245      POPC     C39      CTL2    -0.180000       12.0110           0
     29027 MEMB     245      POPC     H9X      HAL2     0.900000E-01   1.00800           0
     29028 MEMB     245      POPC     H9Y      HAL2     0.900000E-01   1.00800           0
     29029 MEMB     245      POPC     C310     CTL2    -0.180000       12.0110           0
     29030 MEMB     245      POPC     H10X     HAL2     0.900000E-01   1.00800           0
     29031 MEMB     245      POPC     H10Y     HAL2     0.900000E-01   1.00800           0
     29032 MEMB     245      POPC     C311     CTL2    -0.180000       12.0110           0
     29033 MEMB     245      POPC     H11X     HAL2     0.900000E-01   1.00800           0
     29034 MEMB     245      POPC     H11Y     HAL2     0.900000E-01   1.00800           0
     29035 MEMB     245      POPC     C312     CTL2    -0.180000       12.0110           0
     29036 MEMB     245      POPC     H12X     HAL2     0.900000E-01   1.00800           0
     29037 MEMB     245      POPC     H12Y     HAL2     0.900000E-01   1.00800           0
     29038 MEMB     245      POPC     C313     CTL2    -0.180000       12.0110           0
     29039 MEMB     245      POPC     H13X     HAL2     0.900000E-01   1.00800           0
     29040 MEMB     245      POPC     H13Y     HAL2     0.900000E-01   1.00800           0
     29041 MEMB     245      POPC     C314     CTL2    -0.180000       12.0110           0
     29042 MEMB     245      POPC     H14X     HAL2     0.900000E-01   1.00800           0
     29043 MEMB     245      POPC     H14Y     HAL2     0.900000E-01   1.00800           0
     29044 MEMB     245      POPC     C315     CTL2    -0.180000       12.0110           0
     29045 MEMB     245      POPC     H15X     HAL2     0.900000E-01   1.00800           0
     29046 MEMB     245      POPC     H15Y     HAL2     0.900000E-01   1.00800           0
     29047 MEMB     245      POPC     C316     CTL3    -0.270000       12.0110           0
     29048 MEMB     245      POPC     H16X     HAL3     0.900000E-01   1.00800           0
     29049 MEMB     245      POPC     H16Y     HAL3     0.900000E-01   1.00800           0
     29050 MEMB     245      POPC     H16Z     HAL3     0.900000E-01   1.00800           0
     29051 MEMB     246      POPC     N        NTL     -0.600000       14.0070           0
     29052 MEMB     246      POPC     C12      CTL2    -0.100000       12.0110           0
     29053 MEMB     246      POPC     H12A     HL       0.250000       1.00800           0
     29054 MEMB     246      POPC     H12B     HL       0.250000       1.00800           0
     29055 MEMB     246      POPC     C13      CTL5    -0.350000       12.0110           0
     29056 MEMB     246      POPC     H13A     HL       0.250000       1.00800           0
     29057 MEMB     246      POPC     H13B     HL       0.250000       1.00800           0
     29058 MEMB     246      POPC     H13C     HL       0.250000       1.00800           0
     29059 MEMB     246      POPC     C14      CTL5    -0.350000       12.0110           0
     29060 MEMB     246      POPC     H14A     HL       0.250000       1.00800           0
     29061 MEMB     246      POPC     H14B     HL       0.250000       1.00800           0
     29062 MEMB     246      POPC     H14C     HL       0.250000       1.00800           0
     29063 MEMB     246      POPC     C15      CTL5    -0.350000       12.0110           0
     29064 MEMB     246      POPC     H15A     HL       0.250000       1.00800           0
     29065 MEMB     246      POPC     H15B     HL       0.250000       1.00800           0
     29066 MEMB     246      POPC     H15C     HL       0.250000       1.00800           0
     29067 MEMB     246      POPC     C11      CTL2    -0.800000E-01   12.0110           0
     29068 MEMB     246      POPC     H11A     HAL2     0.900000E-01   1.00800           0
     29069 MEMB     246      POPC     H11B     HAL2     0.900000E-01   1.00800           0
     29070 MEMB     246      POPC     P        PL        1.50000       30.9740           0
     29071 MEMB     246      POPC     O13      O2L     -0.780000       15.9994           0
     29072 MEMB     246      POPC     O14      O2L     -0.780000       15.9994           0
     29073 MEMB     246      POPC     O12      OSLP    -0.570000       15.9994           0
     29074 MEMB     246      POPC     O11      OSLP    -0.570000       15.9994           0
     29075 MEMB     246      POPC     C1       CTL2    -0.800000E-01   12.0110           0
     29076 MEMB     246      POPC     HA       HAL2     0.900000E-01   1.00800           0
     29077 MEMB     246      POPC     HB       HAL2     0.900000E-01   1.00800           0
     29078 MEMB     246      POPC     C2       CTL1     0.170000       12.0110           0
     29079 MEMB     246      POPC     HS       HAL1     0.900000E-01   1.00800           0
     29080 MEMB     246      POPC     O21      OSL     -0.490000       15.9994           0
     29081 MEMB     246      POPC     C21      CL       0.900000       12.0110           0
     29082 MEMB     246      POPC     O22      OBL     -0.630000       15.9994           0
     29083 MEMB     246      POPC     C22      CTL2    -0.220000       12.0110           0
     29084 MEMB     246      POPC     H2R      HAL2     0.900000E-01   1.00800           0
     29085 MEMB     246      POPC     H2S      HAL2     0.900000E-01   1.00800           0
     29086 MEMB     246      POPC     C3       CTL2     0.800000E-01   12.0110           0
     29087 MEMB     246      POPC     HX       HAL2     0.900000E-01   1.00800           0
     29088 MEMB     246      POPC     HY       HAL2     0.900000E-01   1.00800           0
     29089 MEMB     246      POPC     O31      OSL     -0.490000       15.9994           0
     29090 MEMB     246      POPC     C31      CL       0.900000       12.0110           0
     29091 MEMB     246      POPC     O32      OBL     -0.630000       15.9994           0
     29092 MEMB     246      POPC     C32      CTL2    -0.220000       12.0110           0
     29093 MEMB     246      POPC     H2X      HAL2     0.900000E-01   1.00800           0
     29094 MEMB     246      POPC     H2Y      HAL2     0.900000E-01   1.00800           0
     29095 MEMB     246      POPC     C23      CTL2    -0.180000       12.0110           0
     29096 MEMB     246      POPC     H3R      HAL2     0.900000E-01   1.00800           0
     29097 MEMB     246      POPC     H3S      HAL2     0.900000E-01   1.00800           0
     29098 MEMB     246      POPC     C24      CTL2    -0.180000       12.0110           0
     29099 MEMB     246      POPC     H4R      HAL2     0.900000E-01   1.00800           0
     29100 MEMB     246      POPC     H4S      HAL2     0.900000E-01   1.00800           0
     29101 MEMB     246      POPC     C25      CTL2    -0.180000       12.0110           0
     29102 MEMB     246      POPC     H5R      HAL2     0.900000E-01   1.00800           0
     29103 MEMB     246      POPC     H5S      HAL2     0.900000E-01   1.00800           0
     29104 MEMB     246      POPC     C26      CTL2    -0.180000       12.0110           0
     29105 MEMB     246      POPC     H6R      HAL2     0.900000E-01   1.00800           0
     29106 MEMB     246      POPC     H6S      HAL2     0.900000E-01   1.00800           0
     29107 MEMB     246      POPC     C27      CTL2    -0.180000       12.0110           0
     29108 MEMB     246      POPC     H7R      HAL2     0.900000E-01   1.00800           0
     29109 MEMB     246      POPC     H7S      HAL2     0.900000E-01   1.00800           0
     29110 MEMB     246      POPC     C28      CTL2    -0.180000       12.0110           0
     29111 MEMB     246      POPC     H8R      HAL2     0.900000E-01   1.00800           0
     29112 MEMB     246      POPC     H8S      HAL2     0.900000E-01   1.00800           0
     29113 MEMB     246      POPC     C29      CEL1    -0.150000       12.0110           0
     29114 MEMB     246      POPC     H91      HEL1     0.150000       1.00800           0
     29115 MEMB     246      POPC     C210     CEL1    -0.150000       12.0110           0
     29116 MEMB     246      POPC     H101     HEL1     0.150000       1.00800           0
     29117 MEMB     246      POPC     C211     CTL2    -0.180000       12.0110           0
     29118 MEMB     246      POPC     H11R     HAL2     0.900000E-01   1.00800           0
     29119 MEMB     246      POPC     H11S     HAL2     0.900000E-01   1.00800           0
     29120 MEMB     246      POPC     C212     CTL2    -0.180000       12.0110           0
     29121 MEMB     246      POPC     H12R     HAL2     0.900000E-01   1.00800           0
     29122 MEMB     246      POPC     H12S     HAL2     0.900000E-01   1.00800           0
     29123 MEMB     246      POPC     C213     CTL2    -0.180000       12.0110           0
     29124 MEMB     246      POPC     H13R     HAL2     0.900000E-01   1.00800           0
     29125 MEMB     246      POPC     H13S     HAL2     0.900000E-01   1.00800           0
     29126 MEMB     246      POPC     C214     CTL2    -0.180000       12.0110           0
     29127 MEMB     246      POPC     H14R     HAL2     0.900000E-01   1.00800           0
     29128 MEMB     246      POPC     H14S     HAL2     0.900000E-01   1.00800           0
     29129 MEMB     246      POPC     C215     CTL2    -0.180000       12.0110           0
     29130 MEMB     246      POPC     H15R     HAL2     0.900000E-01   1.00800           0
     29131 MEMB     246      POPC     H15S     HAL2     0.900000E-01   1.00800           0
     29132 MEMB     246      POPC     C216     CTL2    -0.180000       12.0110           0
     29133 MEMB     246      POPC     H16R     HAL2     0.900000E-01   1.00800           0
     29134 MEMB     246      POPC     H16S     HAL2     0.900000E-01   1.00800           0
     29135 MEMB     246      POPC     C217     CTL2    -0.180000       12.0110           0
     29136 MEMB     246      POPC     H17R     HAL2     0.900000E-01   1.00800           0
     29137 MEMB     246      POPC     H17S     HAL2     0.900000E-01   1.00800           0
     29138 MEMB     246      POPC     C218     CTL3    -0.270000       12.0110           0
     29139 MEMB     246      POPC     H18R     HAL3     0.900000E-01   1.00800           0
     29140 MEMB     246      POPC     H18S     HAL3     0.900000E-01   1.00800           0
     29141 MEMB     246      POPC     H18T     HAL3     0.900000E-01   1.00800           0
     29142 MEMB     246      POPC     C33      CTL2    -0.180000       12.0110           0
     29143 MEMB     246      POPC     H3X      HAL2     0.900000E-01   1.00800           0
     29144 MEMB     246      POPC     H3Y      HAL2     0.900000E-01   1.00800           0
     29145 MEMB     246      POPC     C34      CTL2    -0.180000       12.0110           0
     29146 MEMB     246      POPC     H4X      HAL2     0.900000E-01   1.00800           0
     29147 MEMB     246      POPC     H4Y      HAL2     0.900000E-01   1.00800           0
     29148 MEMB     246      POPC     C35      CTL2    -0.180000       12.0110           0
     29149 MEMB     246      POPC     H5X      HAL2     0.900000E-01   1.00800           0
     29150 MEMB     246      POPC     H5Y      HAL2     0.900000E-01   1.00800           0
     29151 MEMB     246      POPC     C36      CTL2    -0.180000       12.0110           0
     29152 MEMB     246      POPC     H6X      HAL2     0.900000E-01   1.00800           0
     29153 MEMB     246      POPC     H6Y      HAL2     0.900000E-01   1.00800           0
     29154 MEMB     246      POPC     C37      CTL2    -0.180000       12.0110           0
     29155 MEMB     246      POPC     H7X      HAL2     0.900000E-01   1.00800           0
     29156 MEMB     246      POPC     H7Y      HAL2     0.900000E-01   1.00800           0
     29157 MEMB     246      POPC     C38      CTL2    -0.180000       12.0110           0
     29158 MEMB     246      POPC     H8X      HAL2     0.900000E-01   1.00800           0
     29159 MEMB     246      POPC     H8Y      HAL2     0.900000E-01   1.00800           0
     29160 MEMB     246      POPC     C39      CTL2    -0.180000       12.0110           0
     29161 MEMB     246      POPC     H9X      HAL2     0.900000E-01   1.00800           0
     29162 MEMB     246      POPC     H9Y      HAL2     0.900000E-01   1.00800           0
     29163 MEMB     246      POPC     C310     CTL2    -0.180000       12.0110           0
     29164 MEMB     246      POPC     H10X     HAL2     0.900000E-01   1.00800           0
     29165 MEMB     246      POPC     H10Y     HAL2     0.900000E-01   1.00800           0
     29166 MEMB     246      POPC     C311     CTL2    -0.180000       12.0110           0
     29167 MEMB     246      POPC     H11X     HAL2     0.900000E-01   1.00800           0
     29168 MEMB     246      POPC     H11Y     HAL2     0.900000E-01   1.00800           0
     29169 MEMB     246      POPC     C312     CTL2    -0.180000       12.0110           0
     29170 MEMB     246      POPC     H12X     HAL2     0.900000E-01   1.00800           0
     29171 MEMB     246      POPC     H12Y     HAL2     0.900000E-01   1.00800           0
     29172 MEMB     246      POPC     C313     CTL2    -0.180000       12.0110           0
     29173 MEMB     246      POPC     H13X     HAL2     0.900000E-01   1.00800           0
     29174 MEMB     246      POPC     H13Y     HAL2     0.900000E-01   1.00800           0
     29175 MEMB     246      POPC     C314     CTL2    -0.180000       12.0110           0
     29176 MEMB     246      POPC     H14X     HAL2     0.900000E-01   1.00800           0
     29177 MEMB     246      POPC     H14Y     HAL2     0.900000E-01   1.00800           0
     29178 MEMB     246      POPC     C315     CTL2    -0.180000       12.0110           0
     29179 MEMB     246      POPC     H15X     HAL2     0.900000E-01   1.00800           0
     29180 MEMB     246      POPC     H15Y     HAL2     0.900000E-01   1.00800           0
     29181 MEMB     246      POPC     C316     CTL3    -0.270000       12.0110           0
     29182 MEMB     246      POPC     H16X     HAL3     0.900000E-01   1.00800           0
     29183 MEMB     246      POPC     H16Y     HAL3     0.900000E-01   1.00800           0
     29184 MEMB     246      POPC     H16Z     HAL3     0.900000E-01   1.00800           0
     29185 MEMB     247      POPC     N        NTL     -0.600000       14.0070           0
     29186 MEMB     247      POPC     C12      CTL2    -0.100000       12.0110           0
     29187 MEMB     247      POPC     H12A     HL       0.250000       1.00800           0
     29188 MEMB     247      POPC     H12B     HL       0.250000       1.00800           0
     29189 MEMB     247      POPC     C13      CTL5    -0.350000       12.0110           0
     29190 MEMB     247      POPC     H13A     HL       0.250000       1.00800           0
     29191 MEMB     247      POPC     H13B     HL       0.250000       1.00800           0
     29192 MEMB     247      POPC     H13C     HL       0.250000       1.00800           0
     29193 MEMB     247      POPC     C14      CTL5    -0.350000       12.0110           0
     29194 MEMB     247      POPC     H14A     HL       0.250000       1.00800           0
     29195 MEMB     247      POPC     H14B     HL       0.250000       1.00800           0
     29196 MEMB     247      POPC     H14C     HL       0.250000       1.00800           0
     29197 MEMB     247      POPC     C15      CTL5    -0.350000       12.0110           0
     29198 MEMB     247      POPC     H15A     HL       0.250000       1.00800           0
     29199 MEMB     247      POPC     H15B     HL       0.250000       1.00800           0
     29200 MEMB     247      POPC     H15C     HL       0.250000       1.00800           0
     29201 MEMB     247      POPC     C11      CTL2    -0.800000E-01   12.0110           0
     29202 MEMB     247      POPC     H11A     HAL2     0.900000E-01   1.00800           0
     29203 MEMB     247      POPC     H11B     HAL2     0.900000E-01   1.00800           0
     29204 MEMB     247      POPC     P        PL        1.50000       30.9740           0
     29205 MEMB     247      POPC     O13      O2L     -0.780000       15.9994           0
     29206 MEMB     247      POPC     O14      O2L     -0.780000       15.9994           0
     29207 MEMB     247      POPC     O12      OSLP    -0.570000       15.9994           0
     29208 MEMB     247      POPC     O11      OSLP    -0.570000       15.9994           0
     29209 MEMB     247      POPC     C1       CTL2    -0.800000E-01   12.0110           0
     29210 MEMB     247      POPC     HA       HAL2     0.900000E-01   1.00800           0
     29211 MEMB     247      POPC     HB       HAL2     0.900000E-01   1.00800           0
     29212 MEMB     247      POPC     C2       CTL1     0.170000       12.0110           0
     29213 MEMB     247      POPC     HS       HAL1     0.900000E-01   1.00800           0
     29214 MEMB     247      POPC     O21      OSL     -0.490000       15.9994           0
     29215 MEMB     247      POPC     C21      CL       0.900000       12.0110           0
     29216 MEMB     247      POPC     O22      OBL     -0.630000       15.9994           0
     29217 MEMB     247      POPC     C22      CTL2    -0.220000       12.0110           0
     29218 MEMB     247      POPC     H2R      HAL2     0.900000E-01   1.00800           0
     29219 MEMB     247      POPC     H2S      HAL2     0.900000E-01   1.00800           0
     29220 MEMB     247      POPC     C3       CTL2     0.800000E-01   12.0110           0
     29221 MEMB     247      POPC     HX       HAL2     0.900000E-01   1.00800           0
     29222 MEMB     247      POPC     HY       HAL2     0.900000E-01   1.00800           0
     29223 MEMB     247      POPC     O31      OSL     -0.490000       15.9994           0
     29224 MEMB     247      POPC     C31      CL       0.900000       12.0110           0
     29225 MEMB     247      POPC     O32      OBL     -0.630000       15.9994           0
     29226 MEMB     247      POPC     C32      CTL2    -0.220000       12.0110           0
     29227 MEMB     247      POPC     H2X      HAL2     0.900000E-01   1.00800           0
     29228 MEMB     247      POPC     H2Y      HAL2     0.900000E-01   1.00800           0
     29229 MEMB     247      POPC     C23      CTL2    -0.180000       12.0110           0
     29230 MEMB     247      POPC     H3R      HAL2     0.900000E-01   1.00800           0
     29231 MEMB     247      POPC     H3S      HAL2     0.900000E-01   1.00800           0
     29232 MEMB     247      POPC     C24      CTL2    -0.180000       12.0110           0
     29233 MEMB     247      POPC     H4R      HAL2     0.900000E-01   1.00800           0
     29234 MEMB     247      POPC     H4S      HAL2     0.900000E-01   1.00800           0
     29235 MEMB     247      POPC     C25      CTL2    -0.180000       12.0110           0
     29236 MEMB     247      POPC     H5R      HAL2     0.900000E-01   1.00800           0
     29237 MEMB     247      POPC     H5S      HAL2     0.900000E-01   1.00800           0
     29238 MEMB     247      POPC     C26      CTL2    -0.180000       12.0110           0
     29239 MEMB     247      POPC     H6R      HAL2     0.900000E-01   1.00800           0
     29240 MEMB     247      POPC     H6S      HAL2     0.900000E-01   1.00800           0
     29241 MEMB     247      POPC     C27      CTL2    -0.180000       12.0110           0
     29242 MEMB     247      POPC     H7R      HAL2     0.900000E-01   1.00800           0
     29243 MEMB     247      POPC     H7S      HAL2     0.900000E-01   1.00800           0
     29244 MEMB     247      POPC     C28      CTL2    -0.180000       12.0110           0
     29245 MEMB     247      POPC     H8R      HAL2     0.900000E-01   1.00800           0
     29246 MEMB     247      POPC     H8S      HAL2     0.900000E-01   1.00800           0
     29247 MEMB     247      POPC     C29      CEL1    -0.150000       12.0110           0
     29248 MEMB     247      POPC     H91      HEL1     0.150000       1.00800           0
     29249 MEMB     247      POPC     C210     CEL1    -0.150000       12.0110           0
     29250 MEMB     247      POPC     H101     HEL1     0.150000       1.00800           0
     29251 MEMB     247      POPC     C211     CTL2    -0.180000       12.0110           0
     29252 MEMB     247      POPC     H11R     HAL2     0.900000E-01   1.00800           0
     29253 MEMB     247      POPC     H11S     HAL2     0.900000E-01   1.00800           0
     29254 MEMB     247      POPC     C212     CTL2    -0.180000       12.0110           0
     29255 MEMB     247      POPC     H12R     HAL2     0.900000E-01   1.00800           0
     29256 MEMB     247      POPC     H12S     HAL2     0.900000E-01   1.00800           0
     29257 MEMB     247      POPC     C213     CTL2    -0.180000       12.0110           0
     29258 MEMB     247      POPC     H13R     HAL2     0.900000E-01   1.00800           0
     29259 MEMB     247      POPC     H13S     HAL2     0.900000E-01   1.00800           0
     29260 MEMB     247      POPC     C214     CTL2    -0.180000       12.0110           0
     29261 MEMB     247      POPC     H14R     HAL2     0.900000E-01   1.00800           0
     29262 MEMB     247      POPC     H14S     HAL2     0.900000E-01   1.00800           0
     29263 MEMB     247      POPC     C215     CTL2    -0.180000       12.0110           0
     29264 MEMB     247      POPC     H15R     HAL2     0.900000E-01   1.00800           0
     29265 MEMB     247      POPC     H15S     HAL2     0.900000E-01   1.00800           0
     29266 MEMB     247      POPC     C216     CTL2    -0.180000       12.0110           0
     29267 MEMB     247      POPC     H16R     HAL2     0.900000E-01   1.00800           0
     29268 MEMB     247      POPC     H16S     HAL2     0.900000E-01   1.00800           0
     29269 MEMB     247      POPC     C217     CTL2    -0.180000       12.0110           0
     29270 MEMB     247      POPC     H17R     HAL2     0.900000E-01   1.00800           0
     29271 MEMB     247      POPC     H17S     HAL2     0.900000E-01   1.00800           0
     29272 MEMB     247      POPC     C218     CTL3    -0.270000       12.0110           0
     29273 MEMB     247      POPC     H18R     HAL3     0.900000E-01   1.00800           0
     29274 MEMB     247      POPC     H18S     HAL3     0.900000E-01   1.00800           0
     29275 MEMB     247      POPC     H18T     HAL3     0.900000E-01   1.00800           0
     29276 MEMB     247      POPC     C33      CTL2    -0.180000       12.0110           0
     29277 MEMB     247      POPC     H3X      HAL2     0.900000E-01   1.00800           0
     29278 MEMB     247      POPC     H3Y      HAL2     0.900000E-01   1.00800           0
     29279 MEMB     247      POPC     C34      CTL2    -0.180000       12.0110           0
     29280 MEMB     247      POPC     H4X      HAL2     0.900000E-01   1.00800           0
     29281 MEMB     247      POPC     H4Y      HAL2     0.900000E-01   1.00800           0
     29282 MEMB     247      POPC     C35      CTL2    -0.180000       12.0110           0
     29283 MEMB     247      POPC     H5X      HAL2     0.900000E-01   1.00800           0
     29284 MEMB     247      POPC     H5Y      HAL2     0.900000E-01   1.00800           0
     29285 MEMB     247      POPC     C36      CTL2    -0.180000       12.0110           0
     29286 MEMB     247      POPC     H6X      HAL2     0.900000E-01   1.00800           0
     29287 MEMB     247      POPC     H6Y      HAL2     0.900000E-01   1.00800           0
     29288 MEMB     247      POPC     C37      CTL2    -0.180000       12.0110           0
     29289 MEMB     247      POPC     H7X      HAL2     0.900000E-01   1.00800           0
     29290 MEMB     247      POPC     H7Y      HAL2     0.900000E-01   1.00800           0
     29291 MEMB     247      POPC     C38      CTL2    -0.180000       12.0110           0
     29292 MEMB     247      POPC     H8X      HAL2     0.900000E-01   1.00800           0
     29293 MEMB     247      POPC     H8Y      HAL2     0.900000E-01   1.00800           0
     29294 MEMB     247      POPC     C39      CTL2    -0.180000       12.0110           0
     29295 MEMB     247      POPC     H9X      HAL2     0.900000E-01   1.00800           0
     29296 MEMB     247      POPC     H9Y      HAL2     0.900000E-01   1.00800           0
     29297 MEMB     247      POPC     C310     CTL2    -0.180000       12.0110           0
     29298 MEMB     247      POPC     H10X     HAL2     0.900000E-01   1.00800           0
     29299 MEMB     247      POPC     H10Y     HAL2     0.900000E-01   1.00800           0
     29300 MEMB     247      POPC     C311     CTL2    -0.180000       12.0110           0
     29301 MEMB     247      POPC     H11X     HAL2     0.900000E-01   1.00800           0
     29302 MEMB     247      POPC     H11Y     HAL2     0.900000E-01   1.00800           0
     29303 MEMB     247      POPC     C312     CTL2    -0.180000       12.0110           0
     29304 MEMB     247      POPC     H12X     HAL2     0.900000E-01   1.00800           0
     29305 MEMB     247      POPC     H12Y     HAL2     0.900000E-01   1.00800           0
     29306 MEMB     247      POPC     C313     CTL2    -0.180000       12.0110           0
     29307 MEMB     247      POPC     H13X     HAL2     0.900000E-01   1.00800           0
     29308 MEMB     247      POPC     H13Y     HAL2     0.900000E-01   1.00800           0
     29309 MEMB     247      POPC     C314     CTL2    -0.180000       12.0110           0
     29310 MEMB     247      POPC     H14X     HAL2     0.900000E-01   1.00800           0
     29311 MEMB     247      POPC     H14Y     HAL2     0.900000E-01   1.00800           0
     29312 MEMB     247      POPC     C315     CTL2    -0.180000       12.0110           0
     29313 MEMB     247      POPC     H15X     HAL2     0.900000E-01   1.00800           0
     29314 MEMB     247      POPC     H15Y     HAL2     0.900000E-01   1.00800           0
     29315 MEMB     247      POPC     C316     CTL3    -0.270000       12.0110           0
     29316 MEMB     247      POPC     H16X     HAL3     0.900000E-01   1.00800           0
     29317 MEMB     247      POPC     H16Y     HAL3     0.900000E-01   1.00800           0
     29318 MEMB     247      POPC     H16Z     HAL3     0.900000E-01   1.00800           0
     29319 MEMB     248      POPC     N        NTL     -0.600000       14.0070           0
     29320 MEMB     248      POPC     C12      CTL2    -0.100000       12.0110           0
     29321 MEMB     248      POPC     H12A     HL       0.250000       1.00800           0
     29322 MEMB     248      POPC     H12B     HL       0.250000       1.00800           0
     29323 MEMB     248      POPC     C13      CTL5    -0.350000       12.0110           0
     29324 MEMB     248      POPC     H13A     HL       0.250000       1.00800           0
     29325 MEMB     248      POPC     H13B     HL       0.250000       1.00800           0
     29326 MEMB     248      POPC     H13C     HL       0.250000       1.00800           0
     29327 MEMB     248      POPC     C14      CTL5    -0.350000       12.0110           0
     29328 MEMB     248      POPC     H14A     HL       0.250000       1.00800           0
     29329 MEMB     248      POPC     H14B     HL       0.250000       1.00800           0
     29330 MEMB     248      POPC     H14C     HL       0.250000       1.00800           0
     29331 MEMB     248      POPC     C15      CTL5    -0.350000       12.0110           0
     29332 MEMB     248      POPC     H15A     HL       0.250000       1.00800           0
     29333 MEMB     248      POPC     H15B     HL       0.250000       1.00800           0
     29334 MEMB     248      POPC     H15C     HL       0.250000       1.00800           0
     29335 MEMB     248      POPC     C11      CTL2    -0.800000E-01   12.0110           0
     29336 MEMB     248      POPC     H11A     HAL2     0.900000E-01   1.00800           0
     29337 MEMB     248      POPC     H11B     HAL2     0.900000E-01   1.00800           0
     29338 MEMB     248      POPC     P        PL        1.50000       30.9740           0
     29339 MEMB     248      POPC     O13      O2L     -0.780000       15.9994           0
     29340 MEMB     248      POPC     O14      O2L     -0.780000       15.9994           0
     29341 MEMB     248      POPC     O12      OSLP    -0.570000       15.9994           0
     29342 MEMB     248      POPC     O11      OSLP    -0.570000       15.9994           0
     29343 MEMB     248      POPC     C1       CTL2    -0.800000E-01   12.0110           0
     29344 MEMB     248      POPC     HA       HAL2     0.900000E-01   1.00800           0
     29345 MEMB     248      POPC     HB       HAL2     0.900000E-01   1.00800           0
     29346 MEMB     248      POPC     C2       CTL1     0.170000       12.0110           0
     29347 MEMB     248      POPC     HS       HAL1     0.900000E-01   1.00800           0
     29348 MEMB     248      POPC     O21      OSL     -0.490000       15.9994           0
     29349 MEMB     248      POPC     C21      CL       0.900000       12.0110           0
     29350 MEMB     248      POPC     O22      OBL     -0.630000       15.9994           0
     29351 MEMB     248      POPC     C22      CTL2    -0.220000       12.0110           0
     29352 MEMB     248      POPC     H2R      HAL2     0.900000E-01   1.00800           0
     29353 MEMB     248      POPC     H2S      HAL2     0.900000E-01   1.00800           0
     29354 MEMB     248      POPC     C3       CTL2     0.800000E-01   12.0110           0
     29355 MEMB     248      POPC     HX       HAL2     0.900000E-01   1.00800           0
     29356 MEMB     248      POPC     HY       HAL2     0.900000E-01   1.00800           0
     29357 MEMB     248      POPC     O31      OSL     -0.490000       15.9994           0
     29358 MEMB     248      POPC     C31      CL       0.900000       12.0110           0
     29359 MEMB     248      POPC     O32      OBL     -0.630000       15.9994           0
     29360 MEMB     248      POPC     C32      CTL2    -0.220000       12.0110           0
     29361 MEMB     248      POPC     H2X      HAL2     0.900000E-01   1.00800           0
     29362 MEMB     248      POPC     H2Y      HAL2     0.900000E-01   1.00800           0
     29363 MEMB     248      POPC     C23      CTL2    -0.180000       12.0110           0
     29364 MEMB     248      POPC     H3R      HAL2     0.900000E-01   1.00800           0
     29365 MEMB     248      POPC     H3S      HAL2     0.900000E-01   1.00800           0
     29366 MEMB     248      POPC     C24      CTL2    -0.180000       12.0110           0
     29367 MEMB     248      POPC     H4R      HAL2     0.900000E-01   1.00800           0
     29368 MEMB     248      POPC     H4S      HAL2     0.900000E-01   1.00800           0
     29369 MEMB     248      POPC     C25      CTL2    -0.180000       12.0110           0
     29370 MEMB     248      POPC     H5R      HAL2     0.900000E-01   1.00800           0
     29371 MEMB     248      POPC     H5S      HAL2     0.900000E-01   1.00800           0
     29372 MEMB     248      POPC     C26      CTL2    -0.180000       12.0110           0
     29373 MEMB     248      POPC     H6R      HAL2     0.900000E-01   1.00800           0
     29374 MEMB     248      POPC     H6S      HAL2     0.900000E-01   1.00800           0
     29375 MEMB     248      POPC     C27      CTL2    -0.180000       12.0110           0
     29376 MEMB     248      POPC     H7R      HAL2     0.900000E-01   1.00800           0
     29377 MEMB     248      POPC     H7S      HAL2     0.900000E-01   1.00800           0
     29378 MEMB     248      POPC     C28      CTL2    -0.180000       12.0110           0
     29379 MEMB     248      POPC     H8R      HAL2     0.900000E-01   1.00800           0
     29380 MEMB     248      POPC     H8S      HAL2     0.900000E-01   1.00800           0
     29381 MEMB     248      POPC     C29      CEL1    -0.150000       12.0110           0
     29382 MEMB     248      POPC     H91      HEL1     0.150000       1.00800           0
     29383 MEMB     248      POPC     C210     CEL1    -0.150000       12.0110           0
     29384 MEMB     248      POPC     H101     HEL1     0.150000       1.00800           0
     29385 MEMB     248      POPC     C211     CTL2    -0.180000       12.0110           0
     29386 MEMB     248      POPC     H11R     HAL2     0.900000E-01   1.00800           0
     29387 MEMB     248      POPC     H11S     HAL2     0.900000E-01   1.00800           0
     29388 MEMB     248      POPC     C212     CTL2    -0.180000       12.0110           0
     29389 MEMB     248      POPC     H12R     HAL2     0.900000E-01   1.00800           0
     29390 MEMB     248      POPC     H12S     HAL2     0.900000E-01   1.00800           0
     29391 MEMB     248      POPC     C213     CTL2    -0.180000       12.0110           0
     29392 MEMB     248      POPC     H13R     HAL2     0.900000E-01   1.00800           0
     29393 MEMB     248      POPC     H13S     HAL2     0.900000E-01   1.00800           0
     29394 MEMB     248      POPC     C214     CTL2    -0.180000       12.0110           0
     29395 MEMB     248      POPC     H14R     HAL2     0.900000E-01   1.00800           0
     29396 MEMB     248      POPC     H14S     HAL2     0.900000E-01   1.00800           0
     29397 MEMB     248      POPC     C215     CTL2    -0.180000       12.0110           0
     29398 MEMB     248      POPC     H15R     HAL2     0.900000E-01   1.00800           0
     29399 MEMB     248      POPC     H15S     HAL2     0.900000E-01   1.00800           0
     29400 MEMB     248      POPC     C216     CTL2    -0.180000       12.0110           0
     29401 MEMB     248      POPC     H16R     HAL2     0.900000E-01   1.00800           0
     29402 MEMB     248      POPC     H16S     HAL2     0.900000E-01   1.00800           0
     29403 MEMB     248      POPC     C217     CTL2    -0.180000       12.0110           0
     29404 MEMB     248      POPC     H17R     HAL2     0.900000E-01   1.00800           0
     29405 MEMB     248      POPC     H17S     HAL2     0.900000E-01   1.00800           0
     29406 MEMB     248      POPC     C218     CTL3    -0.270000       12.0110           0
     29407 MEMB     248      POPC     H18R     HAL3     0.900000E-01   1.00800           0
     29408 MEMB     248      POPC     H18S     HAL3     0.900000E-01   1.00800           0
     29409 MEMB     248      POPC     H18T     HAL3     0.900000E-01   1.00800           0
     29410 MEMB     248      POPC     C33      CTL2    -0.180000       12.0110           0
     29411 MEMB     248      POPC     H3X      HAL2     0.900000E-01   1.00800           0
     29412 MEMB     248      POPC     H3Y      HAL2     0.900000E-01   1.00800           0
     29413 MEMB     248      POPC     C34      CTL2    -0.180000       12.0110           0
     29414 MEMB     248      POPC     H4X      HAL2     0.900000E-01   1.00800           0
     29415 MEMB     248      POPC     H4Y      HAL2     0.900000E-01   1.00800           0
     29416 MEMB     248      POPC     C35      CTL2    -0.180000       12.0110           0
     29417 MEMB     248      POPC     H5X      HAL2     0.900000E-01   1.00800           0
     29418 MEMB     248      POPC     H5Y      HAL2     0.900000E-01   1.00800           0
     29419 MEMB     248      POPC     C36      CTL2    -0.180000       12.0110           0
     29420 MEMB     248      POPC     H6X      HAL2     0.900000E-01   1.00800           0
     29421 MEMB     248      POPC     H6Y      HAL2     0.900000E-01   1.00800           0
     29422 MEMB     248      POPC     C37      CTL2    -0.180000       12.0110           0
     29423 MEMB     248      POPC     H7X      HAL2     0.900000E-01   1.00800           0
     29424 MEMB     248      POPC     H7Y      HAL2     0.900000E-01   1.00800           0
     29425 MEMB     248      POPC     C38      CTL2    -0.180000       12.0110           0
     29426 MEMB     248      POPC     H8X      HAL2     0.900000E-01   1.00800           0
     29427 MEMB     248      POPC     H8Y      HAL2     0.900000E-01   1.00800           0
     29428 MEMB     248      POPC     C39      CTL2    -0.180000       12.0110           0
     29429 MEMB     248      POPC     H9X      HAL2     0.900000E-01   1.00800           0
     29430 MEMB     248      POPC     H9Y      HAL2     0.900000E-01   1.00800           0
     29431 MEMB     248      POPC     C310     CTL2    -0.180000       12.0110           0
     29432 MEMB     248      POPC     H10X     HAL2     0.900000E-01   1.00800           0
     29433 MEMB     248      POPC     H10Y     HAL2     0.900000E-01   1.00800           0
     29434 MEMB     248      POPC     C311     CTL2    -0.180000       12.0110           0
     29435 MEMB     248      POPC     H11X     HAL2     0.900000E-01   1.00800           0
     29436 MEMB     248      POPC     H11Y     HAL2     0.900000E-01   1.00800           0
     29437 MEMB     248      POPC     C312     CTL2    -0.180000       12.0110           0
     29438 MEMB     248      POPC     H12X     HAL2     0.900000E-01   1.00800           0
     29439 MEMB     248      POPC     H12Y     HAL2     0.900000E-01   1.00800           0
     29440 MEMB     248      POPC     C313     CTL2    -0.180000       12.0110           0
     29441 MEMB     248      POPC     H13X     HAL2     0.900000E-01   1.00800           0
     29442 MEMB     248      POPC     H13Y     HAL2     0.900000E-01   1.00800           0
     29443 MEMB     248      POPC     C314     CTL2    -0.180000       12.0110           0
     29444 MEMB     248      POPC     H14X     HAL2     0.900000E-01   1.00800           0
     29445 MEMB     248      POPC     H14Y     HAL2     0.900000E-01   1.00800           0
     29446 MEMB     248      POPC     C315     CTL2    -0.180000       12.0110           0
     29447 MEMB     248      POPC     H15X     HAL2     0.900000E-01   1.00800           0
     29448 MEMB     248      POPC     H15Y     HAL2     0.900000E-01   1.00800           0
     29449 MEMB     248      POPC     C316     CTL3    -0.270000       12.0110           0
     29450 MEMB     248      POPC     H16X     HAL3     0.900000E-01   1.00800           0
     29451 MEMB     248      POPC     H16Y     HAL3     0.900000E-01   1.00800           0
     29452 MEMB     248      POPC     H16Z     HAL3     0.900000E-01   1.00800           0
     29453 MEMB     249      POPC     N        NTL     -0.600000       14.0070           0
     29454 MEMB     249      POPC     C12      CTL2    -0.100000       12.0110           0
     29455 MEMB     249      POPC     H12A     HL       0.250000       1.00800           0
     29456 MEMB     249      POPC     H12B     HL       0.250000       1.00800           0
     29457 MEMB     249      POPC     C13      CTL5    -0.350000       12.0110           0
     29458 MEMB     249      POPC     H13A     HL       0.250000       1.00800           0
     29459 MEMB     249      POPC     H13B     HL       0.250000       1.00800           0
     29460 MEMB     249      POPC     H13C     HL       0.250000       1.00800           0
     29461 MEMB     249      POPC     C14      CTL5    -0.350000       12.0110           0
     29462 MEMB     249      POPC     H14A     HL       0.250000       1.00800           0
     29463 MEMB     249      POPC     H14B     HL       0.250000       1.00800           0
     29464 MEMB     249      POPC     H14C     HL       0.250000       1.00800           0
     29465 MEMB     249      POPC     C15      CTL5    -0.350000       12.0110           0
     29466 MEMB     249      POPC     H15A     HL       0.250000       1.00800           0
     29467 MEMB     249      POPC     H15B     HL       0.250000       1.00800           0
     29468 MEMB     249      POPC     H15C     HL       0.250000       1.00800           0
     29469 MEMB     249      POPC     C11      CTL2    -0.800000E-01   12.0110           0
     29470 MEMB     249      POPC     H11A     HAL2     0.900000E-01   1.00800           0
     29471 MEMB     249      POPC     H11B     HAL2     0.900000E-01   1.00800           0
     29472 MEMB     249      POPC     P        PL        1.50000       30.9740           0
     29473 MEMB     249      POPC     O13      O2L     -0.780000       15.9994           0
     29474 MEMB     249      POPC     O14      O2L     -0.780000       15.9994           0
     29475 MEMB     249      POPC     O12      OSLP    -0.570000       15.9994           0
     29476 MEMB     249      POPC     O11      OSLP    -0.570000       15.9994           0
     29477 MEMB     249      POPC     C1       CTL2    -0.800000E-01   12.0110           0
     29478 MEMB     249      POPC     HA       HAL2     0.900000E-01   1.00800           0
     29479 MEMB     249      POPC     HB       HAL2     0.900000E-01   1.00800           0
     29480 MEMB     249      POPC     C2       CTL1     0.170000       12.0110           0
     29481 MEMB     249      POPC     HS       HAL1     0.900000E-01   1.00800           0
     29482 MEMB     249      POPC     O21      OSL     -0.490000       15.9994           0
     29483 MEMB     249      POPC     C21      CL       0.900000       12.0110           0
     29484 MEMB     249      POPC     O22      OBL     -0.630000       15.9994           0
     29485 MEMB     249      POPC     C22      CTL2    -0.220000       12.0110           0
     29486 MEMB     249      POPC     H2R      HAL2     0.900000E-01   1.00800           0
     29487 MEMB     249      POPC     H2S      HAL2     0.900000E-01   1.00800           0
     29488 MEMB     249      POPC     C3       CTL2     0.800000E-01   12.0110           0
     29489 MEMB     249      POPC     HX       HAL2     0.900000E-01   1.00800           0
     29490 MEMB     249      POPC     HY       HAL2     0.900000E-01   1.00800           0
     29491 MEMB     249      POPC     O31      OSL     -0.490000       15.9994           0
     29492 MEMB     249      POPC     C31      CL       0.900000       12.0110           0
     29493 MEMB     249      POPC     O32      OBL     -0.630000       15.9994           0
     29494 MEMB     249      POPC     C32      CTL2    -0.220000       12.0110           0
     29495 MEMB     249      POPC     H2X      HAL2     0.900000E-01   1.00800           0
     29496 MEMB     249      POPC     H2Y      HAL2     0.900000E-01   1.00800           0
     29497 MEMB     249      POPC     C23      CTL2    -0.180000       12.0110           0
     29498 MEMB     249      POPC     H3R      HAL2     0.900000E-01   1.00800           0
     29499 MEMB     249      POPC     H3S      HAL2     0.900000E-01   1.00800           0
     29500 MEMB     249      POPC     C24      CTL2    -0.180000       12.0110           0
     29501 MEMB     249      POPC     H4R      HAL2     0.900000E-01   1.00800           0
     29502 MEMB     249      POPC     H4S      HAL2     0.900000E-01   1.00800           0
     29503 MEMB     249      POPC     C25      CTL2    -0.180000       12.0110           0
     29504 MEMB     249      POPC     H5R      HAL2     0.900000E-01   1.00800           0
     29505 MEMB     249      POPC     H5S      HAL2     0.900000E-01   1.00800           0
     29506 MEMB     249      POPC     C26      CTL2    -0.180000       12.0110           0
     29507 MEMB     249      POPC     H6R      HAL2     0.900000E-01   1.00800           0
     29508 MEMB     249      POPC     H6S      HAL2     0.900000E-01   1.00800           0
     29509 MEMB     249      POPC     C27      CTL2    -0.180000       12.0110           0
     29510 MEMB     249      POPC     H7R      HAL2     0.900000E-01   1.00800           0
     29511 MEMB     249      POPC     H7S      HAL2     0.900000E-01   1.00800           0
     29512 MEMB     249      POPC     C28      CTL2    -0.180000       12.0110           0
     29513 MEMB     249      POPC     H8R      HAL2     0.900000E-01   1.00800           0
     29514 MEMB     249      POPC     H8S      HAL2     0.900000E-01   1.00800           0
     29515 MEMB     249      POPC     C29      CEL1    -0.150000       12.0110           0
     29516 MEMB     249      POPC     H91      HEL1     0.150000       1.00800           0
     29517 MEMB     249      POPC     C210     CEL1    -0.150000       12.0110           0
     29518 MEMB     249      POPC     H101     HEL1     0.150000       1.00800           0
     29519 MEMB     249      POPC     C211     CTL2    -0.180000       12.0110           0
     29520 MEMB     249      POPC     H11R     HAL2     0.900000E-01   1.00800           0
     29521 MEMB     249      POPC     H11S     HAL2     0.900000E-01   1.00800           0
     29522 MEMB     249      POPC     C212     CTL2    -0.180000       12.0110           0
     29523 MEMB     249      POPC     H12R     HAL2     0.900000E-01   1.00800           0
     29524 MEMB     249      POPC     H12S     HAL2     0.900000E-01   1.00800           0
     29525 MEMB     249      POPC     C213     CTL2    -0.180000       12.0110           0
     29526 MEMB     249      POPC     H13R     HAL2     0.900000E-01   1.00800           0
     29527 MEMB     249      POPC     H13S     HAL2     0.900000E-01   1.00800           0
     29528 MEMB     249      POPC     C214     CTL2    -0.180000       12.0110           0
     29529 MEMB     249      POPC     H14R     HAL2     0.900000E-01   1.00800           0
     29530 MEMB     249      POPC     H14S     HAL2     0.900000E-01   1.00800           0
     29531 MEMB     249      POPC     C215     CTL2    -0.180000       12.0110           0
     29532 MEMB     249      POPC     H15R     HAL2     0.900000E-01   1.00800           0
     29533 MEMB     249      POPC     H15S     HAL2     0.900000E-01   1.00800           0
     29534 MEMB     249      POPC     C216     CTL2    -0.180000       12.0110           0
     29535 MEMB     249      POPC     H16R     HAL2     0.900000E-01   1.00800           0
     29536 MEMB     249      POPC     H16S     HAL2     0.900000E-01   1.00800           0
     29537 MEMB     249      POPC     C217     CTL2    -0.180000       12.0110           0
     29538 MEMB     249      POPC     H17R     HAL2     0.900000E-01   1.00800           0
     29539 MEMB     249      POPC     H17S     HAL2     0.900000E-01   1.00800           0
     29540 MEMB     249      POPC     C218     CTL3    -0.270000       12.0110           0
     29541 MEMB     249      POPC     H18R     HAL3     0.900000E-01   1.00800           0
     29542 MEMB     249      POPC     H18S     HAL3     0.900000E-01   1.00800           0
     29543 MEMB     249      POPC     H18T     HAL3     0.900000E-01   1.00800           0
     29544 MEMB     249      POPC     C33      CTL2    -0.180000       12.0110           0
     29545 MEMB     249      POPC     H3X      HAL2     0.900000E-01   1.00800           0
     29546 MEMB     249      POPC     H3Y      HAL2     0.900000E-01   1.00800           0
     29547 MEMB     249      POPC     C34      CTL2    -0.180000       12.0110           0
     29548 MEMB     249      POPC     H4X      HAL2     0.900000E-01   1.00800           0
     29549 MEMB     249      POPC     H4Y      HAL2     0.900000E-01   1.00800           0
     29550 MEMB     249      POPC     C35      CTL2    -0.180000       12.0110           0
     29551 MEMB     249      POPC     H5X      HAL2     0.900000E-01   1.00800           0
     29552 MEMB     249      POPC     H5Y      HAL2     0.900000E-01   1.00800           0
     29553 MEMB     249      POPC     C36      CTL2    -0.180000       12.0110           0
     29554 MEMB     249      POPC     H6X      HAL2     0.900000E-01   1.00800           0
     29555 MEMB     249      POPC     H6Y      HAL2     0.900000E-01   1.00800           0
     29556 MEMB     249      POPC     C37      CTL2    -0.180000       12.0110           0
     29557 MEMB     249      POPC     H7X      HAL2     0.900000E-01   1.00800           0
     29558 MEMB     249      POPC     H7Y      HAL2     0.900000E-01   1.00800           0
     29559 MEMB     249      POPC     C38      CTL2    -0.180000       12.0110           0
     29560 MEMB     249      POPC     H8X      HAL2     0.900000E-01   1.00800           0
     29561 MEMB     249      POPC     H8Y      HAL2     0.900000E-01   1.00800           0
     29562 MEMB     249      POPC     C39      CTL2    -0.180000       12.0110           0
     29563 MEMB     249      POPC     H9X      HAL2     0.900000E-01   1.00800           0
     29564 MEMB     249      POPC     H9Y      HAL2     0.900000E-01   1.00800           0
     29565 MEMB     249      POPC     C310     CTL2    -0.180000       12.0110           0
     29566 MEMB     249      POPC     H10X     HAL2     0.900000E-01   1.00800           0
     29567 MEMB     249      POPC     H10Y     HAL2     0.900000E-01   1.00800           0
     29568 MEMB     249      POPC     C311     CTL2    -0.180000       12.0110           0
     29569 MEMB     249      POPC     H11X     HAL2     0.900000E-01   1.00800           0
     29570 MEMB     249      POPC     H11Y     HAL2     0.900000E-01   1.00800           0
     29571 MEMB     249      POPC     C312     CTL2    -0.180000       12.0110           0
     29572 MEMB     249      POPC     H12X     HAL2     0.900000E-01   1.00800           0
     29573 MEMB     249      POPC     H12Y     HAL2     0.900000E-01   1.00800           0
     29574 MEMB     249      POPC     C313     CTL2    -0.180000       12.0110           0
     29575 MEMB     249      POPC     H13X     HAL2     0.900000E-01   1.00800           0
     29576 MEMB     249      POPC     H13Y     HAL2     0.900000E-01   1.00800           0
     29577 MEMB     249      POPC     C314     CTL2    -0.180000       12.0110           0
     29578 MEMB     249      POPC     H14X     HAL2     0.900000E-01   1.00800           0
     29579 MEMB     249      POPC     H14Y     HAL2     0.900000E-01   1.00800           0
     29580 MEMB     249      POPC     C315     CTL2    -0.180000       12.0110           0
     29581 MEMB     249      POPC     H15X     HAL2     0.900000E-01   1.00800           0
     29582 MEMB     249      POPC     H15Y     HAL2     0.900000E-01   1.00800           0
     29583 MEMB     249      POPC     C316     CTL3    -0.270000       12.0110           0
     29584 MEMB     249      POPC     H16X     HAL3     0.900000E-01   1.00800           0
     29585 MEMB     249      POPC     H16Y     HAL3     0.900000E-01   1.00800           0
     29586 MEMB     249      POPC     H16Z     HAL3     0.900000E-01   1.00800           0
     29587 MEMB     250      POPC     N        NTL     -0.600000       14.0070           0
     29588 MEMB     250      POPC     C12      CTL2    -0.100000       12.0110           0
     29589 MEMB     250      POPC     H12A     HL       0.250000       1.00800           0
     29590 MEMB     250      POPC     H12B     HL       0.250000       1.00800           0
     29591 MEMB     250      POPC     C13      CTL5    -0.350000       12.0110           0
     29592 MEMB     250      POPC     H13A     HL       0.250000       1.00800           0
     29593 MEMB     250      POPC     H13B     HL       0.250000       1.00800           0
     29594 MEMB     250      POPC     H13C     HL       0.250000       1.00800           0
     29595 MEMB     250      POPC     C14      CTL5    -0.350000       12.0110           0
     29596 MEMB     250      POPC     H14A     HL       0.250000       1.00800           0
     29597 MEMB     250      POPC     H14B     HL       0.250000       1.00800           0
     29598 MEMB     250      POPC     H14C     HL       0.250000       1.00800           0
     29599 MEMB     250      POPC     C15      CTL5    -0.350000       12.0110           0
     29600 MEMB     250      POPC     H15A     HL       0.250000       1.00800           0
     29601 MEMB     250      POPC     H15B     HL       0.250000       1.00800           0
     29602 MEMB     250      POPC     H15C     HL       0.250000       1.00800           0
     29603 MEMB     250      POPC     C11      CTL2    -0.800000E-01   12.0110           0
     29604 MEMB     250      POPC     H11A     HAL2     0.900000E-01   1.00800           0
     29605 MEMB     250      POPC     H11B     HAL2     0.900000E-01   1.00800           0
     29606 MEMB     250      POPC     P        PL        1.50000       30.9740           0
     29607 MEMB     250      POPC     O13      O2L     -0.780000       15.9994           0
     29608 MEMB     250      POPC     O14      O2L     -0.780000       15.9994           0
     29609 MEMB     250      POPC     O12      OSLP    -0.570000       15.9994           0
     29610 MEMB     250      POPC     O11      OSLP    -0.570000       15.9994           0
     29611 MEMB     250      POPC     C1       CTL2    -0.800000E-01   12.0110           0
     29612 MEMB     250      POPC     HA       HAL2     0.900000E-01   1.00800           0
     29613 MEMB     250      POPC     HB       HAL2     0.900000E-01   1.00800           0
     29614 MEMB     250      POPC     C2       CTL1     0.170000       12.0110           0
     29615 MEMB     250      POPC     HS       HAL1     0.900000E-01   1.00800           0
     29616 MEMB     250      POPC     O21      OSL     -0.490000       15.9994           0
     29617 MEMB     250      POPC     C21      CL       0.900000       12.0110           0
     29618 MEMB     250      POPC     O22      OBL     -0.630000       15.9994           0
     29619 MEMB     250      POPC     C22      CTL2    -0.220000       12.0110           0
     29620 MEMB     250      POPC     H2R      HAL2     0.900000E-01   1.00800           0
     29621 MEMB     250      POPC     H2S      HAL2     0.900000E-01   1.00800           0
     29622 MEMB     250      POPC     C3       CTL2     0.800000E-01   12.0110           0
     29623 MEMB     250      POPC     HX       HAL2     0.900000E-01   1.00800           0
     29624 MEMB     250      POPC     HY       HAL2     0.900000E-01   1.00800           0
     29625 MEMB     250      POPC     O31      OSL     -0.490000       15.9994           0
     29626 MEMB     250      POPC     C31      CL       0.900000       12.0110           0
     29627 MEMB     250      POPC     O32      OBL     -0.630000       15.9994           0
     29628 MEMB     250      POPC     C32      CTL2    -0.220000       12.0110           0
     29629 MEMB     250      POPC     H2X      HAL2     0.900000E-01   1.00800           0
     29630 MEMB     250      POPC     H2Y      HAL2     0.900000E-01   1.00800           0
     29631 MEMB     250      POPC     C23      CTL2    -0.180000       12.0110           0
     29632 MEMB     250      POPC     H3R      HAL2     0.900000E-01   1.00800           0
     29633 MEMB     250      POPC     H3S      HAL2     0.900000E-01   1.00800           0
     29634 MEMB     250      POPC     C24      CTL2    -0.180000       12.0110           0
     29635 MEMB     250      POPC     H4R      HAL2     0.900000E-01   1.00800           0
     29636 MEMB     250      POPC     H4S      HAL2     0.900000E-01   1.00800           0
     29637 MEMB     250      POPC     C25      CTL2    -0.180000       12.0110           0
     29638 MEMB     250      POPC     H5R      HAL2     0.900000E-01   1.00800           0
     29639 MEMB     250      POPC     H5S      HAL2     0.900000E-01   1.00800           0
     29640 MEMB     250      POPC     C26      CTL2    -0.180000       12.0110           0
     29641 MEMB     250      POPC     H6R      HAL2     0.900000E-01   1.00800           0
     29642 MEMB     250      POPC     H6S      HAL2     0.900000E-01   1.00800           0
     29643 MEMB     250      POPC     C27      CTL2    -0.180000       12.0110           0
     29644 MEMB     250      POPC     H7R      HAL2     0.900000E-01   1.00800           0
     29645 MEMB     250      POPC     H7S      HAL2     0.900000E-01   1.00800           0
     29646 MEMB     250      POPC     C28      CTL2    -0.180000       12.0110           0
     29647 MEMB     250      POPC     H8R      HAL2     0.900000E-01   1.00800           0
     29648 MEMB     250      POPC     H8S      HAL2     0.900000E-01   1.00800           0
     29649 MEMB     250      POPC     C29      CEL1    -0.150000       12.0110           0
     29650 MEMB     250      POPC     H91      HEL1     0.150000       1.00800           0
     29651 MEMB     250      POPC     C210     CEL1    -0.150000       12.0110           0
     29652 MEMB     250      POPC     H101     HEL1     0.150000       1.00800           0
     29653 MEMB     250      POPC     C211     CTL2    -0.180000       12.0110           0
     29654 MEMB     250      POPC     H11R     HAL2     0.900000E-01   1.00800           0
     29655 MEMB     250      POPC     H11S     HAL2     0.900000E-01   1.00800           0
     29656 MEMB     250      POPC     C212     CTL2    -0.180000       12.0110           0
     29657 MEMB     250      POPC     H12R     HAL2     0.900000E-01   1.00800           0
     29658 MEMB     250      POPC     H12S     HAL2     0.900000E-01   1.00800           0
     29659 MEMB     250      POPC     C213     CTL2    -0.180000       12.0110           0
     29660 MEMB     250      POPC     H13R     HAL2     0.900000E-01   1.00800           0
     29661 MEMB     250      POPC     H13S     HAL2     0.900000E-01   1.00800           0
     29662 MEMB     250      POPC     C214     CTL2    -0.180000       12.0110           0
     29663 MEMB     250      POPC     H14R     HAL2     0.900000E-01   1.00800           0
     29664 MEMB     250      POPC     H14S     HAL2     0.900000E-01   1.00800           0
     29665 MEMB     250      POPC     C215     CTL2    -0.180000       12.0110           0
     29666 MEMB     250      POPC     H15R     HAL2     0.900000E-01   1.00800           0
     29667 MEMB     250      POPC     H15S     HAL2     0.900000E-01   1.00800           0
     29668 MEMB     250      POPC     C216     CTL2    -0.180000       12.0110           0
     29669 MEMB     250      POPC     H16R     HAL2     0.900000E-01   1.00800           0
     29670 MEMB     250      POPC     H16S     HAL2     0.900000E-01   1.00800           0
     29671 MEMB     250      POPC     C217     CTL2    -0.180000       12.0110           0
     29672 MEMB     250      POPC     H17R     HAL2     0.900000E-01   1.00800           0
     29673 MEMB     250      POPC     H17S     HAL2     0.900000E-01   1.00800           0
     29674 MEMB     250      POPC     C218     CTL3    -0.270000       12.0110           0
     29675 MEMB     250      POPC     H18R     HAL3     0.900000E-01   1.00800           0
     29676 MEMB     250      POPC     H18S     HAL3     0.900000E-01   1.00800           0
     29677 MEMB     250      POPC     H18T     HAL3     0.900000E-01   1.00800           0
     29678 MEMB     250      POPC     C33      CTL2    -0.180000       12.0110           0
     29679 MEMB     250      POPC     H3X      HAL2     0.900000E-01   1.00800           0
     29680 MEMB     250      POPC     H3Y      HAL2     0.900000E-01   1.00800           0
     29681 MEMB     250      POPC     C34      CTL2    -0.180000       12.0110           0
     29682 MEMB     250      POPC     H4X      HAL2     0.900000E-01   1.00800           0
     29683 MEMB     250      POPC     H4Y      HAL2     0.900000E-01   1.00800           0
     29684 MEMB     250      POPC     C35      CTL2    -0.180000       12.0110           0
     29685 MEMB     250      POPC     H5X      HAL2     0.900000E-01   1.00800           0
     29686 MEMB     250      POPC     H5Y      HAL2     0.900000E-01   1.00800           0
     29687 MEMB     250      POPC     C36      CTL2    -0.180000       12.0110           0
     29688 MEMB     250      POPC     H6X      HAL2     0.900000E-01   1.00800           0
     29689 MEMB     250      POPC     H6Y      HAL2     0.900000E-01   1.00800           0
     29690 MEMB     250      POPC     C37      CTL2    -0.180000       12.0110           0
     29691 MEMB     250      POPC     H7X      HAL2     0.900000E-01   1.00800           0
     29692 MEMB     250      POPC     H7Y      HAL2     0.900000E-01   1.00800           0
     29693 MEMB     250      POPC     C38      CTL2    -0.180000       12.0110           0
     29694 MEMB     250      POPC     H8X      HAL2     0.900000E-01   1.00800           0
     29695 MEMB     250      POPC     H8Y      HAL2     0.900000E-01   1.00800           0
     29696 MEMB     250      POPC     C39      CTL2    -0.180000       12.0110           0
     29697 MEMB     250      POPC     H9X      HAL2     0.900000E-01   1.00800           0
     29698 MEMB     250      POPC     H9Y      HAL2     0.900000E-01   1.00800           0
     29699 MEMB     250      POPC     C310     CTL2    -0.180000       12.0110           0
     29700 MEMB     250      POPC     H10X     HAL2     0.900000E-01   1.00800           0
     29701 MEMB     250      POPC     H10Y     HAL2     0.900000E-01   1.00800           0
     29702 MEMB     250      POPC     C311     CTL2    -0.180000       12.0110           0
     29703 MEMB     250      POPC     H11X     HAL2     0.900000E-01   1.00800           0
     29704 MEMB     250      POPC     H11Y     HAL2     0.900000E-01   1.00800           0
     29705 MEMB     250      POPC     C312     CTL2    -0.180000       12.0110           0
     29706 MEMB     250      POPC     H12X     HAL2     0.900000E-01   1.00800           0
     29707 MEMB     250      POPC     H12Y     HAL2     0.900000E-01   1.00800           0
     29708 MEMB     250      POPC     C313     CTL2    -0.180000       12.0110           0
     29709 MEMB     250      POPC     H13X     HAL2     0.900000E-01   1.00800           0
     29710 MEMB     250      POPC     H13Y     HAL2     0.900000E-01   1.00800           0
     29711 MEMB     250      POPC     C314     CTL2    -0.180000       12.0110           0
     29712 MEMB     250      POPC     H14X     HAL2     0.900000E-01   1.00800           0
     29713 MEMB     250      POPC     H14Y     HAL2     0.900000E-01   1.00800           0
     29714 MEMB     250      POPC     C315     CTL2    -0.180000       12.0110           0
     29715 MEMB     250      POPC     H15X     HAL2     0.900000E-01   1.00800           0
     29716 MEMB     250      POPC     H15Y     HAL2     0.900000E-01   1.00800           0
     29717 MEMB     250      POPC     C316     CTL3    -0.270000       12.0110           0
     29718 MEMB     250      POPC     H16X     HAL3     0.900000E-01   1.00800           0
     29719 MEMB     250      POPC     H16Y     HAL3     0.900000E-01   1.00800           0
     29720 MEMB     250      POPC     H16Z     HAL3     0.900000E-01   1.00800           0
     29721 MEMB     251      POPC     N        NTL     -0.600000       14.0070           0
     29722 MEMB     251      POPC     C12      CTL2    -0.100000       12.0110           0
     29723 MEMB     251      POPC     H12A     HL       0.250000       1.00800           0
     29724 MEMB     251      POPC     H12B     HL       0.250000       1.00800           0
     29725 MEMB     251      POPC     C13      CTL5    -0.350000       12.0110           0
     29726 MEMB     251      POPC     H13A     HL       0.250000       1.00800           0
     29727 MEMB     251      POPC     H13B     HL       0.250000       1.00800           0
     29728 MEMB     251      POPC     H13C     HL       0.250000       1.00800           0
     29729 MEMB     251      POPC     C14      CTL5    -0.350000       12.0110           0
     29730 MEMB     251      POPC     H14A     HL       0.250000       1.00800           0
     29731 MEMB     251      POPC     H14B     HL       0.250000       1.00800           0
     29732 MEMB     251      POPC     H14C     HL       0.250000       1.00800           0
     29733 MEMB     251      POPC     C15      CTL5    -0.350000       12.0110           0
     29734 MEMB     251      POPC     H15A     HL       0.250000       1.00800           0
     29735 MEMB     251      POPC     H15B     HL       0.250000       1.00800           0
     29736 MEMB     251      POPC     H15C     HL       0.250000       1.00800           0
     29737 MEMB     251      POPC     C11      CTL2    -0.800000E-01   12.0110           0
     29738 MEMB     251      POPC     H11A     HAL2     0.900000E-01   1.00800           0
     29739 MEMB     251      POPC     H11B     HAL2     0.900000E-01   1.00800           0
     29740 MEMB     251      POPC     P        PL        1.50000       30.9740           0
     29741 MEMB     251      POPC     O13      O2L     -0.780000       15.9994           0
     29742 MEMB     251      POPC     O14      O2L     -0.780000       15.9994           0
     29743 MEMB     251      POPC     O12      OSLP    -0.570000       15.9994           0
     29744 MEMB     251      POPC     O11      OSLP    -0.570000       15.9994           0
     29745 MEMB     251      POPC     C1       CTL2    -0.800000E-01   12.0110           0
     29746 MEMB     251      POPC     HA       HAL2     0.900000E-01   1.00800           0
     29747 MEMB     251      POPC     HB       HAL2     0.900000E-01   1.00800           0
     29748 MEMB     251      POPC     C2       CTL1     0.170000       12.0110           0
     29749 MEMB     251      POPC     HS       HAL1     0.900000E-01   1.00800           0
     29750 MEMB     251      POPC     O21      OSL     -0.490000       15.9994           0
     29751 MEMB     251      POPC     C21      CL       0.900000       12.0110           0
     29752 MEMB     251      POPC     O22      OBL     -0.630000       15.9994           0
     29753 MEMB     251      POPC     C22      CTL2    -0.220000       12.0110           0
     29754 MEMB     251      POPC     H2R      HAL2     0.900000E-01   1.00800           0
     29755 MEMB     251      POPC     H2S      HAL2     0.900000E-01   1.00800           0
     29756 MEMB     251      POPC     C3       CTL2     0.800000E-01   12.0110           0
     29757 MEMB     251      POPC     HX       HAL2     0.900000E-01   1.00800           0
     29758 MEMB     251      POPC     HY       HAL2     0.900000E-01   1.00800           0
     29759 MEMB     251      POPC     O31      OSL     -0.490000       15.9994           0
     29760 MEMB     251      POPC     C31      CL       0.900000       12.0110           0
     29761 MEMB     251      POPC     O32      OBL     -0.630000       15.9994           0
     29762 MEMB     251      POPC     C32      CTL2    -0.220000       12.0110           0
     29763 MEMB     251      POPC     H2X      HAL2     0.900000E-01   1.00800           0
     29764 MEMB     251      POPC     H2Y      HAL2     0.900000E-01   1.00800           0
     29765 MEMB     251      POPC     C23      CTL2    -0.180000       12.0110           0
     29766 MEMB     251      POPC     H3R      HAL2     0.900000E-01   1.00800           0
     29767 MEMB     251      POPC     H3S      HAL2     0.900000E-01   1.00800           0
     29768 MEMB     251      POPC     C24      CTL2    -0.180000       12.0110           0
     29769 MEMB     251      POPC     H4R      HAL2     0.900000E-01   1.00800           0
     29770 MEMB     251      POPC     H4S      HAL2     0.900000E-01   1.00800           0
     29771 MEMB     251      POPC     C25      CTL2    -0.180000       12.0110           0
     29772 MEMB     251      POPC     H5R      HAL2     0.900000E-01   1.00800           0
     29773 MEMB     251      POPC     H5S      HAL2     0.900000E-01   1.00800           0
     29774 MEMB     251      POPC     C26      CTL2    -0.180000       12.0110           0
     29775 MEMB     251      POPC     H6R      HAL2     0.900000E-01   1.00800           0
     29776 MEMB     251      POPC     H6S      HAL2     0.900000E-01   1.00800           0
     29777 MEMB     251      POPC     C27      CTL2    -0.180000       12.0110           0
     29778 MEMB     251      POPC     H7R      HAL2     0.900000E-01   1.00800           0
     29779 MEMB     251      POPC     H7S      HAL2     0.900000E-01   1.00800           0
     29780 MEMB     251      POPC     C28      CTL2    -0.180000       12.0110           0
     29781 MEMB     251      POPC     H8R      HAL2     0.900000E-01   1.00800           0
     29782 MEMB     251      POPC     H8S      HAL2     0.900000E-01   1.00800           0
     29783 MEMB     251      POPC     C29      CEL1    -0.150000       12.0110           0
     29784 MEMB     251      POPC     H91      HEL1     0.150000       1.00800           0
     29785 MEMB     251      POPC     C210     CEL1    -0.150000       12.0110           0
     29786 MEMB     251      POPC     H101     HEL1     0.150000       1.00800           0
     29787 MEMB     251      POPC     C211     CTL2    -0.180000       12.0110           0
     29788 MEMB     251      POPC     H11R     HAL2     0.900000E-01   1.00800           0
     29789 MEMB     251      POPC     H11S     HAL2     0.900000E-01   1.00800           0
     29790 MEMB     251      POPC     C212     CTL2    -0.180000       12.0110           0
     29791 MEMB     251      POPC     H12R     HAL2     0.900000E-01   1.00800           0
     29792 MEMB     251      POPC     H12S     HAL2     0.900000E-01   1.00800           0
     29793 MEMB     251      POPC     C213     CTL2    -0.180000       12.0110           0
     29794 MEMB     251      POPC     H13R     HAL2     0.900000E-01   1.00800           0
     29795 MEMB     251      POPC     H13S     HAL2     0.900000E-01   1.00800           0
     29796 MEMB     251      POPC     C214     CTL2    -0.180000       12.0110           0
     29797 MEMB     251      POPC     H14R     HAL2     0.900000E-01   1.00800           0
     29798 MEMB     251      POPC     H14S     HAL2     0.900000E-01   1.00800           0
     29799 MEMB     251      POPC     C215     CTL2    -0.180000       12.0110           0
     29800 MEMB     251      POPC     H15R     HAL2     0.900000E-01   1.00800           0
     29801 MEMB     251      POPC     H15S     HAL2     0.900000E-01   1.00800           0
     29802 MEMB     251      POPC     C216     CTL2    -0.180000       12.0110           0
     29803 MEMB     251      POPC     H16R     HAL2     0.900000E-01   1.00800           0
     29804 MEMB     251      POPC     H16S     HAL2     0.900000E-01   1.00800           0
     29805 MEMB     251      POPC     C217     CTL2    -0.180000       12.0110           0
     29806 MEMB     251      POPC     H17R     HAL2     0.900000E-01   1.00800           0
     29807 MEMB     251      POPC     H17S     HAL2     0.900000E-01   1.00800           0
     29808 MEMB     251      POPC     C218     CTL3    -0.270000       12.0110           0
     29809 MEMB     251      POPC     H18R     HAL3     0.900000E-01   1.00800           0
     29810 MEMB     251      POPC     H18S     HAL3     0.900000E-01   1.00800           0
     29811 MEMB     251      POPC     H18T     HAL3     0.900000E-01   1.00800           0
     29812 MEMB     251      POPC     C33      CTL2    -0.180000       12.0110           0
     29813 MEMB     251      POPC     H3X      HAL2     0.900000E-01   1.00800           0
     29814 MEMB     251      POPC     H3Y      HAL2     0.900000E-01   1.00800           0
     29815 MEMB     251      POPC     C34      CTL2    -0.180000       12.0110           0
     29816 MEMB     251      POPC     H4X      HAL2     0.900000E-01   1.00800           0
     29817 MEMB     251      POPC     H4Y      HAL2     0.900000E-01   1.00800           0
     29818 MEMB     251      POPC     C35      CTL2    -0.180000       12.0110           0
     29819 MEMB     251      POPC     H5X      HAL2     0.900000E-01   1.00800           0
     29820 MEMB     251      POPC     H5Y      HAL2     0.900000E-01   1.00800           0
     29821 MEMB     251      POPC     C36      CTL2    -0.180000       12.0110           0
     29822 MEMB     251      POPC     H6X      HAL2     0.900000E-01   1.00800           0
     29823 MEMB     251      POPC     H6Y      HAL2     0.900000E-01   1.00800           0
     29824 MEMB     251      POPC     C37      CTL2    -0.180000       12.0110           0
     29825 MEMB     251      POPC     H7X      HAL2     0.900000E-01   1.00800           0
     29826 MEMB     251      POPC     H7Y      HAL2     0.900000E-01   1.00800           0
     29827 MEMB     251      POPC     C38      CTL2    -0.180000       12.0110           0
     29828 MEMB     251      POPC     H8X      HAL2     0.900000E-01   1.00800           0
     29829 MEMB     251      POPC     H8Y      HAL2     0.900000E-01   1.00800           0
     29830 MEMB     251      POPC     C39      CTL2    -0.180000       12.0110           0
     29831 MEMB     251      POPC     H9X      HAL2     0.900000E-01   1.00800           0
     29832 MEMB     251      POPC     H9Y      HAL2     0.900000E-01   1.00800           0
     29833 MEMB     251      POPC     C310     CTL2    -0.180000       12.0110           0
     29834 MEMB     251      POPC     H10X     HAL2     0.900000E-01   1.00800           0
     29835 MEMB     251      POPC     H10Y     HAL2     0.900000E-01   1.00800           0
     29836 MEMB     251      POPC     C311     CTL2    -0.180000       12.0110           0
     29837 MEMB     251      POPC     H11X     HAL2     0.900000E-01   1.00800           0
     29838 MEMB     251      POPC     H11Y     HAL2     0.900000E-01   1.00800           0
     29839 MEMB     251      POPC     C312     CTL2    -0.180000       12.0110           0
     29840 MEMB     251      POPC     H12X     HAL2     0.900000E-01   1.00800           0
     29841 MEMB     251      POPC     H12Y     HAL2     0.900000E-01   1.00800           0
     29842 MEMB     251      POPC     C313     CTL2    -0.180000       12.0110           0
     29843 MEMB     251      POPC     H13X     HAL2     0.900000E-01   1.00800           0
     29844 MEMB     251      POPC     H13Y     HAL2     0.900000E-01   1.00800           0
     29845 MEMB     251      POPC     C314     CTL2    -0.180000       12.0110           0
     29846 MEMB     251      POPC     H14X     HAL2     0.900000E-01   1.00800           0
     29847 MEMB     251      POPC     H14Y     HAL2     0.900000E-01   1.00800           0
     29848 MEMB     251      POPC     C315     CTL2    -0.180000       12.0110           0
     29849 MEMB     251      POPC     H15X     HAL2     0.900000E-01   1.00800           0
     29850 MEMB     251      POPC     H15Y     HAL2     0.900000E-01   1.00800           0
     29851 MEMB     251      POPC     C316     CTL3    -0.270000       12.0110           0
     29852 MEMB     251      POPC     H16X     HAL3     0.900000E-01   1.00800           0
     29853 MEMB     251      POPC     H16Y     HAL3     0.900000E-01   1.00800           0
     29854 MEMB     251      POPC     H16Z     HAL3     0.900000E-01   1.00800           0
     29855 MEMB     252      POPC     N        NTL     -0.600000       14.0070           0
     29856 MEMB     252      POPC     C12      CTL2    -0.100000       12.0110           0
     29857 MEMB     252      POPC     H12A     HL       0.250000       1.00800           0
     29858 MEMB     252      POPC     H12B     HL       0.250000       1.00800           0
     29859 MEMB     252      POPC     C13      CTL5    -0.350000       12.0110           0
     29860 MEMB     252      POPC     H13A     HL       0.250000       1.00800           0
     29861 MEMB     252      POPC     H13B     HL       0.250000       1.00800           0
     29862 MEMB     252      POPC     H13C     HL       0.250000       1.00800           0
     29863 MEMB     252      POPC     C14      CTL5    -0.350000       12.0110           0
     29864 MEMB     252      POPC     H14A     HL       0.250000       1.00800           0
     29865 MEMB     252      POPC     H14B     HL       0.250000       1.00800           0
     29866 MEMB     252      POPC     H14C     HL       0.250000       1.00800           0
     29867 MEMB     252      POPC     C15      CTL5    -0.350000       12.0110           0
     29868 MEMB     252      POPC     H15A     HL       0.250000       1.00800           0
     29869 MEMB     252      POPC     H15B     HL       0.250000       1.00800           0
     29870 MEMB     252      POPC     H15C     HL       0.250000       1.00800           0
     29871 MEMB     252      POPC     C11      CTL2    -0.800000E-01   12.0110           0
     29872 MEMB     252      POPC     H11A     HAL2     0.900000E-01   1.00800           0
     29873 MEMB     252      POPC     H11B     HAL2     0.900000E-01   1.00800           0
     29874 MEMB     252      POPC     P        PL        1.50000       30.9740           0
     29875 MEMB     252      POPC     O13      O2L     -0.780000       15.9994           0
     29876 MEMB     252      POPC     O14      O2L     -0.780000       15.9994           0
     29877 MEMB     252      POPC     O12      OSLP    -0.570000       15.9994           0
     29878 MEMB     252      POPC     O11      OSLP    -0.570000       15.9994           0
     29879 MEMB     252      POPC     C1       CTL2    -0.800000E-01   12.0110           0
     29880 MEMB     252      POPC     HA       HAL2     0.900000E-01   1.00800           0
     29881 MEMB     252      POPC     HB       HAL2     0.900000E-01   1.00800           0
     29882 MEMB     252      POPC     C2       CTL1     0.170000       12.0110           0
     29883 MEMB     252      POPC     HS       HAL1     0.900000E-01   1.00800           0
     29884 MEMB     252      POPC     O21      OSL     -0.490000       15.9994           0
     29885 MEMB     252      POPC     C21      CL       0.900000       12.0110           0
     29886 MEMB     252      POPC     O22      OBL     -0.630000       15.9994           0
     29887 MEMB     252      POPC     C22      CTL2    -0.220000       12.0110           0
     29888 MEMB     252      POPC     H2R      HAL2     0.900000E-01   1.00800           0
     29889 MEMB     252      POPC     H2S      HAL2     0.900000E-01   1.00800           0
     29890 MEMB     252      POPC     C3       CTL2     0.800000E-01   12.0110           0
     29891 MEMB     252      POPC     HX       HAL2     0.900000E-01   1.00800           0
     29892 MEMB     252      POPC     HY       HAL2     0.900000E-01   1.00800           0
     29893 MEMB     252      POPC     O31      OSL     -0.490000       15.9994           0
     29894 MEMB     252      POPC     C31      CL       0.900000       12.0110           0
     29895 MEMB     252      POPC     O32      OBL     -0.630000       15.9994           0
     29896 MEMB     252      POPC     C32      CTL2    -0.220000       12.0110           0
     29897 MEMB     252      POPC     H2X      HAL2     0.900000E-01   1.00800           0
     29898 MEMB     252      POPC     H2Y      HAL2     0.900000E-01   1.00800           0
     29899 MEMB     252      POPC     C23      CTL2    -0.180000       12.0110           0
     29900 MEMB     252      POPC     H3R      HAL2     0.900000E-01   1.00800           0
     29901 MEMB     252      POPC     H3S      HAL2     0.900000E-01   1.00800           0
     29902 MEMB     252      POPC     C24      CTL2    -0.180000       12.0110           0
     29903 MEMB     252      POPC     H4R      HAL2     0.900000E-01   1.00800           0
     29904 MEMB     252      POPC     H4S      HAL2     0.900000E-01   1.00800           0
     29905 MEMB     252      POPC     C25      CTL2    -0.180000       12.0110           0
     29906 MEMB     252      POPC     H5R      HAL2     0.900000E-01   1.00800           0
     29907 MEMB     252      POPC     H5S      HAL2     0.900000E-01   1.00800           0
     29908 MEMB     252      POPC     C26      CTL2    -0.180000       12.0110           0
     29909 MEMB     252      POPC     H6R      HAL2     0.900000E-01   1.00800           0
     29910 MEMB     252      POPC     H6S      HAL2     0.900000E-01   1.00800           0
     29911 MEMB     252      POPC     C27      CTL2    -0.180000       12.0110           0
     29912 MEMB     252      POPC     H7R      HAL2     0.900000E-01   1.00800           0
     29913 MEMB     252      POPC     H7S      HAL2     0.900000E-01   1.00800           0
     29914 MEMB     252      POPC     C28      CTL2    -0.180000       12.0110           0
     29915 MEMB     252      POPC     H8R      HAL2     0.900000E-01   1.00800           0
     29916 MEMB     252      POPC     H8S      HAL2     0.900000E-01   1.00800           0
     29917 MEMB     252      POPC     C29      CEL1    -0.150000       12.0110           0
     29918 MEMB     252      POPC     H91      HEL1     0.150000       1.00800           0
     29919 MEMB     252      POPC     C210     CEL1    -0.150000       12.0110           0
     29920 MEMB     252      POPC     H101     HEL1     0.150000       1.00800           0
     29921 MEMB     252      POPC     C211     CTL2    -0.180000       12.0110           0
     29922 MEMB     252      POPC     H11R     HAL2     0.900000E-01   1.00800           0
     29923 MEMB     252      POPC     H11S     HAL2     0.900000E-01   1.00800           0
     29924 MEMB     252      POPC     C212     CTL2    -0.180000       12.0110           0
     29925 MEMB     252      POPC     H12R     HAL2     0.900000E-01   1.00800           0
     29926 MEMB     252      POPC     H12S     HAL2     0.900000E-01   1.00800           0
     29927 MEMB     252      POPC     C213     CTL2    -0.180000       12.0110           0
     29928 MEMB     252      POPC     H13R     HAL2     0.900000E-01   1.00800           0
     29929 MEMB     252      POPC     H13S     HAL2     0.900000E-01   1.00800           0
     29930 MEMB     252      POPC     C214     CTL2    -0.180000       12.0110           0
     29931 MEMB     252      POPC     H14R     HAL2     0.900000E-01   1.00800           0
     29932 MEMB     252      POPC     H14S     HAL2     0.900000E-01   1.00800           0
     29933 MEMB     252      POPC     C215     CTL2    -0.180000       12.0110           0
     29934 MEMB     252      POPC     H15R     HAL2     0.900000E-01   1.00800           0
     29935 MEMB     252      POPC     H15S     HAL2     0.900000E-01   1.00800           0
     29936 MEMB     252      POPC     C216     CTL2    -0.180000       12.0110           0
     29937 MEMB     252      POPC     H16R     HAL2     0.900000E-01   1.00800           0
     29938 MEMB     252      POPC     H16S     HAL2     0.900000E-01   1.00800           0
     29939 MEMB     252      POPC     C217     CTL2    -0.180000       12.0110           0
     29940 MEMB     252      POPC     H17R     HAL2     0.900000E-01   1.00800           0
     29941 MEMB     252      POPC     H17S     HAL2     0.900000E-01   1.00800           0
     29942 MEMB     252      POPC     C218     CTL3    -0.270000       12.0110           0
     29943 MEMB     252      POPC     H18R     HAL3     0.900000E-01   1.00800           0
     29944 MEMB     252      POPC     H18S     HAL3     0.900000E-01   1.00800           0
     29945 MEMB     252      POPC     H18T     HAL3     0.900000E-01   1.00800           0
     29946 MEMB     252      POPC     C33      CTL2    -0.180000       12.0110           0
     29947 MEMB     252      POPC     H3X      HAL2     0.900000E-01   1.00800           0
     29948 MEMB     252      POPC     H3Y      HAL2     0.900000E-01   1.00800           0
     29949 MEMB     252      POPC     C34      CTL2    -0.180000       12.0110           0
     29950 MEMB     252      POPC     H4X      HAL2     0.900000E-01   1.00800           0
     29951 MEMB     252      POPC     H4Y      HAL2     0.900000E-01   1.00800           0
     29952 MEMB     252      POPC     C35      CTL2    -0.180000       12.0110           0
     29953 MEMB     252      POPC     H5X      HAL2     0.900000E-01   1.00800           0
     29954 MEMB     252      POPC     H5Y      HAL2     0.900000E-01   1.00800           0
     29955 MEMB     252      POPC     C36      CTL2    -0.180000       12.0110           0
     29956 MEMB     252      POPC     H6X      HAL2     0.900000E-01   1.00800           0
     29957 MEMB     252      POPC     H6Y      HAL2     0.900000E-01   1.00800           0
     29958 MEMB     252      POPC     C37      CTL2    -0.180000       12.0110           0
     29959 MEMB     252      POPC     H7X      HAL2     0.900000E-01   1.00800           0
     29960 MEMB     252      POPC     H7Y      HAL2     0.900000E-01   1.00800           0
     29961 MEMB     252      POPC     C38      CTL2    -0.180000       12.0110           0
     29962 MEMB     252      POPC     H8X      HAL2     0.900000E-01   1.00800           0
     29963 MEMB     252      POPC     H8Y      HAL2     0.900000E-01   1.00800           0
     29964 MEMB     252      POPC     C39      CTL2    -0.180000       12.0110           0
     29965 MEMB     252      POPC     H9X      HAL2     0.900000E-01   1.00800           0
     29966 MEMB     252      POPC     H9Y      HAL2     0.900000E-01   1.00800           0
     29967 MEMB     252      POPC     C310     CTL2    -0.180000       12.0110           0
     29968 MEMB     252      POPC     H10X     HAL2     0.900000E-01   1.00800           0
     29969 MEMB     252      POPC     H10Y     HAL2     0.900000E-01   1.00800           0
     29970 MEMB     252      POPC     C311     CTL2    -0.180000       12.0110           0
     29971 MEMB     252      POPC     H11X     HAL2     0.900000E-01   1.00800           0
     29972 MEMB     252      POPC     H11Y     HAL2     0.900000E-01   1.00800           0
     29973 MEMB     252      POPC     C312     CTL2    -0.180000       12.0110           0
     29974 MEMB     252      POPC     H12X     HAL2     0.900000E-01   1.00800           0
     29975 MEMB     252      POPC     H12Y     HAL2     0.900000E-01   1.00800           0
     29976 MEMB     252      POPC     C313     CTL2    -0.180000       12.0110           0
     29977 MEMB     252      POPC     H13X     HAL2     0.900000E-01   1.00800           0
     29978 MEMB     252      POPC     H13Y     HAL2     0.900000E-01   1.00800           0
     29979 MEMB     252      POPC     C314     CTL2    -0.180000       12.0110           0
     29980 MEMB     252      POPC     H14X     HAL2     0.900000E-01   1.00800           0
     29981 MEMB     252      POPC     H14Y     HAL2     0.900000E-01   1.00800           0
     29982 MEMB     252      POPC     C315     CTL2    -0.180000       12.0110           0
     29983 MEMB     252      POPC     H15X     HAL2     0.900000E-01   1.00800           0
     29984 MEMB     252      POPC     H15Y     HAL2     0.900000E-01   1.00800           0
     29985 MEMB     252      POPC     C316     CTL3    -0.270000       12.0110           0
     29986 MEMB     252      POPC     H16X     HAL3     0.900000E-01   1.00800           0
     29987 MEMB     252      POPC     H16Y     HAL3     0.900000E-01   1.00800           0
     29988 MEMB     252      POPC     H16Z     HAL3     0.900000E-01   1.00800           0
     29989 MEMB     253      POPC     N        NTL     -0.600000       14.0070           0
     29990 MEMB     253      POPC     C12      CTL2    -0.100000       12.0110           0
     29991 MEMB     253      POPC     H12A     HL       0.250000       1.00800           0
     29992 MEMB     253      POPC     H12B     HL       0.250000       1.00800           0
     29993 MEMB     253      POPC     C13      CTL5    -0.350000       12.0110           0
     29994 MEMB     253      POPC     H13A     HL       0.250000       1.00800           0
     29995 MEMB     253      POPC     H13B     HL       0.250000       1.00800           0
     29996 MEMB     253      POPC     H13C     HL       0.250000       1.00800           0
     29997 MEMB     253      POPC     C14      CTL5    -0.350000       12.0110           0
     29998 MEMB     253      POPC     H14A     HL       0.250000       1.00800           0
     29999 MEMB     253      POPC     H14B     HL       0.250000       1.00800           0
     30000 MEMB     253      POPC     H14C     HL       0.250000       1.00800           0
     30001 MEMB     253      POPC     C15      CTL5    -0.350000       12.0110           0
     30002 MEMB     253      POPC     H15A     HL       0.250000       1.00800           0
     30003 MEMB     253      POPC     H15B     HL       0.250000       1.00800           0
     30004 MEMB     253      POPC     H15C     HL       0.250000       1.00800           0
     30005 MEMB     253      POPC     C11      CTL2    -0.800000E-01   12.0110           0
     30006 MEMB     253      POPC     H11A     HAL2     0.900000E-01   1.00800           0
     30007 MEMB     253      POPC     H11B     HAL2     0.900000E-01   1.00800           0
     30008 MEMB     253      POPC     P        PL        1.50000       30.9740           0
     30009 MEMB     253      POPC     O13      O2L     -0.780000       15.9994           0
     30010 MEMB     253      POPC     O14      O2L     -0.780000       15.9994           0
     30011 MEMB     253      POPC     O12      OSLP    -0.570000       15.9994           0
     30012 MEMB     253      POPC     O11      OSLP    -0.570000       15.9994           0
     30013 MEMB     253      POPC     C1       CTL2    -0.800000E-01   12.0110           0
     30014 MEMB     253      POPC     HA       HAL2     0.900000E-01   1.00800           0
     30015 MEMB     253      POPC     HB       HAL2     0.900000E-01   1.00800           0
     30016 MEMB     253      POPC     C2       CTL1     0.170000       12.0110           0
     30017 MEMB     253      POPC     HS       HAL1     0.900000E-01   1.00800           0
     30018 MEMB     253      POPC     O21      OSL     -0.490000       15.9994           0
     30019 MEMB     253      POPC     C21      CL       0.900000       12.0110           0
     30020 MEMB     253      POPC     O22      OBL     -0.630000       15.9994           0
     30021 MEMB     253      POPC     C22      CTL2    -0.220000       12.0110           0
     30022 MEMB     253      POPC     H2R      HAL2     0.900000E-01   1.00800           0
     30023 MEMB     253      POPC     H2S      HAL2     0.900000E-01   1.00800           0
     30024 MEMB     253      POPC     C3       CTL2     0.800000E-01   12.0110           0
     30025 MEMB     253      POPC     HX       HAL2     0.900000E-01   1.00800           0
     30026 MEMB     253      POPC     HY       HAL2     0.900000E-01   1.00800           0
     30027 MEMB     253      POPC     O31      OSL     -0.490000       15.9994           0
     30028 MEMB     253      POPC     C31      CL       0.900000       12.0110           0
     30029 MEMB     253      POPC     O32      OBL     -0.630000       15.9994           0
     30030 MEMB     253      POPC     C32      CTL2    -0.220000       12.0110           0
     30031 MEMB     253      POPC     H2X      HAL2     0.900000E-01   1.00800           0
     30032 MEMB     253      POPC     H2Y      HAL2     0.900000E-01   1.00800           0
     30033 MEMB     253      POPC     C23      CTL2    -0.180000       12.0110           0
     30034 MEMB     253      POPC     H3R      HAL2     0.900000E-01   1.00800           0
     30035 MEMB     253      POPC     H3S      HAL2     0.900000E-01   1.00800           0
     30036 MEMB     253      POPC     C24      CTL2    -0.180000       12.0110           0
     30037 MEMB     253      POPC     H4R      HAL2     0.900000E-01   1.00800           0
     30038 MEMB     253      POPC     H4S      HAL2     0.900000E-01   1.00800           0
     30039 MEMB     253      POPC     C25      CTL2    -0.180000       12.0110           0
     30040 MEMB     253      POPC     H5R      HAL2     0.900000E-01   1.00800           0
     30041 MEMB     253      POPC     H5S      HAL2     0.900000E-01   1.00800           0
     30042 MEMB     253      POPC     C26      CTL2    -0.180000       12.0110           0
     30043 MEMB     253      POPC     H6R      HAL2     0.900000E-01   1.00800           0
     30044 MEMB     253      POPC     H6S      HAL2     0.900000E-01   1.00800           0
     30045 MEMB     253      POPC     C27      CTL2    -0.180000       12.0110           0
     30046 MEMB     253      POPC     H7R      HAL2     0.900000E-01   1.00800           0
     30047 MEMB     253      POPC     H7S      HAL2     0.900000E-01   1.00800           0
     30048 MEMB     253      POPC     C28      CTL2    -0.180000       12.0110           0
     30049 MEMB     253      POPC     H8R      HAL2     0.900000E-01   1.00800           0
     30050 MEMB     253      POPC     H8S      HAL2     0.900000E-01   1.00800           0
     30051 MEMB     253      POPC     C29      CEL1    -0.150000       12.0110           0
     30052 MEMB     253      POPC     H91      HEL1     0.150000       1.00800           0
     30053 MEMB     253      POPC     C210     CEL1    -0.150000       12.0110           0
     30054 MEMB     253      POPC     H101     HEL1     0.150000       1.00800           0
     30055 MEMB     253      POPC     C211     CTL2    -0.180000       12.0110           0
     30056 MEMB     253      POPC     H11R     HAL2     0.900000E-01   1.00800           0
     30057 MEMB     253      POPC     H11S     HAL2     0.900000E-01   1.00800           0
     30058 MEMB     253      POPC     C212     CTL2    -0.180000       12.0110           0
     30059 MEMB     253      POPC     H12R     HAL2     0.900000E-01   1.00800           0
     30060 MEMB     253      POPC     H12S     HAL2     0.900000E-01   1.00800           0
     30061 MEMB     253      POPC     C213     CTL2    -0.180000       12.0110           0
     30062 MEMB     253      POPC     H13R     HAL2     0.900000E-01   1.00800           0
     30063 MEMB     253      POPC     H13S     HAL2     0.900000E-01   1.00800           0
     30064 MEMB     253      POPC     C214     CTL2    -0.180000       12.0110           0
     30065 MEMB     253      POPC     H14R     HAL2     0.900000E-01   1.00800           0
     30066 MEMB     253      POPC     H14S     HAL2     0.900000E-01   1.00800           0
     30067 MEMB     253      POPC     C215     CTL2    -0.180000       12.0110           0
     30068 MEMB     253      POPC     H15R     HAL2     0.900000E-01   1.00800           0
     30069 MEMB     253      POPC     H15S     HAL2     0.900000E-01   1.00800           0
     30070 MEMB     253      POPC     C216     CTL2    -0.180000       12.0110           0
     30071 MEMB     253      POPC     H16R     HAL2     0.900000E-01   1.00800           0
     30072 MEMB     253      POPC     H16S     HAL2     0.900000E-01   1.00800           0
     30073 MEMB     253      POPC     C217     CTL2    -0.180000       12.0110           0
     30074 MEMB     253      POPC     H17R     HAL2     0.900000E-01   1.00800           0
     30075 MEMB     253      POPC     H17S     HAL2     0.900000E-01   1.00800           0
     30076 MEMB     253      POPC     C218     CTL3    -0.270000       12.0110           0
     30077 MEMB     253      POPC     H18R     HAL3     0.900000E-01   1.00800           0
     30078 MEMB     253      POPC     H18S     HAL3     0.900000E-01   1.00800           0
     30079 MEMB     253      POPC     H18T     HAL3     0.900000E-01   1.00800           0
     30080 MEMB     253      POPC     C33      CTL2    -0.180000       12.0110           0
     30081 MEMB     253      POPC     H3X      HAL2     0.900000E-01   1.00800           0
     30082 MEMB     253      POPC     H3Y      HAL2     0.900000E-01   1.00800           0
     30083 MEMB     253      POPC     C34      CTL2    -0.180000       12.0110           0
     30084 MEMB     253      POPC     H4X      HAL2     0.900000E-01   1.00800           0
     30085 MEMB     253      POPC     H4Y      HAL2     0.900000E-01   1.00800           0
     30086 MEMB     253      POPC     C35      CTL2    -0.180000       12.0110           0
     30087 MEMB     253      POPC     H5X      HAL2     0.900000E-01   1.00800           0
     30088 MEMB     253      POPC     H5Y      HAL2     0.900000E-01   1.00800           0
     30089 MEMB     253      POPC     C36      CTL2    -0.180000       12.0110           0
     30090 MEMB     253      POPC     H6X      HAL2     0.900000E-01   1.00800           0
     30091 MEMB     253      POPC     H6Y      HAL2     0.900000E-01   1.00800           0
     30092 MEMB     253      POPC     C37      CTL2    -0.180000       12.0110           0
     30093 MEMB     253      POPC     H7X      HAL2     0.900000E-01   1.00800           0
     30094 MEMB     253      POPC     H7Y      HAL2     0.900000E-01   1.00800           0
     30095 MEMB     253      POPC     C38      CTL2    -0.180000       12.0110           0
     30096 MEMB     253      POPC     H8X      HAL2     0.900000E-01   1.00800           0
     30097 MEMB     253      POPC     H8Y      HAL2     0.900000E-01   1.00800           0
     30098 MEMB     253      POPC     C39      CTL2    -0.180000       12.0110           0
     30099 MEMB     253      POPC     H9X      HAL2     0.900000E-01   1.00800           0
     30100 MEMB     253      POPC     H9Y      HAL2     0.900000E-01   1.00800           0
     30101 MEMB     253      POPC     C310     CTL2    -0.180000       12.0110           0
     30102 MEMB     253      POPC     H10X     HAL2     0.900000E-01   1.00800           0
     30103 MEMB     253      POPC     H10Y     HAL2     0.900000E-01   1.00800           0
     30104 MEMB     253      POPC     C311     CTL2    -0.180000       12.0110           0
     30105 MEMB     253      POPC     H11X     HAL2     0.900000E-01   1.00800           0
     30106 MEMB     253      POPC     H11Y     HAL2     0.900000E-01   1.00800           0
     30107 MEMB     253      POPC     C312     CTL2    -0.180000       12.0110           0
     30108 MEMB     253      POPC     H12X     HAL2     0.900000E-01   1.00800           0
     30109 MEMB     253      POPC     H12Y     HAL2     0.900000E-01   1.00800           0
     30110 MEMB     253      POPC     C313     CTL2    -0.180000       12.0110           0
     30111 MEMB     253      POPC     H13X     HAL2     0.900000E-01   1.00800           0
     30112 MEMB     253      POPC     H13Y     HAL2     0.900000E-01   1.00800           0
     30113 MEMB     253      POPC     C314     CTL2    -0.180000       12.0110           0
     30114 MEMB     253      POPC     H14X     HAL2     0.900000E-01   1.00800           0
     30115 MEMB     253      POPC     H14Y     HAL2     0.900000E-01   1.00800           0
     30116 MEMB     253      POPC     C315     CTL2    -0.180000       12.0110           0
     30117 MEMB     253      POPC     H15X     HAL2     0.900000E-01   1.00800           0
     30118 MEMB     253      POPC     H15Y     HAL2     0.900000E-01   1.00800           0
     30119 MEMB     253      POPC     C316     CTL3    -0.270000       12.0110           0
     30120 MEMB     253      POPC     H16X     HAL3     0.900000E-01   1.00800           0
     30121 MEMB     253      POPC     H16Y     HAL3     0.900000E-01   1.00800           0
     30122 MEMB     253      POPC     H16Z     HAL3     0.900000E-01   1.00800           0
     30123 MEMB     254      POPC     N        NTL     -0.600000       14.0070           0
     30124 MEMB     254      POPC     C12      CTL2    -0.100000       12.0110           0
     30125 MEMB     254      POPC     H12A     HL       0.250000       1.00800           0
     30126 MEMB     254      POPC     H12B     HL       0.250000       1.00800           0
     30127 MEMB     254      POPC     C13      CTL5    -0.350000       12.0110           0
     30128 MEMB     254      POPC     H13A     HL       0.250000       1.00800           0
     30129 MEMB     254      POPC     H13B     HL       0.250000       1.00800           0
     30130 MEMB     254      POPC     H13C     HL       0.250000       1.00800           0
     30131 MEMB     254      POPC     C14      CTL5    -0.350000       12.0110           0
     30132 MEMB     254      POPC     H14A     HL       0.250000       1.00800           0
     30133 MEMB     254      POPC     H14B     HL       0.250000       1.00800           0
     30134 MEMB     254      POPC     H14C     HL       0.250000       1.00800           0
     30135 MEMB     254      POPC     C15      CTL5    -0.350000       12.0110           0
     30136 MEMB     254      POPC     H15A     HL       0.250000       1.00800           0
     30137 MEMB     254      POPC     H15B     HL       0.250000       1.00800           0
     30138 MEMB     254      POPC     H15C     HL       0.250000       1.00800           0
     30139 MEMB     254      POPC     C11      CTL2    -0.800000E-01   12.0110           0
     30140 MEMB     254      POPC     H11A     HAL2     0.900000E-01   1.00800           0
     30141 MEMB     254      POPC     H11B     HAL2     0.900000E-01   1.00800           0
     30142 MEMB     254      POPC     P        PL        1.50000       30.9740           0
     30143 MEMB     254      POPC     O13      O2L     -0.780000       15.9994           0
     30144 MEMB     254      POPC     O14      O2L     -0.780000       15.9994           0
     30145 MEMB     254      POPC     O12      OSLP    -0.570000       15.9994           0
     30146 MEMB     254      POPC     O11      OSLP    -0.570000       15.9994           0
     30147 MEMB     254      POPC     C1       CTL2    -0.800000E-01   12.0110           0
     30148 MEMB     254      POPC     HA       HAL2     0.900000E-01   1.00800           0
     30149 MEMB     254      POPC     HB       HAL2     0.900000E-01   1.00800           0
     30150 MEMB     254      POPC     C2       CTL1     0.170000       12.0110           0
     30151 MEMB     254      POPC     HS       HAL1     0.900000E-01   1.00800           0
     30152 MEMB     254      POPC     O21      OSL     -0.490000       15.9994           0
     30153 MEMB     254      POPC     C21      CL       0.900000       12.0110           0
     30154 MEMB     254      POPC     O22      OBL     -0.630000       15.9994           0
     30155 MEMB     254      POPC     C22      CTL2    -0.220000       12.0110           0
     30156 MEMB     254      POPC     H2R      HAL2     0.900000E-01   1.00800           0
     30157 MEMB     254      POPC     H2S      HAL2     0.900000E-01   1.00800           0
     30158 MEMB     254      POPC     C3       CTL2     0.800000E-01   12.0110           0
     30159 MEMB     254      POPC     HX       HAL2     0.900000E-01   1.00800           0
     30160 MEMB     254      POPC     HY       HAL2     0.900000E-01   1.00800           0
     30161 MEMB     254      POPC     O31      OSL     -0.490000       15.9994           0
     30162 MEMB     254      POPC     C31      CL       0.900000       12.0110           0
     30163 MEMB     254      POPC     O32      OBL     -0.630000       15.9994           0
     30164 MEMB     254      POPC     C32      CTL2    -0.220000       12.0110           0
     30165 MEMB     254      POPC     H2X      HAL2     0.900000E-01   1.00800           0
     30166 MEMB     254      POPC     H2Y      HAL2     0.900000E-01   1.00800           0
     30167 MEMB     254      POPC     C23      CTL2    -0.180000       12.0110           0
     30168 MEMB     254      POPC     H3R      HAL2     0.900000E-01   1.00800           0
     30169 MEMB     254      POPC     H3S      HAL2     0.900000E-01   1.00800           0
     30170 MEMB     254      POPC     C24      CTL2    -0.180000       12.0110           0
     30171 MEMB     254      POPC     H4R      HAL2     0.900000E-01   1.00800           0
     30172 MEMB     254      POPC     H4S      HAL2     0.900000E-01   1.00800           0
     30173 MEMB     254      POPC     C25      CTL2    -0.180000       12.0110           0
     30174 MEMB     254      POPC     H5R      HAL2     0.900000E-01   1.00800           0
     30175 MEMB     254      POPC     H5S      HAL2     0.900000E-01   1.00800           0
     30176 MEMB     254      POPC     C26      CTL2    -0.180000       12.0110           0
     30177 MEMB     254      POPC     H6R      HAL2     0.900000E-01   1.00800           0
     30178 MEMB     254      POPC     H6S      HAL2     0.900000E-01   1.00800           0
     30179 MEMB     254      POPC     C27      CTL2    -0.180000       12.0110           0
     30180 MEMB     254      POPC     H7R      HAL2     0.900000E-01   1.00800           0
     30181 MEMB     254      POPC     H7S      HAL2     0.900000E-01   1.00800           0
     30182 MEMB     254      POPC     C28      CTL2    -0.180000       12.0110           0
     30183 MEMB     254      POPC     H8R      HAL2     0.900000E-01   1.00800           0
     30184 MEMB     254      POPC     H8S      HAL2     0.900000E-01   1.00800           0
     30185 MEMB     254      POPC     C29      CEL1    -0.150000       12.0110           0
     30186 MEMB     254      POPC     H91      HEL1     0.150000       1.00800           0
     30187 MEMB     254      POPC     C210     CEL1    -0.150000       12.0110           0
     30188 MEMB     254      POPC     H101     HEL1     0.150000       1.00800           0
     30189 MEMB     254      POPC     C211     CTL2    -0.180000       12.0110           0
     30190 MEMB     254      POPC     H11R     HAL2     0.900000E-01   1.00800           0
     30191 MEMB     254      POPC     H11S     HAL2     0.900000E-01   1.00800           0
     30192 MEMB     254      POPC     C212     CTL2    -0.180000       12.0110           0
     30193 MEMB     254      POPC     H12R     HAL2     0.900000E-01   1.00800           0
     30194 MEMB     254      POPC     H12S     HAL2     0.900000E-01   1.00800           0
     30195 MEMB     254      POPC     C213     CTL2    -0.180000       12.0110           0
     30196 MEMB     254      POPC     H13R     HAL2     0.900000E-01   1.00800           0
     30197 MEMB     254      POPC     H13S     HAL2     0.900000E-01   1.00800           0
     30198 MEMB     254      POPC     C214     CTL2    -0.180000       12.0110           0
     30199 MEMB     254      POPC     H14R     HAL2     0.900000E-01   1.00800           0
     30200 MEMB     254      POPC     H14S     HAL2     0.900000E-01   1.00800           0
     30201 MEMB     254      POPC     C215     CTL2    -0.180000       12.0110           0
     30202 MEMB     254      POPC     H15R     HAL2     0.900000E-01   1.00800           0
     30203 MEMB     254      POPC     H15S     HAL2     0.900000E-01   1.00800           0
     30204 MEMB     254      POPC     C216     CTL2    -0.180000       12.0110           0
     30205 MEMB     254      POPC     H16R     HAL2     0.900000E-01   1.00800           0
     30206 MEMB     254      POPC     H16S     HAL2     0.900000E-01   1.00800           0
     30207 MEMB     254      POPC     C217     CTL2    -0.180000       12.0110           0
     30208 MEMB     254      POPC     H17R     HAL2     0.900000E-01   1.00800           0
     30209 MEMB     254      POPC     H17S     HAL2     0.900000E-01   1.00800           0
     30210 MEMB     254      POPC     C218     CTL3    -0.270000       12.0110           0
     30211 MEMB     254      POPC     H18R     HAL3     0.900000E-01   1.00800           0
     30212 MEMB     254      POPC     H18S     HAL3     0.900000E-01   1.00800           0
     30213 MEMB     254      POPC     H18T     HAL3     0.900000E-01   1.00800           0
     30214 MEMB     254      POPC     C33      CTL2    -0.180000       12.0110           0
     30215 MEMB     254      POPC     H3X      HAL2     0.900000E-01   1.00800           0
     30216 MEMB     254      POPC     H3Y      HAL2     0.900000E-01   1.00800           0
     30217 MEMB     254      POPC     C34      CTL2    -0.180000       12.0110           0
     30218 MEMB     254      POPC     H4X      HAL2     0.900000E-01   1.00800           0
     30219 MEMB     254      POPC     H4Y      HAL2     0.900000E-01   1.00800           0
     30220 MEMB     254      POPC     C35      CTL2    -0.180000       12.0110           0
     30221 MEMB     254      POPC     H5X      HAL2     0.900000E-01   1.00800           0
     30222 MEMB     254      POPC     H5Y      HAL2     0.900000E-01   1.00800           0
     30223 MEMB     254      POPC     C36      CTL2    -0.180000       12.0110           0
     30224 MEMB     254      POPC     H6X      HAL2     0.900000E-01   1.00800           0
     30225 MEMB     254      POPC     H6Y      HAL2     0.900000E-01   1.00800           0
     30226 MEMB     254      POPC     C37      CTL2    -0.180000       12.0110           0
     30227 MEMB     254      POPC     H7X      HAL2     0.900000E-01   1.00800           0
     30228 MEMB     254      POPC     H7Y      HAL2     0.900000E-01   1.00800           0
     30229 MEMB     254      POPC     C38      CTL2    -0.180000       12.0110           0
     30230 MEMB     254      POPC     H8X      HAL2     0.900000E-01   1.00800           0
     30231 MEMB     254      POPC     H8Y      HAL2     0.900000E-01   1.00800           0
     30232 MEMB     254      POPC     C39      CTL2    -0.180000       12.0110           0
     30233 MEMB     254      POPC     H9X      HAL2     0.900000E-01   1.00800           0
     30234 MEMB     254      POPC     H9Y      HAL2     0.900000E-01   1.00800           0
     30235 MEMB     254      POPC     C310     CTL2    -0.180000       12.0110           0
     30236 MEMB     254      POPC     H10X     HAL2     0.900000E-01   1.00800           0
     30237 MEMB     254      POPC     H10Y     HAL2     0.900000E-01   1.00800           0
     30238 MEMB     254      POPC     C311     CTL2    -0.180000       12.0110           0
     30239 MEMB     254      POPC     H11X     HAL2     0.900000E-01   1.00800           0
     30240 MEMB     254      POPC     H11Y     HAL2     0.900000E-01   1.00800           0
     30241 MEMB     254      POPC     C312     CTL2    -0.180000       12.0110           0
     30242 MEMB     254      POPC     H12X     HAL2     0.900000E-01   1.00800           0
     30243 MEMB     254      POPC     H12Y     HAL2     0.900000E-01   1.00800           0
     30244 MEMB     254      POPC     C313     CTL2    -0.180000       12.0110           0
     30245 MEMB     254      POPC     H13X     HAL2     0.900000E-01   1.00800           0
     30246 MEMB     254      POPC     H13Y     HAL2     0.900000E-01   1.00800           0
     30247 MEMB     254      POPC     C314     CTL2    -0.180000       12.0110           0
     30248 MEMB     254      POPC     H14X     HAL2     0.900000E-01   1.00800           0
     30249 MEMB     254      POPC     H14Y     HAL2     0.900000E-01   1.00800           0
     30250 MEMB     254      POPC     C315     CTL2    -0.180000       12.0110           0
     30251 MEMB     254      POPC     H15X     HAL2     0.900000E-01   1.00800           0
     30252 MEMB     254      POPC     H15Y     HAL2     0.900000E-01   1.00800           0
     30253 MEMB     254      POPC     C316     CTL3    -0.270000       12.0110           0
     30254 MEMB     254      POPC     H16X     HAL3     0.900000E-01   1.00800           0
     30255 MEMB     254      POPC     H16Y     HAL3     0.900000E-01   1.00800           0
     30256 MEMB     254      POPC     H16Z     HAL3     0.900000E-01   1.00800           0
     30257 MEMB     255      POPC     N        NTL     -0.600000       14.0070           0
     30258 MEMB     255      POPC     C12      CTL2    -0.100000       12.0110           0
     30259 MEMB     255      POPC     H12A     HL       0.250000       1.00800           0
     30260 MEMB     255      POPC     H12B     HL       0.250000       1.00800           0
     30261 MEMB     255      POPC     C13      CTL5    -0.350000       12.0110           0
     30262 MEMB     255      POPC     H13A     HL       0.250000       1.00800           0
     30263 MEMB     255      POPC     H13B     HL       0.250000       1.00800           0
     30264 MEMB     255      POPC     H13C     HL       0.250000       1.00800           0
     30265 MEMB     255      POPC     C14      CTL5    -0.350000       12.0110           0
     30266 MEMB     255      POPC     H14A     HL       0.250000       1.00800           0
     30267 MEMB     255      POPC     H14B     HL       0.250000       1.00800           0
     30268 MEMB     255      POPC     H14C     HL       0.250000       1.00800           0
     30269 MEMB     255      POPC     C15      CTL5    -0.350000       12.0110           0
     30270 MEMB     255      POPC     H15A     HL       0.250000       1.00800           0
     30271 MEMB     255      POPC     H15B     HL       0.250000       1.00800           0
     30272 MEMB     255      POPC     H15C     HL       0.250000       1.00800           0
     30273 MEMB     255      POPC     C11      CTL2    -0.800000E-01   12.0110           0
     30274 MEMB     255      POPC     H11A     HAL2     0.900000E-01   1.00800           0
     30275 MEMB     255      POPC     H11B     HAL2     0.900000E-01   1.00800           0
     30276 MEMB     255      POPC     P        PL        1.50000       30.9740           0
     30277 MEMB     255      POPC     O13      O2L     -0.780000       15.9994           0
     30278 MEMB     255      POPC     O14      O2L     -0.780000       15.9994           0
     30279 MEMB     255      POPC     O12      OSLP    -0.570000       15.9994           0
     30280 MEMB     255      POPC     O11      OSLP    -0.570000       15.9994           0
     30281 MEMB     255      POPC     C1       CTL2    -0.800000E-01   12.0110           0
     30282 MEMB     255      POPC     HA       HAL2     0.900000E-01   1.00800           0
     30283 MEMB     255      POPC     HB       HAL2     0.900000E-01   1.00800           0
     30284 MEMB     255      POPC     C2       CTL1     0.170000       12.0110           0
     30285 MEMB     255      POPC     HS       HAL1     0.900000E-01   1.00800           0
     30286 MEMB     255      POPC     O21      OSL     -0.490000       15.9994           0
     30287 MEMB     255      POPC     C21      CL       0.900000       12.0110           0
     30288 MEMB     255      POPC     O22      OBL     -0.630000       15.9994           0
     30289 MEMB     255      POPC     C22      CTL2    -0.220000       12.0110           0
     30290 MEMB     255      POPC     H2R      HAL2     0.900000E-01   1.00800           0
     30291 MEMB     255      POPC     H2S      HAL2     0.900000E-01   1.00800           0
     30292 MEMB     255      POPC     C3       CTL2     0.800000E-01   12.0110           0
     30293 MEMB     255      POPC     HX       HAL2     0.900000E-01   1.00800           0
     30294 MEMB     255      POPC     HY       HAL2     0.900000E-01   1.00800           0
     30295 MEMB     255      POPC     O31      OSL     -0.490000       15.9994           0
     30296 MEMB     255      POPC     C31      CL       0.900000       12.0110           0
     30297 MEMB     255      POPC     O32      OBL     -0.630000       15.9994           0
     30298 MEMB     255      POPC     C32      CTL2    -0.220000       12.0110           0
     30299 MEMB     255      POPC     H2X      HAL2     0.900000E-01   1.00800           0
     30300 MEMB     255      POPC     H2Y      HAL2     0.900000E-01   1.00800           0
     30301 MEMB     255      POPC     C23      CTL2    -0.180000       12.0110           0
     30302 MEMB     255      POPC     H3R      HAL2     0.900000E-01   1.00800           0
     30303 MEMB     255      POPC     H3S      HAL2     0.900000E-01   1.00800           0
     30304 MEMB     255      POPC     C24      CTL2    -0.180000       12.0110           0
     30305 MEMB     255      POPC     H4R      HAL2     0.900000E-01   1.00800           0
     30306 MEMB     255      POPC     H4S      HAL2     0.900000E-01   1.00800           0
     30307 MEMB     255      POPC     C25      CTL2    -0.180000       12.0110           0
     30308 MEMB     255      POPC     H5R      HAL2     0.900000E-01   1.00800           0
     30309 MEMB     255      POPC     H5S      HAL2     0.900000E-01   1.00800           0
     30310 MEMB     255      POPC     C26      CTL2    -0.180000       12.0110           0
     30311 MEMB     255      POPC     H6R      HAL2     0.900000E-01   1.00800           0
     30312 MEMB     255      POPC     H6S      HAL2     0.900000E-01   1.00800           0
     30313 MEMB     255      POPC     C27      CTL2    -0.180000       12.0110           0
     30314 MEMB     255      POPC     H7R      HAL2     0.900000E-01   1.00800           0
     30315 MEMB     255      POPC     H7S      HAL2     0.900000E-01   1.00800           0
     30316 MEMB     255      POPC     C28      CTL2    -0.180000       12.0110           0
     30317 MEMB     255      POPC     H8R      HAL2     0.900000E-01   1.00800           0
     30318 MEMB     255      POPC     H8S      HAL2     0.900000E-01   1.00800           0
     30319 MEMB     255      POPC     C29      CEL1    -0.150000       12.0110           0
     30320 MEMB     255      POPC     H91      HEL1     0.150000       1.00800           0
     30321 MEMB     255      POPC     C210     CEL1    -0.150000       12.0110           0
     30322 MEMB     255      POPC     H101     HEL1     0.150000       1.00800           0
     30323 MEMB     255      POPC     C211     CTL2    -0.180000       12.0110           0
     30324 MEMB     255      POPC     H11R     HAL2     0.900000E-01   1.00800           0
     30325 MEMB     255      POPC     H11S     HAL2     0.900000E-01   1.00800           0
     30326 MEMB     255      POPC     C212     CTL2    -0.180000       12.0110           0
     30327 MEMB     255      POPC     H12R     HAL2     0.900000E-01   1.00800           0
     30328 MEMB     255      POPC     H12S     HAL2     0.900000E-01   1.00800           0
     30329 MEMB     255      POPC     C213     CTL2    -0.180000       12.0110           0
     30330 MEMB     255      POPC     H13R     HAL2     0.900000E-01   1.00800           0
     30331 MEMB     255      POPC     H13S     HAL2     0.900000E-01   1.00800           0
     30332 MEMB     255      POPC     C214     CTL2    -0.180000       12.0110           0
     30333 MEMB     255      POPC     H14R     HAL2     0.900000E-01   1.00800           0
     30334 MEMB     255      POPC     H14S     HAL2     0.900000E-01   1.00800           0
     30335 MEMB     255      POPC     C215     CTL2    -0.180000       12.0110           0
     30336 MEMB     255      POPC     H15R     HAL2     0.900000E-01   1.00800           0
     30337 MEMB     255      POPC     H15S     HAL2     0.900000E-01   1.00800           0
     30338 MEMB     255      POPC     C216     CTL2    -0.180000       12.0110           0
     30339 MEMB     255      POPC     H16R     HAL2     0.900000E-01   1.00800           0
     30340 MEMB     255      POPC     H16S     HAL2     0.900000E-01   1.00800           0
     30341 MEMB     255      POPC     C217     CTL2    -0.180000       12.0110           0
     30342 MEMB     255      POPC     H17R     HAL2     0.900000E-01   1.00800           0
     30343 MEMB     255      POPC     H17S     HAL2     0.900000E-01   1.00800           0
     30344 MEMB     255      POPC     C218     CTL3    -0.270000       12.0110           0
     30345 MEMB     255      POPC     H18R     HAL3     0.900000E-01   1.00800           0
     30346 MEMB     255      POPC     H18S     HAL3     0.900000E-01   1.00800           0
     30347 MEMB     255      POPC     H18T     HAL3     0.900000E-01   1.00800           0
     30348 MEMB     255      POPC     C33      CTL2    -0.180000       12.0110           0
     30349 MEMB     255      POPC     H3X      HAL2     0.900000E-01   1.00800           0
     30350 MEMB     255      POPC     H3Y      HAL2     0.900000E-01   1.00800           0
     30351 MEMB     255      POPC     C34      CTL2    -0.180000       12.0110           0
     30352 MEMB     255      POPC     H4X      HAL2     0.900000E-01   1.00800           0
     30353 MEMB     255      POPC     H4Y      HAL2     0.900000E-01   1.00800           0
     30354 MEMB     255      POPC     C35      CTL2    -0.180000       12.0110           0
     30355 MEMB     255      POPC     H5X      HAL2     0.900000E-01   1.00800           0
     30356 MEMB     255      POPC     H5Y      HAL2     0.900000E-01   1.00800           0
     30357 MEMB     255      POPC     C36      CTL2    -0.180000       12.0110           0
     30358 MEMB     255      POPC     H6X      HAL2     0.900000E-01   1.00800           0
     30359 MEMB     255      POPC     H6Y      HAL2     0.900000E-01   1.00800           0
     30360 MEMB     255      POPC     C37      CTL2    -0.180000       12.0110           0
     30361 MEMB     255      POPC     H7X      HAL2     0.900000E-01   1.00800           0
     30362 MEMB     255      POPC     H7Y      HAL2     0.900000E-01   1.00800           0
     30363 MEMB     255      POPC     C38      CTL2    -0.180000       12.0110           0
     30364 MEMB     255      POPC     H8X      HAL2     0.900000E-01   1.00800           0
     30365 MEMB     255      POPC     H8Y      HAL2     0.900000E-01   1.00800           0
     30366 MEMB     255      POPC     C39      CTL2    -0.180000       12.0110           0
     30367 MEMB     255      POPC     H9X      HAL2     0.900000E-01   1.00800           0
     30368 MEMB     255      POPC     H9Y      HAL2     0.900000E-01   1.00800           0
     30369 MEMB     255      POPC     C310     CTL2    -0.180000       12.0110           0
     30370 MEMB     255      POPC     H10X     HAL2     0.900000E-01   1.00800           0
     30371 MEMB     255      POPC     H10Y     HAL2     0.900000E-01   1.00800           0
     30372 MEMB     255      POPC     C311     CTL2    -0.180000       12.0110           0
     30373 MEMB     255      POPC     H11X     HAL2     0.900000E-01   1.00800           0
     30374 MEMB     255      POPC     H11Y     HAL2     0.900000E-01   1.00800           0
     30375 MEMB     255      POPC     C312     CTL2    -0.180000       12.0110           0
     30376 MEMB     255      POPC     H12X     HAL2     0.900000E-01   1.00800           0
     30377 MEMB     255      POPC     H12Y     HAL2     0.900000E-01   1.00800           0
     30378 MEMB     255      POPC     C313     CTL2    -0.180000       12.0110           0
     30379 MEMB     255      POPC     H13X     HAL2     0.900000E-01   1.00800           0
     30380 MEMB     255      POPC     H13Y     HAL2     0.900000E-01   1.00800           0
     30381 MEMB     255      POPC     C314     CTL2    -0.180000       12.0110           0
     30382 MEMB     255      POPC     H14X     HAL2     0.900000E-01   1.00800           0
     30383 MEMB     255      POPC     H14Y     HAL2     0.900000E-01   1.00800           0
     30384 MEMB     255      POPC     C315     CTL2    -0.180000       12.0110           0
     30385 MEMB     255      POPC     H15X     HAL2     0.900000E-01   1.00800           0
     30386 MEMB     255      POPC     H15Y     HAL2     0.900000E-01   1.00800           0
     30387 MEMB     255      POPC     C316     CTL3    -0.270000       12.0110           0
     30388 MEMB     255      POPC     H16X     HAL3     0.900000E-01   1.00800           0
     30389 MEMB     255      POPC     H16Y     HAL3     0.900000E-01   1.00800           0
     30390 MEMB     255      POPC     H16Z     HAL3     0.900000E-01   1.00800           0
     30391 MEMB     256      POPC     N        NTL     -0.600000       14.0070           0
     30392 MEMB     256      POPC     C12      CTL2    -0.100000       12.0110           0
     30393 MEMB     256      POPC     H12A     HL       0.250000       1.00800           0
     30394 MEMB     256      POPC     H12B     HL       0.250000       1.00800           0
     30395 MEMB     256      POPC     C13      CTL5    -0.350000       12.0110           0
     30396 MEMB     256      POPC     H13A     HL       0.250000       1.00800           0
     30397 MEMB     256      POPC     H13B     HL       0.250000       1.00800           0
     30398 MEMB     256      POPC     H13C     HL       0.250000       1.00800           0
     30399 MEMB     256      POPC     C14      CTL5    -0.350000       12.0110           0
     30400 MEMB     256      POPC     H14A     HL       0.250000       1.00800           0
     30401 MEMB     256      POPC     H14B     HL       0.250000       1.00800           0
     30402 MEMB     256      POPC     H14C     HL       0.250000       1.00800           0
     30403 MEMB     256      POPC     C15      CTL5    -0.350000       12.0110           0
     30404 MEMB     256      POPC     H15A     HL       0.250000       1.00800           0
     30405 MEMB     256      POPC     H15B     HL       0.250000       1.00800           0
     30406 MEMB     256      POPC     H15C     HL       0.250000       1.00800           0
     30407 MEMB     256      POPC     C11      CTL2    -0.800000E-01   12.0110           0
     30408 MEMB     256      POPC     H11A     HAL2     0.900000E-01   1.00800           0
     30409 MEMB     256      POPC     H11B     HAL2     0.900000E-01   1.00800           0
     30410 MEMB     256      POPC     P        PL        1.50000       30.9740           0
     30411 MEMB     256      POPC     O13      O2L     -0.780000       15.9994           0
     30412 MEMB     256      POPC     O14      O2L     -0.780000       15.9994           0
     30413 MEMB     256      POPC     O12      OSLP    -0.570000       15.9994           0
     30414 MEMB     256      POPC     O11      OSLP    -0.570000       15.9994           0
     30415 MEMB     256      POPC     C1       CTL2    -0.800000E-01   12.0110           0
     30416 MEMB     256      POPC     HA       HAL2     0.900000E-01   1.00800           0
     30417 MEMB     256      POPC     HB       HAL2     0.900000E-01   1.00800           0
     30418 MEMB     256      POPC     C2       CTL1     0.170000       12.0110           0
     30419 MEMB     256      POPC     HS       HAL1     0.900000E-01   1.00800           0
     30420 MEMB     256      POPC     O21      OSL     -0.490000       15.9994           0
     30421 MEMB     256      POPC     C21      CL       0.900000       12.0110           0
     30422 MEMB     256      POPC     O22      OBL     -0.630000       15.9994           0
     30423 MEMB     256      POPC     C22      CTL2    -0.220000       12.0110           0
     30424 MEMB     256      POPC     H2R      HAL2     0.900000E-01   1.00800           0
     30425 MEMB     256      POPC     H2S      HAL2     0.900000E-01   1.00800           0
     30426 MEMB     256      POPC     C3       CTL2     0.800000E-01   12.0110           0
     30427 MEMB     256      POPC     HX       HAL2     0.900000E-01   1.00800           0
     30428 MEMB     256      POPC     HY       HAL2     0.900000E-01   1.00800           0
     30429 MEMB     256      POPC     O31      OSL     -0.490000       15.9994           0
     30430 MEMB     256      POPC     C31      CL       0.900000       12.0110           0
     30431 MEMB     256      POPC     O32      OBL     -0.630000       15.9994           0
     30432 MEMB     256      POPC     C32      CTL2    -0.220000       12.0110           0
     30433 MEMB     256      POPC     H2X      HAL2     0.900000E-01   1.00800           0
     30434 MEMB     256      POPC     H2Y      HAL2     0.900000E-01   1.00800           0
     30435 MEMB     256      POPC     C23      CTL2    -0.180000       12.0110           0
     30436 MEMB     256      POPC     H3R      HAL2     0.900000E-01   1.00800           0
     30437 MEMB     256      POPC     H3S      HAL2     0.900000E-01   1.00800           0
     30438 MEMB     256      POPC     C24      CTL2    -0.180000       12.0110           0
     30439 MEMB     256      POPC     H4R      HAL2     0.900000E-01   1.00800           0
     30440 MEMB     256      POPC     H4S      HAL2     0.900000E-01   1.00800           0
     30441 MEMB     256      POPC     C25      CTL2    -0.180000       12.0110           0
     30442 MEMB     256      POPC     H5R      HAL2     0.900000E-01   1.00800           0
     30443 MEMB     256      POPC     H5S      HAL2     0.900000E-01   1.00800           0
     30444 MEMB     256      POPC     C26      CTL2    -0.180000       12.0110           0
     30445 MEMB     256      POPC     H6R      HAL2     0.900000E-01   1.00800           0
     30446 MEMB     256      POPC     H6S      HAL2     0.900000E-01   1.00800           0
     30447 MEMB     256      POPC     C27      CTL2    -0.180000       12.0110           0
     30448 MEMB     256      POPC     H7R      HAL2     0.900000E-01   1.00800           0
     30449 MEMB     256      POPC     H7S      HAL2     0.900000E-01   1.00800           0
     30450 MEMB     256      POPC     C28      CTL2    -0.180000       12.0110           0
     30451 MEMB     256      POPC     H8R      HAL2     0.900000E-01   1.00800           0
     30452 MEMB     256      POPC     H8S      HAL2     0.900000E-01   1.00800           0
     30453 MEMB     256      POPC     C29      CEL1    -0.150000       12.0110           0
     30454 MEMB     256      POPC     H91      HEL1     0.150000       1.00800           0
     30455 MEMB     256      POPC     C210     CEL1    -0.150000       12.0110           0
     30456 MEMB     256      POPC     H101     HEL1     0.150000       1.00800           0
     30457 MEMB     256      POPC     C211     CTL2    -0.180000       12.0110           0
     30458 MEMB     256      POPC     H11R     HAL2     0.900000E-01   1.00800           0
     30459 MEMB     256      POPC     H11S     HAL2     0.900000E-01   1.00800           0
     30460 MEMB     256      POPC     C212     CTL2    -0.180000       12.0110           0
     30461 MEMB     256      POPC     H12R     HAL2     0.900000E-01   1.00800           0
     30462 MEMB     256      POPC     H12S     HAL2     0.900000E-01   1.00800           0
     30463 MEMB     256      POPC     C213     CTL2    -0.180000       12.0110           0
     30464 MEMB     256      POPC     H13R     HAL2     0.900000E-01   1.00800           0
     30465 MEMB     256      POPC     H13S     HAL2     0.900000E-01   1.00800           0
     30466 MEMB     256      POPC     C214     CTL2    -0.180000       12.0110           0
     30467 MEMB     256      POPC     H14R     HAL2     0.900000E-01   1.00800           0
     30468 MEMB     256      POPC     H14S     HAL2     0.900000E-01   1.00800           0
     30469 MEMB     256      POPC     C215     CTL2    -0.180000       12.0110           0
     30470 MEMB     256      POPC     H15R     HAL2     0.900000E-01   1.00800           0
     30471 MEMB     256      POPC     H15S     HAL2     0.900000E-01   1.00800           0
     30472 MEMB     256      POPC     C216     CTL2    -0.180000       12.0110           0
     30473 MEMB     256      POPC     H16R     HAL2     0.900000E-01   1.00800           0
     30474 MEMB     256      POPC     H16S     HAL2     0.900000E-01   1.00800           0
     30475 MEMB     256      POPC     C217     CTL2    -0.180000       12.0110           0
     30476 MEMB     256      POPC     H17R     HAL2     0.900000E-01   1.00800           0
     30477 MEMB     256      POPC     H17S     HAL2     0.900000E-01   1.00800           0
     30478 MEMB     256      POPC     C218     CTL3    -0.270000       12.0110           0
     30479 MEMB     256      POPC     H18R     HAL3     0.900000E-01   1.00800           0
     30480 MEMB     256      POPC     H18S     HAL3     0.900000E-01   1.00800           0
     30481 MEMB     256      POPC     H18T     HAL3     0.900000E-01   1.00800           0
     30482 MEMB     256      POPC     C33      CTL2    -0.180000       12.0110           0
     30483 MEMB     256      POPC     H3X      HAL2     0.900000E-01   1.00800           0
     30484 MEMB     256      POPC     H3Y      HAL2     0.900000E-01   1.00800           0
     30485 MEMB     256      POPC     C34      CTL2    -0.180000       12.0110           0
     30486 MEMB     256      POPC     H4X      HAL2     0.900000E-01   1.00800           0
     30487 MEMB     256      POPC     H4Y      HAL2     0.900000E-01   1.00800           0
     30488 MEMB     256      POPC     C35      CTL2    -0.180000       12.0110           0
     30489 MEMB     256      POPC     H5X      HAL2     0.900000E-01   1.00800           0
     30490 MEMB     256      POPC     H5Y      HAL2     0.900000E-01   1.00800           0
     30491 MEMB     256      POPC     C36      CTL2    -0.180000       12.0110           0
     30492 MEMB     256      POPC     H6X      HAL2     0.900000E-01   1.00800           0
     30493 MEMB     256      POPC     H6Y      HAL2     0.900000E-01   1.00800           0
     30494 MEMB     256      POPC     C37      CTL2    -0.180000       12.0110           0
     30495 MEMB     256      POPC     H7X      HAL2     0.900000E-01   1.00800           0
     30496 MEMB     256      POPC     H7Y      HAL2     0.900000E-01   1.00800           0
     30497 MEMB     256      POPC     C38      CTL2    -0.180000       12.0110           0
     30498 MEMB     256      POPC     H8X      HAL2     0.900000E-01   1.00800           0
     30499 MEMB     256      POPC     H8Y      HAL2     0.900000E-01   1.00800           0
     30500 MEMB     256      POPC     C39      CTL2    -0.180000       12.0110           0
     30501 MEMB     256      POPC     H9X      HAL2     0.900000E-01   1.00800           0
     30502 MEMB     256      POPC     H9Y      HAL2     0.900000E-01   1.00800           0
     30503 MEMB     256      POPC     C310     CTL2    -0.180000       12.0110           0
     30504 MEMB     256      POPC     H10X     HAL2     0.900000E-01   1.00800           0
     30505 MEMB     256      POPC     H10Y     HAL2     0.900000E-01   1.00800           0
     30506 MEMB     256      POPC     C311     CTL2    -0.180000       12.0110           0
     30507 MEMB     256      POPC     H11X     HAL2     0.900000E-01   1.00800           0
     30508 MEMB     256      POPC     H11Y     HAL2     0.900000E-01   1.00800           0
     30509 MEMB     256      POPC     C312     CTL2    -0.180000       12.0110           0
     30510 MEMB     256      POPC     H12X     HAL2     0.900000E-01   1.00800           0
     30511 MEMB     256      POPC     H12Y     HAL2     0.900000E-01   1.00800           0
     30512 MEMB     256      POPC     C313     CTL2    -0.180000       12.0110           0
     30513 MEMB     256      POPC     H13X     HAL2     0.900000E-01   1.00800           0
     30514 MEMB     256      POPC     H13Y     HAL2     0.900000E-01   1.00800           0
     30515 MEMB     256      POPC     C314     CTL2    -0.180000       12.0110           0
     30516 MEMB     256      POPC     H14X     HAL2     0.900000E-01   1.00800           0
     30517 MEMB     256      POPC     H14Y     HAL2     0.900000E-01   1.00800           0
     30518 MEMB     256      POPC     C315     CTL2    -0.180000       12.0110           0
     30519 MEMB     256      POPC     H15X     HAL2     0.900000E-01   1.00800           0
     30520 MEMB     256      POPC     H15Y     HAL2     0.900000E-01   1.00800           0
     30521 MEMB     256      POPC     C316     CTL3    -0.270000       12.0110           0
     30522 MEMB     256      POPC     H16X     HAL3     0.900000E-01   1.00800           0
     30523 MEMB     256      POPC     H16Y     HAL3     0.900000E-01   1.00800           0
     30524 MEMB     256      POPC     H16Z     HAL3     0.900000E-01   1.00800           0
     30525 MEMB     257      POPC     N        NTL     -0.600000       14.0070           0
     30526 MEMB     257      POPC     C12      CTL2    -0.100000       12.0110           0
     30527 MEMB     257      POPC     H12A     HL       0.250000       1.00800           0
     30528 MEMB     257      POPC     H12B     HL       0.250000       1.00800           0
     30529 MEMB     257      POPC     C13      CTL5    -0.350000       12.0110           0
     30530 MEMB     257      POPC     H13A     HL       0.250000       1.00800           0
     30531 MEMB     257      POPC     H13B     HL       0.250000       1.00800           0
     30532 MEMB     257      POPC     H13C     HL       0.250000       1.00800           0
     30533 MEMB     257      POPC     C14      CTL5    -0.350000       12.0110           0
     30534 MEMB     257      POPC     H14A     HL       0.250000       1.00800           0
     30535 MEMB     257      POPC     H14B     HL       0.250000       1.00800           0
     30536 MEMB     257      POPC     H14C     HL       0.250000       1.00800           0
     30537 MEMB     257      POPC     C15      CTL5    -0.350000       12.0110           0
     30538 MEMB     257      POPC     H15A     HL       0.250000       1.00800           0
     30539 MEMB     257      POPC     H15B     HL       0.250000       1.00800           0
     30540 MEMB     257      POPC     H15C     HL       0.250000       1.00800           0
     30541 MEMB     257      POPC     C11      CTL2    -0.800000E-01   12.0110           0
     30542 MEMB     257      POPC     H11A     HAL2     0.900000E-01   1.00800           0
     30543 MEMB     257      POPC     H11B     HAL2     0.900000E-01   1.00800           0
     30544 MEMB     257      POPC     P        PL        1.50000       30.9740           0
     30545 MEMB     257      POPC     O13      O2L     -0.780000       15.9994           0
     30546 MEMB     257      POPC     O14      O2L     -0.780000       15.9994           0
     30547 MEMB     257      POPC     O12      OSLP    -0.570000       15.9994           0
     30548 MEMB     257      POPC     O11      OSLP    -0.570000       15.9994           0
     30549 MEMB     257      POPC     C1       CTL2    -0.800000E-01   12.0110           0
     30550 MEMB     257      POPC     HA       HAL2     0.900000E-01   1.00800           0
     30551 MEMB     257      POPC     HB       HAL2     0.900000E-01   1.00800           0
     30552 MEMB     257      POPC     C2       CTL1     0.170000       12.0110           0
     30553 MEMB     257      POPC     HS       HAL1     0.900000E-01   1.00800           0
     30554 MEMB     257      POPC     O21      OSL     -0.490000       15.9994           0
     30555 MEMB     257      POPC     C21      CL       0.900000       12.0110           0
     30556 MEMB     257      POPC     O22      OBL     -0.630000       15.9994           0
     30557 MEMB     257      POPC     C22      CTL2    -0.220000       12.0110           0
     30558 MEMB     257      POPC     H2R      HAL2     0.900000E-01   1.00800           0
     30559 MEMB     257      POPC     H2S      HAL2     0.900000E-01   1.00800           0
     30560 MEMB     257      POPC     C3       CTL2     0.800000E-01   12.0110           0
     30561 MEMB     257      POPC     HX       HAL2     0.900000E-01   1.00800           0
     30562 MEMB     257      POPC     HY       HAL2     0.900000E-01   1.00800           0
     30563 MEMB     257      POPC     O31      OSL     -0.490000       15.9994           0
     30564 MEMB     257      POPC     C31      CL       0.900000       12.0110           0
     30565 MEMB     257      POPC     O32      OBL     -0.630000       15.9994           0
     30566 MEMB     257      POPC     C32      CTL2    -0.220000       12.0110           0
     30567 MEMB     257      POPC     H2X      HAL2     0.900000E-01   1.00800           0
     30568 MEMB     257      POPC     H2Y      HAL2     0.900000E-01   1.00800           0
     30569 MEMB     257      POPC     C23      CTL2    -0.180000       12.0110           0
     30570 MEMB     257      POPC     H3R      HAL2     0.900000E-01   1.00800           0
     30571 MEMB     257      POPC     H3S      HAL2     0.900000E-01   1.00800           0
     30572 MEMB     257      POPC     C24      CTL2    -0.180000       12.0110           0
     30573 MEMB     257      POPC     H4R      HAL2     0.900000E-01   1.00800           0
     30574 MEMB     257      POPC     H4S      HAL2     0.900000E-01   1.00800           0
     30575 MEMB     257      POPC     C25      CTL2    -0.180000       12.0110           0
     30576 MEMB     257      POPC     H5R      HAL2     0.900000E-01   1.00800           0
     30577 MEMB     257      POPC     H5S      HAL2     0.900000E-01   1.00800           0
     30578 MEMB     257      POPC     C26      CTL2    -0.180000       12.0110           0
     30579 MEMB     257      POPC     H6R      HAL2     0.900000E-01   1.00800           0
     30580 MEMB     257      POPC     H6S      HAL2     0.900000E-01   1.00800           0
     30581 MEMB     257      POPC     C27      CTL2    -0.180000       12.0110           0
     30582 MEMB     257      POPC     H7R      HAL2     0.900000E-01   1.00800           0
     30583 MEMB     257      POPC     H7S      HAL2     0.900000E-01   1.00800           0
     30584 MEMB     257      POPC     C28      CTL2    -0.180000       12.0110           0
     30585 MEMB     257      POPC     H8R      HAL2     0.900000E-01   1.00800           0
     30586 MEMB     257      POPC     H8S      HAL2     0.900000E-01   1.00800           0
     30587 MEMB     257      POPC     C29      CEL1    -0.150000       12.0110           0
     30588 MEMB     257      POPC     H91      HEL1     0.150000       1.00800           0
     30589 MEMB     257      POPC     C210     CEL1    -0.150000       12.0110           0
     30590 MEMB     257      POPC     H101     HEL1     0.150000       1.00800           0
     30591 MEMB     257      POPC     C211     CTL2    -0.180000       12.0110           0
     30592 MEMB     257      POPC     H11R     HAL2     0.900000E-01   1.00800           0
     30593 MEMB     257      POPC     H11S     HAL2     0.900000E-01   1.00800           0
     30594 MEMB     257      POPC     C212     CTL2    -0.180000       12.0110           0
     30595 MEMB     257      POPC     H12R     HAL2     0.900000E-01   1.00800           0
     30596 MEMB     257      POPC     H12S     HAL2     0.900000E-01   1.00800           0
     30597 MEMB     257      POPC     C213     CTL2    -0.180000       12.0110           0
     30598 MEMB     257      POPC     H13R     HAL2     0.900000E-01   1.00800           0
     30599 MEMB     257      POPC     H13S     HAL2     0.900000E-01   1.00800           0
     30600 MEMB     257      POPC     C214     CTL2    -0.180000       12.0110           0
     30601 MEMB     257      POPC     H14R     HAL2     0.900000E-01   1.00800           0
     30602 MEMB     257      POPC     H14S     HAL2     0.900000E-01   1.00800           0
     30603 MEMB     257      POPC     C215     CTL2    -0.180000       12.0110           0
     30604 MEMB     257      POPC     H15R     HAL2     0.900000E-01   1.00800           0
     30605 MEMB     257      POPC     H15S     HAL2     0.900000E-01   1.00800           0
     30606 MEMB     257      POPC     C216     CTL2    -0.180000       12.0110           0
     30607 MEMB     257      POPC     H16R     HAL2     0.900000E-01   1.00800           0
     30608 MEMB     257      POPC     H16S     HAL2     0.900000E-01   1.00800           0
     30609 MEMB     257      POPC     C217     CTL2    -0.180000       12.0110           0
     30610 MEMB     257      POPC     H17R     HAL2     0.900000E-01   1.00800           0
     30611 MEMB     257      POPC     H17S     HAL2     0.900000E-01   1.00800           0
     30612 MEMB     257      POPC     C218     CTL3    -0.270000       12.0110           0
     30613 MEMB     257      POPC     H18R     HAL3     0.900000E-01   1.00800           0
     30614 MEMB     257      POPC     H18S     HAL3     0.900000E-01   1.00800           0
     30615 MEMB     257      POPC     H18T     HAL3     0.900000E-01   1.00800           0
     30616 MEMB     257      POPC     C33      CTL2    -0.180000       12.0110           0
     30617 MEMB     257      POPC     H3X      HAL2     0.900000E-01   1.00800           0
     30618 MEMB     257      POPC     H3Y      HAL2     0.900000E-01   1.00800           0
     30619 MEMB     257      POPC     C34      CTL2    -0.180000       12.0110           0
     30620 MEMB     257      POPC     H4X      HAL2     0.900000E-01   1.00800           0
     30621 MEMB     257      POPC     H4Y      HAL2     0.900000E-01   1.00800           0
     30622 MEMB     257      POPC     C35      CTL2    -0.180000       12.0110           0
     30623 MEMB     257      POPC     H5X      HAL2     0.900000E-01   1.00800           0
     30624 MEMB     257      POPC     H5Y      HAL2     0.900000E-01   1.00800           0
     30625 MEMB     257      POPC     C36      CTL2    -0.180000       12.0110           0
     30626 MEMB     257      POPC     H6X      HAL2     0.900000E-01   1.00800           0
     30627 MEMB     257      POPC     H6Y      HAL2     0.900000E-01   1.00800           0
     30628 MEMB     257      POPC     C37      CTL2    -0.180000       12.0110           0
     30629 MEMB     257      POPC     H7X      HAL2     0.900000E-01   1.00800           0
     30630 MEMB     257      POPC     H7Y      HAL2     0.900000E-01   1.00800           0
     30631 MEMB     257      POPC     C38      CTL2    -0.180000       12.0110           0
     30632 MEMB     257      POPC     H8X      HAL2     0.900000E-01   1.00800           0
     30633 MEMB     257      POPC     H8Y      HAL2     0.900000E-01   1.00800           0
     30634 MEMB     257      POPC     C39      CTL2    -0.180000       12.0110           0
     30635 MEMB     257      POPC     H9X      HAL2     0.900000E-01   1.00800           0
     30636 MEMB     257      POPC     H9Y      HAL2     0.900000E-01   1.00800           0
     30637 MEMB     257      POPC     C310     CTL2    -0.180000       12.0110           0
     30638 MEMB     257      POPC     H10X     HAL2     0.900000E-01   1.00800           0
     30639 MEMB     257      POPC     H10Y     HAL2     0.900000E-01   1.00800           0
     30640 MEMB     257      POPC     C311     CTL2    -0.180000       12.0110           0
     30641 MEMB     257      POPC     H11X     HAL2     0.900000E-01   1.00800           0
     30642 MEMB     257      POPC     H11Y     HAL2     0.900000E-01   1.00800           0
     30643 MEMB     257      POPC     C312     CTL2    -0.180000       12.0110           0
     30644 MEMB     257      POPC     H12X     HAL2     0.900000E-01   1.00800           0
     30645 MEMB     257      POPC     H12Y     HAL2     0.900000E-01   1.00800           0
     30646 MEMB     257      POPC     C313     CTL2    -0.180000       12.0110           0
     30647 MEMB     257      POPC     H13X     HAL2     0.900000E-01   1.00800           0
     30648 MEMB     257      POPC     H13Y     HAL2     0.900000E-01   1.00800           0
     30649 MEMB     257      POPC     C314     CTL2    -0.180000       12.0110           0
     30650 MEMB     257      POPC     H14X     HAL2     0.900000E-01   1.00800           0
     30651 MEMB     257      POPC     H14Y     HAL2     0.900000E-01   1.00800           0
     30652 MEMB     257      POPC     C315     CTL2    -0.180000       12.0110           0
     30653 MEMB     257      POPC     H15X     HAL2     0.900000E-01   1.00800           0
     30654 MEMB     257      POPC     H15Y     HAL2     0.900000E-01   1.00800           0
     30655 MEMB     257      POPC     C316     CTL3    -0.270000       12.0110           0
     30656 MEMB     257      POPC     H16X     HAL3     0.900000E-01   1.00800           0
     30657 MEMB     257      POPC     H16Y     HAL3     0.900000E-01   1.00800           0
     30658 MEMB     257      POPC     H16Z     HAL3     0.900000E-01   1.00800           0
     30659 MEMB     258      POPC     N        NTL     -0.600000       14.0070           0
     30660 MEMB     258      POPC     C12      CTL2    -0.100000       12.0110           0
     30661 MEMB     258      POPC     H12A     HL       0.250000       1.00800           0
     30662 MEMB     258      POPC     H12B     HL       0.250000       1.00800           0
     30663 MEMB     258      POPC     C13      CTL5    -0.350000       12.0110           0
     30664 MEMB     258      POPC     H13A     HL       0.250000       1.00800           0
     30665 MEMB     258      POPC     H13B     HL       0.250000       1.00800           0
     30666 MEMB     258      POPC     H13C     HL       0.250000       1.00800           0
     30667 MEMB     258      POPC     C14      CTL5    -0.350000       12.0110           0
     30668 MEMB     258      POPC     H14A     HL       0.250000       1.00800           0
     30669 MEMB     258      POPC     H14B     HL       0.250000       1.00800           0
     30670 MEMB     258      POPC     H14C     HL       0.250000       1.00800           0
     30671 MEMB     258      POPC     C15      CTL5    -0.350000       12.0110           0
     30672 MEMB     258      POPC     H15A     HL       0.250000       1.00800           0
     30673 MEMB     258      POPC     H15B     HL       0.250000       1.00800           0
     30674 MEMB     258      POPC     H15C     HL       0.250000       1.00800           0
     30675 MEMB     258      POPC     C11      CTL2    -0.800000E-01   12.0110           0
     30676 MEMB     258      POPC     H11A     HAL2     0.900000E-01   1.00800           0
     30677 MEMB     258      POPC     H11B     HAL2     0.900000E-01   1.00800           0
     30678 MEMB     258      POPC     P        PL        1.50000       30.9740           0
     30679 MEMB     258      POPC     O13      O2L     -0.780000       15.9994           0
     30680 MEMB     258      POPC     O14      O2L     -0.780000       15.9994           0
     30681 MEMB     258      POPC     O12      OSLP    -0.570000       15.9994           0
     30682 MEMB     258      POPC     O11      OSLP    -0.570000       15.9994           0
     30683 MEMB     258      POPC     C1       CTL2    -0.800000E-01   12.0110           0
     30684 MEMB     258      POPC     HA       HAL2     0.900000E-01   1.00800           0
     30685 MEMB     258      POPC     HB       HAL2     0.900000E-01   1.00800           0
     30686 MEMB     258      POPC     C2       CTL1     0.170000       12.0110           0
     30687 MEMB     258      POPC     HS       HAL1     0.900000E-01   1.00800           0
     30688 MEMB     258      POPC     O21      OSL     -0.490000       15.9994           0
     30689 MEMB     258      POPC     C21      CL       0.900000       12.0110           0
     30690 MEMB     258      POPC     O22      OBL     -0.630000       15.9994           0
     30691 MEMB     258      POPC     C22      CTL2    -0.220000       12.0110           0
     30692 MEMB     258      POPC     H2R      HAL2     0.900000E-01   1.00800           0
     30693 MEMB     258      POPC     H2S      HAL2     0.900000E-01   1.00800           0
     30694 MEMB     258      POPC     C3       CTL2     0.800000E-01   12.0110           0
     30695 MEMB     258      POPC     HX       HAL2     0.900000E-01   1.00800           0
     30696 MEMB     258      POPC     HY       HAL2     0.900000E-01   1.00800           0
     30697 MEMB     258      POPC     O31      OSL     -0.490000       15.9994           0
     30698 MEMB     258      POPC     C31      CL       0.900000       12.0110           0
     30699 MEMB     258      POPC     O32      OBL     -0.630000       15.9994           0
     30700 MEMB     258      POPC     C32      CTL2    -0.220000       12.0110           0
     30701 MEMB     258      POPC     H2X      HAL2     0.900000E-01   1.00800           0
     30702 MEMB     258      POPC     H2Y      HAL2     0.900000E-01   1.00800           0
     30703 MEMB     258      POPC     C23      CTL2    -0.180000       12.0110           0
     30704 MEMB     258      POPC     H3R      HAL2     0.900000E-01   1.00800           0
     30705 MEMB     258      POPC     H3S      HAL2     0.900000E-01   1.00800           0
     30706 MEMB     258      POPC     C24      CTL2    -0.180000       12.0110           0
     30707 MEMB     258      POPC     H4R      HAL2     0.900000E-01   1.00800           0
     30708 MEMB     258      POPC     H4S      HAL2     0.900000E-01   1.00800           0
     30709 MEMB     258      POPC     C25      CTL2    -0.180000       12.0110           0
     30710 MEMB     258      POPC     H5R      HAL2     0.900000E-01   1.00800           0
     30711 MEMB     258      POPC     H5S      HAL2     0.900000E-01   1.00800           0
     30712 MEMB     258      POPC     C26      CTL2    -0.180000       12.0110           0
     30713 MEMB     258      POPC     H6R      HAL2     0.900000E-01   1.00800           0
     30714 MEMB     258      POPC     H6S      HAL2     0.900000E-01   1.00800           0
     30715 MEMB     258      POPC     C27      CTL2    -0.180000       12.0110           0
     30716 MEMB     258      POPC     H7R      HAL2     0.900000E-01   1.00800           0
     30717 MEMB     258      POPC     H7S      HAL2     0.900000E-01   1.00800           0
     30718 MEMB     258      POPC     C28      CTL2    -0.180000       12.0110           0
     30719 MEMB     258      POPC     H8R      HAL2     0.900000E-01   1.00800           0
     30720 MEMB     258      POPC     H8S      HAL2     0.900000E-01   1.00800           0
     30721 MEMB     258      POPC     C29      CEL1    -0.150000       12.0110           0
     30722 MEMB     258      POPC     H91      HEL1     0.150000       1.00800           0
     30723 MEMB     258      POPC     C210     CEL1    -0.150000       12.0110           0
     30724 MEMB     258      POPC     H101     HEL1     0.150000       1.00800           0
     30725 MEMB     258      POPC     C211     CTL2    -0.180000       12.0110           0
     30726 MEMB     258      POPC     H11R     HAL2     0.900000E-01   1.00800           0
     30727 MEMB     258      POPC     H11S     HAL2     0.900000E-01   1.00800           0
     30728 MEMB     258      POPC     C212     CTL2    -0.180000       12.0110           0
     30729 MEMB     258      POPC     H12R     HAL2     0.900000E-01   1.00800           0
     30730 MEMB     258      POPC     H12S     HAL2     0.900000E-01   1.00800           0
     30731 MEMB     258      POPC     C213     CTL2    -0.180000       12.0110           0
     30732 MEMB     258      POPC     H13R     HAL2     0.900000E-01   1.00800           0
     30733 MEMB     258      POPC     H13S     HAL2     0.900000E-01   1.00800           0
     30734 MEMB     258      POPC     C214     CTL2    -0.180000       12.0110           0
     30735 MEMB     258      POPC     H14R     HAL2     0.900000E-01   1.00800           0
     30736 MEMB     258      POPC     H14S     HAL2     0.900000E-01   1.00800           0
     30737 MEMB     258      POPC     C215     CTL2    -0.180000       12.0110           0
     30738 MEMB     258      POPC     H15R     HAL2     0.900000E-01   1.00800           0
     30739 MEMB     258      POPC     H15S     HAL2     0.900000E-01   1.00800           0
     30740 MEMB     258      POPC     C216     CTL2    -0.180000       12.0110           0
     30741 MEMB     258      POPC     H16R     HAL2     0.900000E-01   1.00800           0
     30742 MEMB     258      POPC     H16S     HAL2     0.900000E-01   1.00800           0
     30743 MEMB     258      POPC     C217     CTL2    -0.180000       12.0110           0
     30744 MEMB     258      POPC     H17R     HAL2     0.900000E-01   1.00800           0
     30745 MEMB     258      POPC     H17S     HAL2     0.900000E-01   1.00800           0
     30746 MEMB     258      POPC     C218     CTL3    -0.270000       12.0110           0
     30747 MEMB     258      POPC     H18R     HAL3     0.900000E-01   1.00800           0
     30748 MEMB     258      POPC     H18S     HAL3     0.900000E-01   1.00800           0
     30749 MEMB     258      POPC     H18T     HAL3     0.900000E-01   1.00800           0
     30750 MEMB     258      POPC     C33      CTL2    -0.180000       12.0110           0
     30751 MEMB     258      POPC     H3X      HAL2     0.900000E-01   1.00800           0
     30752 MEMB     258      POPC     H3Y      HAL2     0.900000E-01   1.00800           0
     30753 MEMB     258      POPC     C34      CTL2    -0.180000       12.0110           0
     30754 MEMB     258      POPC     H4X      HAL2     0.900000E-01   1.00800           0
     30755 MEMB     258      POPC     H4Y      HAL2     0.900000E-01   1.00800           0
     30756 MEMB     258      POPC     C35      CTL2    -0.180000       12.0110           0
     30757 MEMB     258      POPC     H5X      HAL2     0.900000E-01   1.00800           0
     30758 MEMB     258      POPC     H5Y      HAL2     0.900000E-01   1.00800           0
     30759 MEMB     258      POPC     C36      CTL2    -0.180000       12.0110           0
     30760 MEMB     258      POPC     H6X      HAL2     0.900000E-01   1.00800           0
     30761 MEMB     258      POPC     H6Y      HAL2     0.900000E-01   1.00800           0
     30762 MEMB     258      POPC     C37      CTL2    -0.180000       12.0110           0
     30763 MEMB     258      POPC     H7X      HAL2     0.900000E-01   1.00800           0
     30764 MEMB     258      POPC     H7Y      HAL2     0.900000E-01   1.00800           0
     30765 MEMB     258      POPC     C38      CTL2    -0.180000       12.0110           0
     30766 MEMB     258      POPC     H8X      HAL2     0.900000E-01   1.00800           0
     30767 MEMB     258      POPC     H8Y      HAL2     0.900000E-01   1.00800           0
     30768 MEMB     258      POPC     C39      CTL2    -0.180000       12.0110           0
     30769 MEMB     258      POPC     H9X      HAL2     0.900000E-01   1.00800           0
     30770 MEMB     258      POPC     H9Y      HAL2     0.900000E-01   1.00800           0
     30771 MEMB     258      POPC     C310     CTL2    -0.180000       12.0110           0
     30772 MEMB     258      POPC     H10X     HAL2     0.900000E-01   1.00800           0
     30773 MEMB     258      POPC     H10Y     HAL2     0.900000E-01   1.00800           0
     30774 MEMB     258      POPC     C311     CTL2    -0.180000       12.0110           0
     30775 MEMB     258      POPC     H11X     HAL2     0.900000E-01   1.00800           0
     30776 MEMB     258      POPC     H11Y     HAL2     0.900000E-01   1.00800           0
     30777 MEMB     258      POPC     C312     CTL2    -0.180000       12.0110           0
     30778 MEMB     258      POPC     H12X     HAL2     0.900000E-01   1.00800           0
     30779 MEMB     258      POPC     H12Y     HAL2     0.900000E-01   1.00800           0
     30780 MEMB     258      POPC     C313     CTL2    -0.180000       12.0110           0
     30781 MEMB     258      POPC     H13X     HAL2     0.900000E-01   1.00800           0
     30782 MEMB     258      POPC     H13Y     HAL2     0.900000E-01   1.00800           0
     30783 MEMB     258      POPC     C314     CTL2    -0.180000       12.0110           0
     30784 MEMB     258      POPC     H14X     HAL2     0.900000E-01   1.00800           0
     30785 MEMB     258      POPC     H14Y     HAL2     0.900000E-01   1.00800           0
     30786 MEMB     258      POPC     C315     CTL2    -0.180000       12.0110           0
     30787 MEMB     258      POPC     H15X     HAL2     0.900000E-01   1.00800           0
     30788 MEMB     258      POPC     H15Y     HAL2     0.900000E-01   1.00800           0
     30789 MEMB     258      POPC     C316     CTL3    -0.270000       12.0110           0
     30790 MEMB     258      POPC     H16X     HAL3     0.900000E-01   1.00800           0
     30791 MEMB     258      POPC     H16Y     HAL3     0.900000E-01   1.00800           0
     30792 MEMB     258      POPC     H16Z     HAL3     0.900000E-01   1.00800           0
     30793 MEMB     259      POPC     N        NTL     -0.600000       14.0070           0
     30794 MEMB     259      POPC     C12      CTL2    -0.100000       12.0110           0
     30795 MEMB     259      POPC     H12A     HL       0.250000       1.00800           0
     30796 MEMB     259      POPC     H12B     HL       0.250000       1.00800           0
     30797 MEMB     259      POPC     C13      CTL5    -0.350000       12.0110           0
     30798 MEMB     259      POPC     H13A     HL       0.250000       1.00800           0
     30799 MEMB     259      POPC     H13B     HL       0.250000       1.00800           0
     30800 MEMB     259      POPC     H13C     HL       0.250000       1.00800           0
     30801 MEMB     259      POPC     C14      CTL5    -0.350000       12.0110           0
     30802 MEMB     259      POPC     H14A     HL       0.250000       1.00800           0
     30803 MEMB     259      POPC     H14B     HL       0.250000       1.00800           0
     30804 MEMB     259      POPC     H14C     HL       0.250000       1.00800           0
     30805 MEMB     259      POPC     C15      CTL5    -0.350000       12.0110           0
     30806 MEMB     259      POPC     H15A     HL       0.250000       1.00800           0
     30807 MEMB     259      POPC     H15B     HL       0.250000       1.00800           0
     30808 MEMB     259      POPC     H15C     HL       0.250000       1.00800           0
     30809 MEMB     259      POPC     C11      CTL2    -0.800000E-01   12.0110           0
     30810 MEMB     259      POPC     H11A     HAL2     0.900000E-01   1.00800           0
     30811 MEMB     259      POPC     H11B     HAL2     0.900000E-01   1.00800           0
     30812 MEMB     259      POPC     P        PL        1.50000       30.9740           0
     30813 MEMB     259      POPC     O13      O2L     -0.780000       15.9994           0
     30814 MEMB     259      POPC     O14      O2L     -0.780000       15.9994           0
     30815 MEMB     259      POPC     O12      OSLP    -0.570000       15.9994           0
     30816 MEMB     259      POPC     O11      OSLP    -0.570000       15.9994           0
     30817 MEMB     259      POPC     C1       CTL2    -0.800000E-01   12.0110           0
     30818 MEMB     259      POPC     HA       HAL2     0.900000E-01   1.00800           0
     30819 MEMB     259      POPC     HB       HAL2     0.900000E-01   1.00800           0
     30820 MEMB     259      POPC     C2       CTL1     0.170000       12.0110           0
     30821 MEMB     259      POPC     HS       HAL1     0.900000E-01   1.00800           0
     30822 MEMB     259      POPC     O21      OSL     -0.490000       15.9994           0
     30823 MEMB     259      POPC     C21      CL       0.900000       12.0110           0
     30824 MEMB     259      POPC     O22      OBL     -0.630000       15.9994           0
     30825 MEMB     259      POPC     C22      CTL2    -0.220000       12.0110           0
     30826 MEMB     259      POPC     H2R      HAL2     0.900000E-01   1.00800           0
     30827 MEMB     259      POPC     H2S      HAL2     0.900000E-01   1.00800           0
     30828 MEMB     259      POPC     C3       CTL2     0.800000E-01   12.0110           0
     30829 MEMB     259      POPC     HX       HAL2     0.900000E-01   1.00800           0
     30830 MEMB     259      POPC     HY       HAL2     0.900000E-01   1.00800           0
     30831 MEMB     259      POPC     O31      OSL     -0.490000       15.9994           0
     30832 MEMB     259      POPC     C31      CL       0.900000       12.0110           0
     30833 MEMB     259      POPC     O32      OBL     -0.630000       15.9994           0
     30834 MEMB     259      POPC     C32      CTL2    -0.220000       12.0110           0
     30835 MEMB     259      POPC     H2X      HAL2     0.900000E-01   1.00800           0
     30836 MEMB     259      POPC     H2Y      HAL2     0.900000E-01   1.00800           0
     30837 MEMB     259      POPC     C23      CTL2    -0.180000       12.0110           0
     30838 MEMB     259      POPC     H3R      HAL2     0.900000E-01   1.00800           0
     30839 MEMB     259      POPC     H3S      HAL2     0.900000E-01   1.00800           0
     30840 MEMB     259      POPC     C24      CTL2    -0.180000       12.0110           0
     30841 MEMB     259      POPC     H4R      HAL2     0.900000E-01   1.00800           0
     30842 MEMB     259      POPC     H4S      HAL2     0.900000E-01   1.00800           0
     30843 MEMB     259      POPC     C25      CTL2    -0.180000       12.0110           0
     30844 MEMB     259      POPC     H5R      HAL2     0.900000E-01   1.00800           0
     30845 MEMB     259      POPC     H5S      HAL2     0.900000E-01   1.00800           0
     30846 MEMB     259      POPC     C26      CTL2    -0.180000       12.0110           0
     30847 MEMB     259      POPC     H6R      HAL2     0.900000E-01   1.00800           0
     30848 MEMB     259      POPC     H6S      HAL2     0.900000E-01   1.00800           0
     30849 MEMB     259      POPC     C27      CTL2    -0.180000       12.0110           0
     30850 MEMB     259      POPC     H7R      HAL2     0.900000E-01   1.00800           0
     30851 MEMB     259      POPC     H7S      HAL2     0.900000E-01   1.00800           0
     30852 MEMB     259      POPC     C28      CTL2    -0.180000       12.0110           0
     30853 MEMB     259      POPC     H8R      HAL2     0.900000E-01   1.00800           0
     30854 MEMB     259      POPC     H8S      HAL2     0.900000E-01   1.00800           0
     30855 MEMB     259      POPC     C29      CEL1    -0.150000       12.0110           0
     30856 MEMB     259      POPC     H91      HEL1     0.150000       1.00800           0
     30857 MEMB     259      POPC     C210     CEL1    -0.150000       12.0110           0
     30858 MEMB     259      POPC     H101     HEL1     0.150000       1.00800           0
     30859 MEMB     259      POPC     C211     CTL2    -0.180000       12.0110           0
     30860 MEMB     259      POPC     H11R     HAL2     0.900000E-01   1.00800           0
     30861 MEMB     259      POPC     H11S     HAL2     0.900000E-01   1.00800           0
     30862 MEMB     259      POPC     C212     CTL2    -0.180000       12.0110           0
     30863 MEMB     259      POPC     H12R     HAL2     0.900000E-01   1.00800           0
     30864 MEMB     259      POPC     H12S     HAL2     0.900000E-01   1.00800           0
     30865 MEMB     259      POPC     C213     CTL2    -0.180000       12.0110           0
     30866 MEMB     259      POPC     H13R     HAL2     0.900000E-01   1.00800           0
     30867 MEMB     259      POPC     H13S     HAL2     0.900000E-01   1.00800           0
     30868 MEMB     259      POPC     C214     CTL2    -0.180000       12.0110           0
     30869 MEMB     259      POPC     H14R     HAL2     0.900000E-01   1.00800           0
     30870 MEMB     259      POPC     H14S     HAL2     0.900000E-01   1.00800           0
     30871 MEMB     259      POPC     C215     CTL2    -0.180000       12.0110           0
     30872 MEMB     259      POPC     H15R     HAL2     0.900000E-01   1.00800           0
     30873 MEMB     259      POPC     H15S     HAL2     0.900000E-01   1.00800           0
     30874 MEMB     259      POPC     C216     CTL2    -0.180000       12.0110           0
     30875 MEMB     259      POPC     H16R     HAL2     0.900000E-01   1.00800           0
     30876 MEMB     259      POPC     H16S     HAL2     0.900000E-01   1.00800           0
     30877 MEMB     259      POPC     C217     CTL2    -0.180000       12.0110           0
     30878 MEMB     259      POPC     H17R     HAL2     0.900000E-01   1.00800           0
     30879 MEMB     259      POPC     H17S     HAL2     0.900000E-01   1.00800           0
     30880 MEMB     259      POPC     C218     CTL3    -0.270000       12.0110           0
     30881 MEMB     259      POPC     H18R     HAL3     0.900000E-01   1.00800           0
     30882 MEMB     259      POPC     H18S     HAL3     0.900000E-01   1.00800           0
     30883 MEMB     259      POPC     H18T     HAL3     0.900000E-01   1.00800           0
     30884 MEMB     259      POPC     C33      CTL2    -0.180000       12.0110           0
     30885 MEMB     259      POPC     H3X      HAL2     0.900000E-01   1.00800           0
     30886 MEMB     259      POPC     H3Y      HAL2     0.900000E-01   1.00800           0
     30887 MEMB     259      POPC     C34      CTL2    -0.180000       12.0110           0
     30888 MEMB     259      POPC     H4X      HAL2     0.900000E-01   1.00800           0
     30889 MEMB     259      POPC     H4Y      HAL2     0.900000E-01   1.00800           0
     30890 MEMB     259      POPC     C35      CTL2    -0.180000       12.0110           0
     30891 MEMB     259      POPC     H5X      HAL2     0.900000E-01   1.00800           0
     30892 MEMB     259      POPC     H5Y      HAL2     0.900000E-01   1.00800           0
     30893 MEMB     259      POPC     C36      CTL2    -0.180000       12.0110           0
     30894 MEMB     259      POPC     H6X      HAL2     0.900000E-01   1.00800           0
     30895 MEMB     259      POPC     H6Y      HAL2     0.900000E-01   1.00800           0
     30896 MEMB     259      POPC     C37      CTL2    -0.180000       12.0110           0
     30897 MEMB     259      POPC     H7X      HAL2     0.900000E-01   1.00800           0
     30898 MEMB     259      POPC     H7Y      HAL2     0.900000E-01   1.00800           0
     30899 MEMB     259      POPC     C38      CTL2    -0.180000       12.0110           0
     30900 MEMB     259      POPC     H8X      HAL2     0.900000E-01   1.00800           0
     30901 MEMB     259      POPC     H8Y      HAL2     0.900000E-01   1.00800           0
     30902 MEMB     259      POPC     C39      CTL2    -0.180000       12.0110           0
     30903 MEMB     259      POPC     H9X      HAL2     0.900000E-01   1.00800           0
     30904 MEMB     259      POPC     H9Y      HAL2     0.900000E-01   1.00800           0
     30905 MEMB     259      POPC     C310     CTL2    -0.180000       12.0110           0
     30906 MEMB     259      POPC     H10X     HAL2     0.900000E-01   1.00800           0
     30907 MEMB     259      POPC     H10Y     HAL2     0.900000E-01   1.00800           0
     30908 MEMB     259      POPC     C311     CTL2    -0.180000       12.0110           0
     30909 MEMB     259      POPC     H11X     HAL2     0.900000E-01   1.00800           0
     30910 MEMB     259      POPC     H11Y     HAL2     0.900000E-01   1.00800           0
     30911 MEMB     259      POPC     C312     CTL2    -0.180000       12.0110           0
     30912 MEMB     259      POPC     H12X     HAL2     0.900000E-01   1.00800           0
     30913 MEMB     259      POPC     H12Y     HAL2     0.900000E-01   1.00800           0
     30914 MEMB     259      POPC     C313     CTL2    -0.180000       12.0110           0
     30915 MEMB     259      POPC     H13X     HAL2     0.900000E-01   1.00800           0
     30916 MEMB     259      POPC     H13Y     HAL2     0.900000E-01   1.00800           0
     30917 MEMB     259      POPC     C314     CTL2    -0.180000       12.0110           0
     30918 MEMB     259      POPC     H14X     HAL2     0.900000E-01   1.00800           0
     30919 MEMB     259      POPC     H14Y     HAL2     0.900000E-01   1.00800           0
     30920 MEMB     259      POPC     C315     CTL2    -0.180000       12.0110           0
     30921 MEMB     259      POPC     H15X     HAL2     0.900000E-01   1.00800           0
     30922 MEMB     259      POPC     H15Y     HAL2     0.900000E-01   1.00800           0
     30923 MEMB     259      POPC     C316     CTL3    -0.270000       12.0110           0
     30924 MEMB     259      POPC     H16X     HAL3     0.900000E-01   1.00800           0
     30925 MEMB     259      POPC     H16Y     HAL3     0.900000E-01   1.00800           0
     30926 MEMB     259      POPC     H16Z     HAL3     0.900000E-01   1.00800           0
     30927 MEMB     260      POPC     N        NTL     -0.600000       14.0070           0
     30928 MEMB     260      POPC     C12      CTL2    -0.100000       12.0110           0
     30929 MEMB     260      POPC     H12A     HL       0.250000       1.00800           0
     30930 MEMB     260      POPC     H12B     HL       0.250000       1.00800           0
     30931 MEMB     260      POPC     C13      CTL5    -0.350000       12.0110           0
     30932 MEMB     260      POPC     H13A     HL       0.250000       1.00800           0
     30933 MEMB     260      POPC     H13B     HL       0.250000       1.00800           0
     30934 MEMB     260      POPC     H13C     HL       0.250000       1.00800           0
     30935 MEMB     260      POPC     C14      CTL5    -0.350000       12.0110           0
     30936 MEMB     260      POPC     H14A     HL       0.250000       1.00800           0
     30937 MEMB     260      POPC     H14B     HL       0.250000       1.00800           0
     30938 MEMB     260      POPC     H14C     HL       0.250000       1.00800           0
     30939 MEMB     260      POPC     C15      CTL5    -0.350000       12.0110           0
     30940 MEMB     260      POPC     H15A     HL       0.250000       1.00800           0
     30941 MEMB     260      POPC     H15B     HL       0.250000       1.00800           0
     30942 MEMB     260      POPC     H15C     HL       0.250000       1.00800           0
     30943 MEMB     260      POPC     C11      CTL2    -0.800000E-01   12.0110           0
     30944 MEMB     260      POPC     H11A     HAL2     0.900000E-01   1.00800           0
     30945 MEMB     260      POPC     H11B     HAL2     0.900000E-01   1.00800           0
     30946 MEMB     260      POPC     P        PL        1.50000       30.9740           0
     30947 MEMB     260      POPC     O13      O2L     -0.780000       15.9994           0
     30948 MEMB     260      POPC     O14      O2L     -0.780000       15.9994           0
     30949 MEMB     260      POPC     O12      OSLP    -0.570000       15.9994           0
     30950 MEMB     260      POPC     O11      OSLP    -0.570000       15.9994           0
     30951 MEMB     260      POPC     C1       CTL2    -0.800000E-01   12.0110           0
     30952 MEMB     260      POPC     HA       HAL2     0.900000E-01   1.00800           0
     30953 MEMB     260      POPC     HB       HAL2     0.900000E-01   1.00800           0
     30954 MEMB     260      POPC     C2       CTL1     0.170000       12.0110           0
     30955 MEMB     260      POPC     HS       HAL1     0.900000E-01   1.00800           0
     30956 MEMB     260      POPC     O21      OSL     -0.490000       15.9994           0
     30957 MEMB     260      POPC     C21      CL       0.900000       12.0110           0
     30958 MEMB     260      POPC     O22      OBL     -0.630000       15.9994           0
     30959 MEMB     260      POPC     C22      CTL2    -0.220000       12.0110           0
     30960 MEMB     260      POPC     H2R      HAL2     0.900000E-01   1.00800           0
     30961 MEMB     260      POPC     H2S      HAL2     0.900000E-01   1.00800           0
     30962 MEMB     260      POPC     C3       CTL2     0.800000E-01   12.0110           0
     30963 MEMB     260      POPC     HX       HAL2     0.900000E-01   1.00800           0
     30964 MEMB     260      POPC     HY       HAL2     0.900000E-01   1.00800           0
     30965 MEMB     260      POPC     O31      OSL     -0.490000       15.9994           0
     30966 MEMB     260      POPC     C31      CL       0.900000       12.0110           0
     30967 MEMB     260      POPC     O32      OBL     -0.630000       15.9994           0
     30968 MEMB     260      POPC     C32      CTL2    -0.220000       12.0110           0
     30969 MEMB     260      POPC     H2X      HAL2     0.900000E-01   1.00800           0
     30970 MEMB     260      POPC     H2Y      HAL2     0.900000E-01   1.00800           0
     30971 MEMB     260      POPC     C23      CTL2    -0.180000       12.0110           0
     30972 MEMB     260      POPC     H3R      HAL2     0.900000E-01   1.00800           0
     30973 MEMB     260      POPC     H3S      HAL2     0.900000E-01   1.00800           0
     30974 MEMB     260      POPC     C24      CTL2    -0.180000       12.0110           0
     30975 MEMB     260      POPC     H4R      HAL2     0.900000E-01   1.00800           0
     30976 MEMB     260      POPC     H4S      HAL2     0.900000E-01   1.00800           0
     30977 MEMB     260      POPC     C25      CTL2    -0.180000       12.0110           0
     30978 MEMB     260      POPC     H5R      HAL2     0.900000E-01   1.00800           0
     30979 MEMB     260      POPC     H5S      HAL2     0.900000E-01   1.00800           0
     30980 MEMB     260      POPC     C26      CTL2    -0.180000       12.0110           0
     30981 MEMB     260      POPC     H6R      HAL2     0.900000E-01   1.00800           0
     30982 MEMB     260      POPC     H6S      HAL2     0.900000E-01   1.00800           0
     30983 MEMB     260      POPC     C27      CTL2    -0.180000       12.0110           0
     30984 MEMB     260      POPC     H7R      HAL2     0.900000E-01   1.00800           0
     30985 MEMB     260      POPC     H7S      HAL2     0.900000E-01   1.00800           0
     30986 MEMB     260      POPC     C28      CTL2    -0.180000       12.0110           0
     30987 MEMB     260      POPC     H8R      HAL2     0.900000E-01   1.00800           0
     30988 MEMB     260      POPC     H8S      HAL2     0.900000E-01   1.00800           0
     30989 MEMB     260      POPC     C29      CEL1    -0.150000       12.0110           0
     30990 MEMB     260      POPC     H91      HEL1     0.150000       1.00800           0
     30991 MEMB     260      POPC     C210     CEL1    -0.150000       12.0110           0
     30992 MEMB     260      POPC     H101     HEL1     0.150000       1.00800           0
     30993 MEMB     260      POPC     C211     CTL2    -0.180000       12.0110           0
     30994 MEMB     260      POPC     H11R     HAL2     0.900000E-01   1.00800           0
     30995 MEMB     260      POPC     H11S     HAL2     0.900000E-01   1.00800           0
     30996 MEMB     260      POPC     C212     CTL2    -0.180000       12.0110           0
     30997 MEMB     260      POPC     H12R     HAL2     0.900000E-01   1.00800           0
     30998 MEMB     260      POPC     H12S     HAL2     0.900000E-01   1.00800           0
     30999 MEMB     260      POPC     C213     CTL2    -0.180000       12.0110           0
     31000 MEMB     260      POPC     H13R     HAL2     0.900000E-01   1.00800           0
     31001 MEMB     260      POPC     H13S     HAL2     0.900000E-01   1.00800           0
     31002 MEMB     260      POPC     C214     CTL2    -0.180000       12.0110           0
     31003 MEMB     260      POPC     H14R     HAL2     0.900000E-01   1.00800           0
     31004 MEMB     260      POPC     H14S     HAL2     0.900000E-01   1.00800           0
     31005 MEMB     260      POPC     C215     CTL2    -0.180000       12.0110           0
     31006 MEMB     260      POPC     H15R     HAL2     0.900000E-01   1.00800           0
     31007 MEMB     260      POPC     H15S     HAL2     0.900000E-01   1.00800           0
     31008 MEMB     260      POPC     C216     CTL2    -0.180000       12.0110           0
     31009 MEMB     260      POPC     H16R     HAL2     0.900000E-01   1.00800           0
     31010 MEMB     260      POPC     H16S     HAL2     0.900000E-01   1.00800           0
     31011 MEMB     260      POPC     C217     CTL2    -0.180000       12.0110           0
     31012 MEMB     260      POPC     H17R     HAL2     0.900000E-01   1.00800           0
     31013 MEMB     260      POPC     H17S     HAL2     0.900000E-01   1.00800           0
     31014 MEMB     260      POPC     C218     CTL3    -0.270000       12.0110           0
     31015 MEMB     260      POPC     H18R     HAL3     0.900000E-01   1.00800           0
     31016 MEMB     260      POPC     H18S     HAL3     0.900000E-01   1.00800           0
     31017 MEMB     260      POPC     H18T     HAL3     0.900000E-01   1.00800           0
     31018 MEMB     260      POPC     C33      CTL2    -0.180000       12.0110           0
     31019 MEMB     260      POPC     H3X      HAL2     0.900000E-01   1.00800           0
     31020 MEMB     260      POPC     H3Y      HAL2     0.900000E-01   1.00800           0
     31021 MEMB     260      POPC     C34      CTL2    -0.180000       12.0110           0
     31022 MEMB     260      POPC     H4X      HAL2     0.900000E-01   1.00800           0
     31023 MEMB     260      POPC     H4Y      HAL2     0.900000E-01   1.00800           0
     31024 MEMB     260      POPC     C35      CTL2    -0.180000       12.0110           0
     31025 MEMB     260      POPC     H5X      HAL2     0.900000E-01   1.00800           0
     31026 MEMB     260      POPC     H5Y      HAL2     0.900000E-01   1.00800           0
     31027 MEMB     260      POPC     C36      CTL2    -0.180000       12.0110           0
     31028 MEMB     260      POPC     H6X      HAL2     0.900000E-01   1.00800           0
     31029 MEMB     260      POPC     H6Y      HAL2     0.900000E-01   1.00800           0
     31030 MEMB     260      POPC     C37      CTL2    -0.180000       12.0110           0
     31031 MEMB     260      POPC     H7X      HAL2     0.900000E-01   1.00800           0
     31032 MEMB     260      POPC     H7Y      HAL2     0.900000E-01   1.00800           0
     31033 MEMB     260      POPC     C38      CTL2    -0.180000       12.0110           0
     31034 MEMB     260      POPC     H8X      HAL2     0.900000E-01   1.00800           0
     31035 MEMB     260      POPC     H8Y      HAL2     0.900000E-01   1.00800           0
     31036 MEMB     260      POPC     C39      CTL2    -0.180000       12.0110           0
     31037 MEMB     260      POPC     H9X      HAL2     0.900000E-01   1.00800           0
     31038 MEMB     260      POPC     H9Y      HAL2     0.900000E-01   1.00800           0
     31039 MEMB     260      POPC     C310     CTL2    -0.180000       12.0110           0
     31040 MEMB     260      POPC     H10X     HAL2     0.900000E-01   1.00800           0
     31041 MEMB     260      POPC     H10Y     HAL2     0.900000E-01   1.00800           0
     31042 MEMB     260      POPC     C311     CTL2    -0.180000       12.0110           0
     31043 MEMB     260      POPC     H11X     HAL2     0.900000E-01   1.00800           0
     31044 MEMB     260      POPC     H11Y     HAL2     0.900000E-01   1.00800           0
     31045 MEMB     260      POPC     C312     CTL2    -0.180000       12.0110           0
     31046 MEMB     260      POPC     H12X     HAL2     0.900000E-01   1.00800           0
     31047 MEMB     260      POPC     H12Y     HAL2     0.900000E-01   1.00800           0
     31048 MEMB     260      POPC     C313     CTL2    -0.180000       12.0110           0
     31049 MEMB     260      POPC     H13X     HAL2     0.900000E-01   1.00800           0
     31050 MEMB     260      POPC     H13Y     HAL2     0.900000E-01   1.00800           0
     31051 MEMB     260      POPC     C314     CTL2    -0.180000       12.0110           0
     31052 MEMB     260      POPC     H14X     HAL2     0.900000E-01   1.00800           0
     31053 MEMB     260      POPC     H14Y     HAL2     0.900000E-01   1.00800           0
     31054 MEMB     260      POPC     C315     CTL2    -0.180000       12.0110           0
     31055 MEMB     260      POPC     H15X     HAL2     0.900000E-01   1.00800           0
     31056 MEMB     260      POPC     H15Y     HAL2     0.900000E-01   1.00800           0
     31057 MEMB     260      POPC     C316     CTL3    -0.270000       12.0110           0
     31058 MEMB     260      POPC     H16X     HAL3     0.900000E-01   1.00800           0
     31059 MEMB     260      POPC     H16Y     HAL3     0.900000E-01   1.00800           0
     31060 MEMB     260      POPC     H16Z     HAL3     0.900000E-01   1.00800           0
     31061 MEMB     261      POPC     N        NTL     -0.600000       14.0070           0
     31062 MEMB     261      POPC     C12      CTL2    -0.100000       12.0110           0
     31063 MEMB     261      POPC     H12A     HL       0.250000       1.00800           0
     31064 MEMB     261      POPC     H12B     HL       0.250000       1.00800           0
     31065 MEMB     261      POPC     C13      CTL5    -0.350000       12.0110           0
     31066 MEMB     261      POPC     H13A     HL       0.250000       1.00800           0
     31067 MEMB     261      POPC     H13B     HL       0.250000       1.00800           0
     31068 MEMB     261      POPC     H13C     HL       0.250000       1.00800           0
     31069 MEMB     261      POPC     C14      CTL5    -0.350000       12.0110           0
     31070 MEMB     261      POPC     H14A     HL       0.250000       1.00800           0
     31071 MEMB     261      POPC     H14B     HL       0.250000       1.00800           0
     31072 MEMB     261      POPC     H14C     HL       0.250000       1.00800           0
     31073 MEMB     261      POPC     C15      CTL5    -0.350000       12.0110           0
     31074 MEMB     261      POPC     H15A     HL       0.250000       1.00800           0
     31075 MEMB     261      POPC     H15B     HL       0.250000       1.00800           0
     31076 MEMB     261      POPC     H15C     HL       0.250000       1.00800           0
     31077 MEMB     261      POPC     C11      CTL2    -0.800000E-01   12.0110           0
     31078 MEMB     261      POPC     H11A     HAL2     0.900000E-01   1.00800           0
     31079 MEMB     261      POPC     H11B     HAL2     0.900000E-01   1.00800           0
     31080 MEMB     261      POPC     P        PL        1.50000       30.9740           0
     31081 MEMB     261      POPC     O13      O2L     -0.780000       15.9994           0
     31082 MEMB     261      POPC     O14      O2L     -0.780000       15.9994           0
     31083 MEMB     261      POPC     O12      OSLP    -0.570000       15.9994           0
     31084 MEMB     261      POPC     O11      OSLP    -0.570000       15.9994           0
     31085 MEMB     261      POPC     C1       CTL2    -0.800000E-01   12.0110           0
     31086 MEMB     261      POPC     HA       HAL2     0.900000E-01   1.00800           0
     31087 MEMB     261      POPC     HB       HAL2     0.900000E-01   1.00800           0
     31088 MEMB     261      POPC     C2       CTL1     0.170000       12.0110           0
     31089 MEMB     261      POPC     HS       HAL1     0.900000E-01   1.00800           0
     31090 MEMB     261      POPC     O21      OSL     -0.490000       15.9994           0
     31091 MEMB     261      POPC     C21      CL       0.900000       12.0110           0
     31092 MEMB     261      POPC     O22      OBL     -0.630000       15.9994           0
     31093 MEMB     261      POPC     C22      CTL2    -0.220000       12.0110           0
     31094 MEMB     261      POPC     H2R      HAL2     0.900000E-01   1.00800           0
     31095 MEMB     261      POPC     H2S      HAL2     0.900000E-01   1.00800           0
     31096 MEMB     261      POPC     C3       CTL2     0.800000E-01   12.0110           0
     31097 MEMB     261      POPC     HX       HAL2     0.900000E-01   1.00800           0
     31098 MEMB     261      POPC     HY       HAL2     0.900000E-01   1.00800           0
     31099 MEMB     261      POPC     O31      OSL     -0.490000       15.9994           0
     31100 MEMB     261      POPC     C31      CL       0.900000       12.0110           0
     31101 MEMB     261      POPC     O32      OBL     -0.630000       15.9994           0
     31102 MEMB     261      POPC     C32      CTL2    -0.220000       12.0110           0
     31103 MEMB     261      POPC     H2X      HAL2     0.900000E-01   1.00800           0
     31104 MEMB     261      POPC     H2Y      HAL2     0.900000E-01   1.00800           0
     31105 MEMB     261      POPC     C23      CTL2    -0.180000       12.0110           0
     31106 MEMB     261      POPC     H3R      HAL2     0.900000E-01   1.00800           0
     31107 MEMB     261      POPC     H3S      HAL2     0.900000E-01   1.00800           0
     31108 MEMB     261      POPC     C24      CTL2    -0.180000       12.0110           0
     31109 MEMB     261      POPC     H4R      HAL2     0.900000E-01   1.00800           0
     31110 MEMB     261      POPC     H4S      HAL2     0.900000E-01   1.00800           0
     31111 MEMB     261      POPC     C25      CTL2    -0.180000       12.0110           0
     31112 MEMB     261      POPC     H5R      HAL2     0.900000E-01   1.00800           0
     31113 MEMB     261      POPC     H5S      HAL2     0.900000E-01   1.00800           0
     31114 MEMB     261      POPC     C26      CTL2    -0.180000       12.0110           0
     31115 MEMB     261      POPC     H6R      HAL2     0.900000E-01   1.00800           0
     31116 MEMB     261      POPC     H6S      HAL2     0.900000E-01   1.00800           0
     31117 MEMB     261      POPC     C27      CTL2    -0.180000       12.0110           0
     31118 MEMB     261      POPC     H7R      HAL2     0.900000E-01   1.00800           0
     31119 MEMB     261      POPC     H7S      HAL2     0.900000E-01   1.00800           0
     31120 MEMB     261      POPC     C28      CTL2    -0.180000       12.0110           0
     31121 MEMB     261      POPC     H8R      HAL2     0.900000E-01   1.00800           0
     31122 MEMB     261      POPC     H8S      HAL2     0.900000E-01   1.00800           0
     31123 MEMB     261      POPC     C29      CEL1    -0.150000       12.0110           0
     31124 MEMB     261      POPC     H91      HEL1     0.150000       1.00800           0
     31125 MEMB     261      POPC     C210     CEL1    -0.150000       12.0110           0
     31126 MEMB     261      POPC     H101     HEL1     0.150000       1.00800           0
     31127 MEMB     261      POPC     C211     CTL2    -0.180000       12.0110           0
     31128 MEMB     261      POPC     H11R     HAL2     0.900000E-01   1.00800           0
     31129 MEMB     261      POPC     H11S     HAL2     0.900000E-01   1.00800           0
     31130 MEMB     261      POPC     C212     CTL2    -0.180000       12.0110           0
     31131 MEMB     261      POPC     H12R     HAL2     0.900000E-01   1.00800           0
     31132 MEMB     261      POPC     H12S     HAL2     0.900000E-01   1.00800           0
     31133 MEMB     261      POPC     C213     CTL2    -0.180000       12.0110           0
     31134 MEMB     261      POPC     H13R     HAL2     0.900000E-01   1.00800           0
     31135 MEMB     261      POPC     H13S     HAL2     0.900000E-01   1.00800           0
     31136 MEMB     261      POPC     C214     CTL2    -0.180000       12.0110           0
     31137 MEMB     261      POPC     H14R     HAL2     0.900000E-01   1.00800           0
     31138 MEMB     261      POPC     H14S     HAL2     0.900000E-01   1.00800           0
     31139 MEMB     261      POPC     C215     CTL2    -0.180000       12.0110           0
     31140 MEMB     261      POPC     H15R     HAL2     0.900000E-01   1.00800           0
     31141 MEMB     261      POPC     H15S     HAL2     0.900000E-01   1.00800           0
     31142 MEMB     261      POPC     C216     CTL2    -0.180000       12.0110           0
     31143 MEMB     261      POPC     H16R     HAL2     0.900000E-01   1.00800           0
     31144 MEMB     261      POPC     H16S     HAL2     0.900000E-01   1.00800           0
     31145 MEMB     261      POPC     C217     CTL2    -0.180000       12.0110           0
     31146 MEMB     261      POPC     H17R     HAL2     0.900000E-01   1.00800           0
     31147 MEMB     261      POPC     H17S     HAL2     0.900000E-01   1.00800           0
     31148 MEMB     261      POPC     C218     CTL3    -0.270000       12.0110           0
     31149 MEMB     261      POPC     H18R     HAL3     0.900000E-01   1.00800           0
     31150 MEMB     261      POPC     H18S     HAL3     0.900000E-01   1.00800           0
     31151 MEMB     261      POPC     H18T     HAL3     0.900000E-01   1.00800           0
     31152 MEMB     261      POPC     C33      CTL2    -0.180000       12.0110           0
     31153 MEMB     261      POPC     H3X      HAL2     0.900000E-01   1.00800           0
     31154 MEMB     261      POPC     H3Y      HAL2     0.900000E-01   1.00800           0
     31155 MEMB     261      POPC     C34      CTL2    -0.180000       12.0110           0
     31156 MEMB     261      POPC     H4X      HAL2     0.900000E-01   1.00800           0
     31157 MEMB     261      POPC     H4Y      HAL2     0.900000E-01   1.00800           0
     31158 MEMB     261      POPC     C35      CTL2    -0.180000       12.0110           0
     31159 MEMB     261      POPC     H5X      HAL2     0.900000E-01   1.00800           0
     31160 MEMB     261      POPC     H5Y      HAL2     0.900000E-01   1.00800           0
     31161 MEMB     261      POPC     C36      CTL2    -0.180000       12.0110           0
     31162 MEMB     261      POPC     H6X      HAL2     0.900000E-01   1.00800           0
     31163 MEMB     261      POPC     H6Y      HAL2     0.900000E-01   1.00800           0
     31164 MEMB     261      POPC     C37      CTL2    -0.180000       12.0110           0
     31165 MEMB     261      POPC     H7X      HAL2     0.900000E-01   1.00800           0
     31166 MEMB     261      POPC     H7Y      HAL2     0.900000E-01   1.00800           0
     31167 MEMB     261      POPC     C38      CTL2    -0.180000       12.0110           0
     31168 MEMB     261      POPC     H8X      HAL2     0.900000E-01   1.00800           0
     31169 MEMB     261      POPC     H8Y      HAL2     0.900000E-01   1.00800           0
     31170 MEMB     261      POPC     C39      CTL2    -0.180000       12.0110           0
     31171 MEMB     261      POPC     H9X      HAL2     0.900000E-01   1.00800           0
     31172 MEMB     261      POPC     H9Y      HAL2     0.900000E-01   1.00800           0
     31173 MEMB     261      POPC     C310     CTL2    -0.180000       12.0110           0
     31174 MEMB     261      POPC     H10X     HAL2     0.900000E-01   1.00800           0
     31175 MEMB     261      POPC     H10Y     HAL2     0.900000E-01   1.00800           0
     31176 MEMB     261      POPC     C311     CTL2    -0.180000       12.0110           0
     31177 MEMB     261      POPC     H11X     HAL2     0.900000E-01   1.00800           0
     31178 MEMB     261      POPC     H11Y     HAL2     0.900000E-01   1.00800           0
     31179 MEMB     261      POPC     C312     CTL2    -0.180000       12.0110           0
     31180 MEMB     261      POPC     H12X     HAL2     0.900000E-01   1.00800           0
     31181 MEMB     261      POPC     H12Y     HAL2     0.900000E-01   1.00800           0
     31182 MEMB     261      POPC     C313     CTL2    -0.180000       12.0110           0
     31183 MEMB     261      POPC     H13X     HAL2     0.900000E-01   1.00800           0
     31184 MEMB     261      POPC     H13Y     HAL2     0.900000E-01   1.00800           0
     31185 MEMB     261      POPC     C314     CTL2    -0.180000       12.0110           0
     31186 MEMB     261      POPC     H14X     HAL2     0.900000E-01   1.00800           0
     31187 MEMB     261      POPC     H14Y     HAL2     0.900000E-01   1.00800           0
     31188 MEMB     261      POPC     C315     CTL2    -0.180000       12.0110           0
     31189 MEMB     261      POPC     H15X     HAL2     0.900000E-01   1.00800           0
     31190 MEMB     261      POPC     H15Y     HAL2     0.900000E-01   1.00800           0
     31191 MEMB     261      POPC     C316     CTL3    -0.270000       12.0110           0
     31192 MEMB     261      POPC     H16X     HAL3     0.900000E-01   1.00800           0
     31193 MEMB     261      POPC     H16Y     HAL3     0.900000E-01   1.00800           0
     31194 MEMB     261      POPC     H16Z     HAL3     0.900000E-01   1.00800           0
     31195 MEMB     262      POPC     N        NTL     -0.600000       14.0070           0
     31196 MEMB     262      POPC     C12      CTL2    -0.100000       12.0110           0
     31197 MEMB     262      POPC     H12A     HL       0.250000       1.00800           0
     31198 MEMB     262      POPC     H12B     HL       0.250000       1.00800           0
     31199 MEMB     262      POPC     C13      CTL5    -0.350000       12.0110           0
     31200 MEMB     262      POPC     H13A     HL       0.250000       1.00800           0
     31201 MEMB     262      POPC     H13B     HL       0.250000       1.00800           0
     31202 MEMB     262      POPC     H13C     HL       0.250000       1.00800           0
     31203 MEMB     262      POPC     C14      CTL5    -0.350000       12.0110           0
     31204 MEMB     262      POPC     H14A     HL       0.250000       1.00800           0
     31205 MEMB     262      POPC     H14B     HL       0.250000       1.00800           0
     31206 MEMB     262      POPC     H14C     HL       0.250000       1.00800           0
     31207 MEMB     262      POPC     C15      CTL5    -0.350000       12.0110           0
     31208 MEMB     262      POPC     H15A     HL       0.250000       1.00800           0
     31209 MEMB     262      POPC     H15B     HL       0.250000       1.00800           0
     31210 MEMB     262      POPC     H15C     HL       0.250000       1.00800           0
     31211 MEMB     262      POPC     C11      CTL2    -0.800000E-01   12.0110           0
     31212 MEMB     262      POPC     H11A     HAL2     0.900000E-01   1.00800           0
     31213 MEMB     262      POPC     H11B     HAL2     0.900000E-01   1.00800           0
     31214 MEMB     262      POPC     P        PL        1.50000       30.9740           0
     31215 MEMB     262      POPC     O13      O2L     -0.780000       15.9994           0
     31216 MEMB     262      POPC     O14      O2L     -0.780000       15.9994           0
     31217 MEMB     262      POPC     O12      OSLP    -0.570000       15.9994           0
     31218 MEMB     262      POPC     O11      OSLP    -0.570000       15.9994           0
     31219 MEMB     262      POPC     C1       CTL2    -0.800000E-01   12.0110           0
     31220 MEMB     262      POPC     HA       HAL2     0.900000E-01   1.00800           0
     31221 MEMB     262      POPC     HB       HAL2     0.900000E-01   1.00800           0
     31222 MEMB     262      POPC     C2       CTL1     0.170000       12.0110           0
     31223 MEMB     262      POPC     HS       HAL1     0.900000E-01   1.00800           0
     31224 MEMB     262      POPC     O21      OSL     -0.490000       15.9994           0
     31225 MEMB     262      POPC     C21      CL       0.900000       12.0110           0
     31226 MEMB     262      POPC     O22      OBL     -0.630000       15.9994           0
     31227 MEMB     262      POPC     C22      CTL2    -0.220000       12.0110           0
     31228 MEMB     262      POPC     H2R      HAL2     0.900000E-01   1.00800           0
     31229 MEMB     262      POPC     H2S      HAL2     0.900000E-01   1.00800           0
     31230 MEMB     262      POPC     C3       CTL2     0.800000E-01   12.0110           0
     31231 MEMB     262      POPC     HX       HAL2     0.900000E-01   1.00800           0
     31232 MEMB     262      POPC     HY       HAL2     0.900000E-01   1.00800           0
     31233 MEMB     262      POPC     O31      OSL     -0.490000       15.9994           0
     31234 MEMB     262      POPC     C31      CL       0.900000       12.0110           0
     31235 MEMB     262      POPC     O32      OBL     -0.630000       15.9994           0
     31236 MEMB     262      POPC     C32      CTL2    -0.220000       12.0110           0
     31237 MEMB     262      POPC     H2X      HAL2     0.900000E-01   1.00800           0
     31238 MEMB     262      POPC     H2Y      HAL2     0.900000E-01   1.00800           0
     31239 MEMB     262      POPC     C23      CTL2    -0.180000       12.0110           0
     31240 MEMB     262      POPC     H3R      HAL2     0.900000E-01   1.00800           0
     31241 MEMB     262      POPC     H3S      HAL2     0.900000E-01   1.00800           0
     31242 MEMB     262      POPC     C24      CTL2    -0.180000       12.0110           0
     31243 MEMB     262      POPC     H4R      HAL2     0.900000E-01   1.00800           0
     31244 MEMB     262      POPC     H4S      HAL2     0.900000E-01   1.00800           0
     31245 MEMB     262      POPC     C25      CTL2    -0.180000       12.0110           0
     31246 MEMB     262      POPC     H5R      HAL2     0.900000E-01   1.00800           0
     31247 MEMB     262      POPC     H5S      HAL2     0.900000E-01   1.00800           0
     31248 MEMB     262      POPC     C26      CTL2    -0.180000       12.0110           0
     31249 MEMB     262      POPC     H6R      HAL2     0.900000E-01   1.00800           0
     31250 MEMB     262      POPC     H6S      HAL2     0.900000E-01   1.00800           0
     31251 MEMB     262      POPC     C27      CTL2    -0.180000       12.0110           0
     31252 MEMB     262      POPC     H7R      HAL2     0.900000E-01   1.00800           0
     31253 MEMB     262      POPC     H7S      HAL2     0.900000E-01   1.00800           0
     31254 MEMB     262      POPC     C28      CTL2    -0.180000       12.0110           0
     31255 MEMB     262      POPC     H8R      HAL2     0.900000E-01   1.00800           0
     31256 MEMB     262      POPC     H8S      HAL2     0.900000E-01   1.00800           0
     31257 MEMB     262      POPC     C29      CEL1    -0.150000       12.0110           0
     31258 MEMB     262      POPC     H91      HEL1     0.150000       1.00800           0
     31259 MEMB     262      POPC     C210     CEL1    -0.150000       12.0110           0
     31260 MEMB     262      POPC     H101     HEL1     0.150000       1.00800           0
     31261 MEMB     262      POPC     C211     CTL2    -0.180000       12.0110           0
     31262 MEMB     262      POPC     H11R     HAL2     0.900000E-01   1.00800           0
     31263 MEMB     262      POPC     H11S     HAL2     0.900000E-01   1.00800           0
     31264 MEMB     262      POPC     C212     CTL2    -0.180000       12.0110           0
     31265 MEMB     262      POPC     H12R     HAL2     0.900000E-01   1.00800           0
     31266 MEMB     262      POPC     H12S     HAL2     0.900000E-01   1.00800           0
     31267 MEMB     262      POPC     C213     CTL2    -0.180000       12.0110           0
     31268 MEMB     262      POPC     H13R     HAL2     0.900000E-01   1.00800           0
     31269 MEMB     262      POPC     H13S     HAL2     0.900000E-01   1.00800           0
     31270 MEMB     262      POPC     C214     CTL2    -0.180000       12.0110           0
     31271 MEMB     262      POPC     H14R     HAL2     0.900000E-01   1.00800           0
     31272 MEMB     262      POPC     H14S     HAL2     0.900000E-01   1.00800           0
     31273 MEMB     262      POPC     C215     CTL2    -0.180000       12.0110           0
     31274 MEMB     262      POPC     H15R     HAL2     0.900000E-01   1.00800           0
     31275 MEMB     262      POPC     H15S     HAL2     0.900000E-01   1.00800           0
     31276 MEMB     262      POPC     C216     CTL2    -0.180000       12.0110           0
     31277 MEMB     262      POPC     H16R     HAL2     0.900000E-01   1.00800           0
     31278 MEMB     262      POPC     H16S     HAL2     0.900000E-01   1.00800           0
     31279 MEMB     262      POPC     C217     CTL2    -0.180000       12.0110           0
     31280 MEMB     262      POPC     H17R     HAL2     0.900000E-01   1.00800           0
     31281 MEMB     262      POPC     H17S     HAL2     0.900000E-01   1.00800           0
     31282 MEMB     262      POPC     C218     CTL3    -0.270000       12.0110           0
     31283 MEMB     262      POPC     H18R     HAL3     0.900000E-01   1.00800           0
     31284 MEMB     262      POPC     H18S     HAL3     0.900000E-01   1.00800           0
     31285 MEMB     262      POPC     H18T     HAL3     0.900000E-01   1.00800           0
     31286 MEMB     262      POPC     C33      CTL2    -0.180000       12.0110           0
     31287 MEMB     262      POPC     H3X      HAL2     0.900000E-01   1.00800           0
     31288 MEMB     262      POPC     H3Y      HAL2     0.900000E-01   1.00800           0
     31289 MEMB     262      POPC     C34      CTL2    -0.180000       12.0110           0
     31290 MEMB     262      POPC     H4X      HAL2     0.900000E-01   1.00800           0
     31291 MEMB     262      POPC     H4Y      HAL2     0.900000E-01   1.00800           0
     31292 MEMB     262      POPC     C35      CTL2    -0.180000       12.0110           0
     31293 MEMB     262      POPC     H5X      HAL2     0.900000E-01   1.00800           0
     31294 MEMB     262      POPC     H5Y      HAL2     0.900000E-01   1.00800           0
     31295 MEMB     262      POPC     C36      CTL2    -0.180000       12.0110           0
     31296 MEMB     262      POPC     H6X      HAL2     0.900000E-01   1.00800           0
     31297 MEMB     262      POPC     H6Y      HAL2     0.900000E-01   1.00800           0
     31298 MEMB     262      POPC     C37      CTL2    -0.180000       12.0110           0
     31299 MEMB     262      POPC     H7X      HAL2     0.900000E-01   1.00800           0
     31300 MEMB     262      POPC     H7Y      HAL2     0.900000E-01   1.00800           0
     31301 MEMB     262      POPC     C38      CTL2    -0.180000       12.0110           0
     31302 MEMB     262      POPC     H8X      HAL2     0.900000E-01   1.00800           0
     31303 MEMB     262      POPC     H8Y      HAL2     0.900000E-01   1.00800           0
     31304 MEMB     262      POPC     C39      CTL2    -0.180000       12.0110           0
     31305 MEMB     262      POPC     H9X      HAL2     0.900000E-01   1.00800           0
     31306 MEMB     262      POPC     H9Y      HAL2     0.900000E-01   1.00800           0
     31307 MEMB     262      POPC     C310     CTL2    -0.180000       12.0110           0
     31308 MEMB     262      POPC     H10X     HAL2     0.900000E-01   1.00800           0
     31309 MEMB     262      POPC     H10Y     HAL2     0.900000E-01   1.00800           0
     31310 MEMB     262      POPC     C311     CTL2    -0.180000       12.0110           0
     31311 MEMB     262      POPC     H11X     HAL2     0.900000E-01   1.00800           0
     31312 MEMB     262      POPC     H11Y     HAL2     0.900000E-01   1.00800           0
     31313 MEMB     262      POPC     C312     CTL2    -0.180000       12.0110           0
     31314 MEMB     262      POPC     H12X     HAL2     0.900000E-01   1.00800           0
     31315 MEMB     262      POPC     H12Y     HAL2     0.900000E-01   1.00800           0
     31316 MEMB     262      POPC     C313     CTL2    -0.180000       12.0110           0
     31317 MEMB     262      POPC     H13X     HAL2     0.900000E-01   1.00800           0
     31318 MEMB     262      POPC     H13Y     HAL2     0.900000E-01   1.00800           0
     31319 MEMB     262      POPC     C314     CTL2    -0.180000       12.0110           0
     31320 MEMB     262      POPC     H14X     HAL2     0.900000E-01   1.00800           0
     31321 MEMB     262      POPC     H14Y     HAL2     0.900000E-01   1.00800           0
     31322 MEMB     262      POPC     C315     CTL2    -0.180000       12.0110           0
     31323 MEMB     262      POPC     H15X     HAL2     0.900000E-01   1.00800           0
     31324 MEMB     262      POPC     H15Y     HAL2     0.900000E-01   1.00800           0
     31325 MEMB     262      POPC     C316     CTL3    -0.270000       12.0110           0
     31326 MEMB     262      POPC     H16X     HAL3     0.900000E-01   1.00800           0
     31327 MEMB     262      POPC     H16Y     HAL3     0.900000E-01   1.00800           0
     31328 MEMB     262      POPC     H16Z     HAL3     0.900000E-01   1.00800           0
     31329 MEMB     263      POPC     N        NTL     -0.600000       14.0070           0
     31330 MEMB     263      POPC     C12      CTL2    -0.100000       12.0110           0
     31331 MEMB     263      POPC     H12A     HL       0.250000       1.00800           0
     31332 MEMB     263      POPC     H12B     HL       0.250000       1.00800           0
     31333 MEMB     263      POPC     C13      CTL5    -0.350000       12.0110           0
     31334 MEMB     263      POPC     H13A     HL       0.250000       1.00800           0
     31335 MEMB     263      POPC     H13B     HL       0.250000       1.00800           0
     31336 MEMB     263      POPC     H13C     HL       0.250000       1.00800           0
     31337 MEMB     263      POPC     C14      CTL5    -0.350000       12.0110           0
     31338 MEMB     263      POPC     H14A     HL       0.250000       1.00800           0
     31339 MEMB     263      POPC     H14B     HL       0.250000       1.00800           0
     31340 MEMB     263      POPC     H14C     HL       0.250000       1.00800           0
     31341 MEMB     263      POPC     C15      CTL5    -0.350000       12.0110           0
     31342 MEMB     263      POPC     H15A     HL       0.250000       1.00800           0
     31343 MEMB     263      POPC     H15B     HL       0.250000       1.00800           0
     31344 MEMB     263      POPC     H15C     HL       0.250000       1.00800           0
     31345 MEMB     263      POPC     C11      CTL2    -0.800000E-01   12.0110           0
     31346 MEMB     263      POPC     H11A     HAL2     0.900000E-01   1.00800           0
     31347 MEMB     263      POPC     H11B     HAL2     0.900000E-01   1.00800           0
     31348 MEMB     263      POPC     P        PL        1.50000       30.9740           0
     31349 MEMB     263      POPC     O13      O2L     -0.780000       15.9994           0
     31350 MEMB     263      POPC     O14      O2L     -0.780000       15.9994           0
     31351 MEMB     263      POPC     O12      OSLP    -0.570000       15.9994           0
     31352 MEMB     263      POPC     O11      OSLP    -0.570000       15.9994           0
     31353 MEMB     263      POPC     C1       CTL2    -0.800000E-01   12.0110           0
     31354 MEMB     263      POPC     HA       HAL2     0.900000E-01   1.00800           0
     31355 MEMB     263      POPC     HB       HAL2     0.900000E-01   1.00800           0
     31356 MEMB     263      POPC     C2       CTL1     0.170000       12.0110           0
     31357 MEMB     263      POPC     HS       HAL1     0.900000E-01   1.00800           0
     31358 MEMB     263      POPC     O21      OSL     -0.490000       15.9994           0
     31359 MEMB     263      POPC     C21      CL       0.900000       12.0110           0
     31360 MEMB     263      POPC     O22      OBL     -0.630000       15.9994           0
     31361 MEMB     263      POPC     C22      CTL2    -0.220000       12.0110           0
     31362 MEMB     263      POPC     H2R      HAL2     0.900000E-01   1.00800           0
     31363 MEMB     263      POPC     H2S      HAL2     0.900000E-01   1.00800           0
     31364 MEMB     263      POPC     C3       CTL2     0.800000E-01   12.0110           0
     31365 MEMB     263      POPC     HX       HAL2     0.900000E-01   1.00800           0
     31366 MEMB     263      POPC     HY       HAL2     0.900000E-01   1.00800           0
     31367 MEMB     263      POPC     O31      OSL     -0.490000       15.9994           0
     31368 MEMB     263      POPC     C31      CL       0.900000       12.0110           0
     31369 MEMB     263      POPC     O32      OBL     -0.630000       15.9994           0
     31370 MEMB     263      POPC     C32      CTL2    -0.220000       12.0110           0
     31371 MEMB     263      POPC     H2X      HAL2     0.900000E-01   1.00800           0
     31372 MEMB     263      POPC     H2Y      HAL2     0.900000E-01   1.00800           0
     31373 MEMB     263      POPC     C23      CTL2    -0.180000       12.0110           0
     31374 MEMB     263      POPC     H3R      HAL2     0.900000E-01   1.00800           0
     31375 MEMB     263      POPC     H3S      HAL2     0.900000E-01   1.00800           0
     31376 MEMB     263      POPC     C24      CTL2    -0.180000       12.0110           0
     31377 MEMB     263      POPC     H4R      HAL2     0.900000E-01   1.00800           0
     31378 MEMB     263      POPC     H4S      HAL2     0.900000E-01   1.00800           0
     31379 MEMB     263      POPC     C25      CTL2    -0.180000       12.0110           0
     31380 MEMB     263      POPC     H5R      HAL2     0.900000E-01   1.00800           0
     31381 MEMB     263      POPC     H5S      HAL2     0.900000E-01   1.00800           0
     31382 MEMB     263      POPC     C26      CTL2    -0.180000       12.0110           0
     31383 MEMB     263      POPC     H6R      HAL2     0.900000E-01   1.00800           0
     31384 MEMB     263      POPC     H6S      HAL2     0.900000E-01   1.00800           0
     31385 MEMB     263      POPC     C27      CTL2    -0.180000       12.0110           0
     31386 MEMB     263      POPC     H7R      HAL2     0.900000E-01   1.00800           0
     31387 MEMB     263      POPC     H7S      HAL2     0.900000E-01   1.00800           0
     31388 MEMB     263      POPC     C28      CTL2    -0.180000       12.0110           0
     31389 MEMB     263      POPC     H8R      HAL2     0.900000E-01   1.00800           0
     31390 MEMB     263      POPC     H8S      HAL2     0.900000E-01   1.00800           0
     31391 MEMB     263      POPC     C29      CEL1    -0.150000       12.0110           0
     31392 MEMB     263      POPC     H91      HEL1     0.150000       1.00800           0
     31393 MEMB     263      POPC     C210     CEL1    -0.150000       12.0110           0
     31394 MEMB     263      POPC     H101     HEL1     0.150000       1.00800           0
     31395 MEMB     263      POPC     C211     CTL2    -0.180000       12.0110           0
     31396 MEMB     263      POPC     H11R     HAL2     0.900000E-01   1.00800           0
     31397 MEMB     263      POPC     H11S     HAL2     0.900000E-01   1.00800           0
     31398 MEMB     263      POPC     C212     CTL2    -0.180000       12.0110           0
     31399 MEMB     263      POPC     H12R     HAL2     0.900000E-01   1.00800           0
     31400 MEMB     263      POPC     H12S     HAL2     0.900000E-01   1.00800           0
     31401 MEMB     263      POPC     C213     CTL2    -0.180000       12.0110           0
     31402 MEMB     263      POPC     H13R     HAL2     0.900000E-01   1.00800           0
     31403 MEMB     263      POPC     H13S     HAL2     0.900000E-01   1.00800           0
     31404 MEMB     263      POPC     C214     CTL2    -0.180000       12.0110           0
     31405 MEMB     263      POPC     H14R     HAL2     0.900000E-01   1.00800           0
     31406 MEMB     263      POPC     H14S     HAL2     0.900000E-01   1.00800           0
     31407 MEMB     263      POPC     C215     CTL2    -0.180000       12.0110           0
     31408 MEMB     263      POPC     H15R     HAL2     0.900000E-01   1.00800           0
     31409 MEMB     263      POPC     H15S     HAL2     0.900000E-01   1.00800           0
     31410 MEMB     263      POPC     C216     CTL2    -0.180000       12.0110           0
     31411 MEMB     263      POPC     H16R     HAL2     0.900000E-01   1.00800           0
     31412 MEMB     263      POPC     H16S     HAL2     0.900000E-01   1.00800           0
     31413 MEMB     263      POPC     C217     CTL2    -0.180000       12.0110           0
     31414 MEMB     263      POPC     H17R     HAL2     0.900000E-01   1.00800           0
     31415 MEMB     263      POPC     H17S     HAL2     0.900000E-01   1.00800           0
     31416 MEMB     263      POPC     C218     CTL3    -0.270000       12.0110           0
     31417 MEMB     263      POPC     H18R     HAL3     0.900000E-01   1.00800           0
     31418 MEMB     263      POPC     H18S     HAL3     0.900000E-01   1.00800           0
     31419 MEMB     263      POPC     H18T     HAL3     0.900000E-01   1.00800           0
     31420 MEMB     263      POPC     C33      CTL2    -0.180000       12.0110           0
     31421 MEMB     263      POPC     H3X      HAL2     0.900000E-01   1.00800           0
     31422 MEMB     263      POPC     H3Y      HAL2     0.900000E-01   1.00800           0
     31423 MEMB     263      POPC     C34      CTL2    -0.180000       12.0110           0
     31424 MEMB     263      POPC     H4X      HAL2     0.900000E-01   1.00800           0
     31425 MEMB     263      POPC     H4Y      HAL2     0.900000E-01   1.00800           0
     31426 MEMB     263      POPC     C35      CTL2    -0.180000       12.0110           0
     31427 MEMB     263      POPC     H5X      HAL2     0.900000E-01   1.00800           0
     31428 MEMB     263      POPC     H5Y      HAL2     0.900000E-01   1.00800           0
     31429 MEMB     263      POPC     C36      CTL2    -0.180000       12.0110           0
     31430 MEMB     263      POPC     H6X      HAL2     0.900000E-01   1.00800           0
     31431 MEMB     263      POPC     H6Y      HAL2     0.900000E-01   1.00800           0
     31432 MEMB     263      POPC     C37      CTL2    -0.180000       12.0110           0
     31433 MEMB     263      POPC     H7X      HAL2     0.900000E-01   1.00800           0
     31434 MEMB     263      POPC     H7Y      HAL2     0.900000E-01   1.00800           0
     31435 MEMB     263      POPC     C38      CTL2    -0.180000       12.0110           0
     31436 MEMB     263      POPC     H8X      HAL2     0.900000E-01   1.00800           0
     31437 MEMB     263      POPC     H8Y      HAL2     0.900000E-01   1.00800           0
     31438 MEMB     263      POPC     C39      CTL2    -0.180000       12.0110           0
     31439 MEMB     263      POPC     H9X      HAL2     0.900000E-01   1.00800           0
     31440 MEMB     263      POPC     H9Y      HAL2     0.900000E-01   1.00800           0
     31441 MEMB     263      POPC     C310     CTL2    -0.180000       12.0110           0
     31442 MEMB     263      POPC     H10X     HAL2     0.900000E-01   1.00800           0
     31443 MEMB     263      POPC     H10Y     HAL2     0.900000E-01   1.00800           0
     31444 MEMB     263      POPC     C311     CTL2    -0.180000       12.0110           0
     31445 MEMB     263      POPC     H11X     HAL2     0.900000E-01   1.00800           0
     31446 MEMB     263      POPC     H11Y     HAL2     0.900000E-01   1.00800           0
     31447 MEMB     263      POPC     C312     CTL2    -0.180000       12.0110           0
     31448 MEMB     263      POPC     H12X     HAL2     0.900000E-01   1.00800           0
     31449 MEMB     263      POPC     H12Y     HAL2     0.900000E-01   1.00800           0
     31450 MEMB     263      POPC     C313     CTL2    -0.180000       12.0110           0
     31451 MEMB     263      POPC     H13X     HAL2     0.900000E-01   1.00800           0
     31452 MEMB     263      POPC     H13Y     HAL2     0.900000E-01   1.00800           0
     31453 MEMB     263      POPC     C314     CTL2    -0.180000       12.0110           0
     31454 MEMB     263      POPC     H14X     HAL2     0.900000E-01   1.00800           0
     31455 MEMB     263      POPC     H14Y     HAL2     0.900000E-01   1.00800           0
     31456 MEMB     263      POPC     C315     CTL2    -0.180000       12.0110           0
     31457 MEMB     263      POPC     H15X     HAL2     0.900000E-01   1.00800           0
     31458 MEMB     263      POPC     H15Y     HAL2     0.900000E-01   1.00800           0
     31459 MEMB     263      POPC     C316     CTL3    -0.270000       12.0110           0
     31460 MEMB     263      POPC     H16X     HAL3     0.900000E-01   1.00800           0
     31461 MEMB     263      POPC     H16Y     HAL3     0.900000E-01   1.00800           0
     31462 MEMB     263      POPC     H16Z     HAL3     0.900000E-01   1.00800           0
     31463 MEMB     264      POPC     N        NTL     -0.600000       14.0070           0
     31464 MEMB     264      POPC     C12      CTL2    -0.100000       12.0110           0
     31465 MEMB     264      POPC     H12A     HL       0.250000       1.00800           0
     31466 MEMB     264      POPC     H12B     HL       0.250000       1.00800           0
     31467 MEMB     264      POPC     C13      CTL5    -0.350000       12.0110           0
     31468 MEMB     264      POPC     H13A     HL       0.250000       1.00800           0
     31469 MEMB     264      POPC     H13B     HL       0.250000       1.00800           0
     31470 MEMB     264      POPC     H13C     HL       0.250000       1.00800           0
     31471 MEMB     264      POPC     C14      CTL5    -0.350000       12.0110           0
     31472 MEMB     264      POPC     H14A     HL       0.250000       1.00800           0
     31473 MEMB     264      POPC     H14B     HL       0.250000       1.00800           0
     31474 MEMB     264      POPC     H14C     HL       0.250000       1.00800           0
     31475 MEMB     264      POPC     C15      CTL5    -0.350000       12.0110           0
     31476 MEMB     264      POPC     H15A     HL       0.250000       1.00800           0
     31477 MEMB     264      POPC     H15B     HL       0.250000       1.00800           0
     31478 MEMB     264      POPC     H15C     HL       0.250000       1.00800           0
     31479 MEMB     264      POPC     C11      CTL2    -0.800000E-01   12.0110           0
     31480 MEMB     264      POPC     H11A     HAL2     0.900000E-01   1.00800           0
     31481 MEMB     264      POPC     H11B     HAL2     0.900000E-01   1.00800           0
     31482 MEMB     264      POPC     P        PL        1.50000       30.9740           0
     31483 MEMB     264      POPC     O13      O2L     -0.780000       15.9994           0
     31484 MEMB     264      POPC     O14      O2L     -0.780000       15.9994           0
     31485 MEMB     264      POPC     O12      OSLP    -0.570000       15.9994           0
     31486 MEMB     264      POPC     O11      OSLP    -0.570000       15.9994           0
     31487 MEMB     264      POPC     C1       CTL2    -0.800000E-01   12.0110           0
     31488 MEMB     264      POPC     HA       HAL2     0.900000E-01   1.00800           0
     31489 MEMB     264      POPC     HB       HAL2     0.900000E-01   1.00800           0
     31490 MEMB     264      POPC     C2       CTL1     0.170000       12.0110           0
     31491 MEMB     264      POPC     HS       HAL1     0.900000E-01   1.00800           0
     31492 MEMB     264      POPC     O21      OSL     -0.490000       15.9994           0
     31493 MEMB     264      POPC     C21      CL       0.900000       12.0110           0
     31494 MEMB     264      POPC     O22      OBL     -0.630000       15.9994           0
     31495 MEMB     264      POPC     C22      CTL2    -0.220000       12.0110           0
     31496 MEMB     264      POPC     H2R      HAL2     0.900000E-01   1.00800           0
     31497 MEMB     264      POPC     H2S      HAL2     0.900000E-01   1.00800           0
     31498 MEMB     264      POPC     C3       CTL2     0.800000E-01   12.0110           0
     31499 MEMB     264      POPC     HX       HAL2     0.900000E-01   1.00800           0
     31500 MEMB     264      POPC     HY       HAL2     0.900000E-01   1.00800           0
     31501 MEMB     264      POPC     O31      OSL     -0.490000       15.9994           0
     31502 MEMB     264      POPC     C31      CL       0.900000       12.0110           0
     31503 MEMB     264      POPC     O32      OBL     -0.630000       15.9994           0
     31504 MEMB     264      POPC     C32      CTL2    -0.220000       12.0110           0
     31505 MEMB     264      POPC     H2X      HAL2     0.900000E-01   1.00800           0
     31506 MEMB     264      POPC     H2Y      HAL2     0.900000E-01   1.00800           0
     31507 MEMB     264      POPC     C23      CTL2    -0.180000       12.0110           0
     31508 MEMB     264      POPC     H3R      HAL2     0.900000E-01   1.00800           0
     31509 MEMB     264      POPC     H3S      HAL2     0.900000E-01   1.00800           0
     31510 MEMB     264      POPC     C24      CTL2    -0.180000       12.0110           0
     31511 MEMB     264      POPC     H4R      HAL2     0.900000E-01   1.00800           0
     31512 MEMB     264      POPC     H4S      HAL2     0.900000E-01   1.00800           0
     31513 MEMB     264      POPC     C25      CTL2    -0.180000       12.0110           0
     31514 MEMB     264      POPC     H5R      HAL2     0.900000E-01   1.00800           0
     31515 MEMB     264      POPC     H5S      HAL2     0.900000E-01   1.00800           0
     31516 MEMB     264      POPC     C26      CTL2    -0.180000       12.0110           0
     31517 MEMB     264      POPC     H6R      HAL2     0.900000E-01   1.00800           0
     31518 MEMB     264      POPC     H6S      HAL2     0.900000E-01   1.00800           0
     31519 MEMB     264      POPC     C27      CTL2    -0.180000       12.0110           0
     31520 MEMB     264      POPC     H7R      HAL2     0.900000E-01   1.00800           0
     31521 MEMB     264      POPC     H7S      HAL2     0.900000E-01   1.00800           0
     31522 MEMB     264      POPC     C28      CTL2    -0.180000       12.0110           0
     31523 MEMB     264      POPC     H8R      HAL2     0.900000E-01   1.00800           0
     31524 MEMB     264      POPC     H8S      HAL2     0.900000E-01   1.00800           0
     31525 MEMB     264      POPC     C29      CEL1    -0.150000       12.0110           0
     31526 MEMB     264      POPC     H91      HEL1     0.150000       1.00800           0
     31527 MEMB     264      POPC     C210     CEL1    -0.150000       12.0110           0
     31528 MEMB     264      POPC     H101     HEL1     0.150000       1.00800           0
     31529 MEMB     264      POPC     C211     CTL2    -0.180000       12.0110           0
     31530 MEMB     264      POPC     H11R     HAL2     0.900000E-01   1.00800           0
     31531 MEMB     264      POPC     H11S     HAL2     0.900000E-01   1.00800           0
     31532 MEMB     264      POPC     C212     CTL2    -0.180000       12.0110           0
     31533 MEMB     264      POPC     H12R     HAL2     0.900000E-01   1.00800           0
     31534 MEMB     264      POPC     H12S     HAL2     0.900000E-01   1.00800           0
     31535 MEMB     264      POPC     C213     CTL2    -0.180000       12.0110           0
     31536 MEMB     264      POPC     H13R     HAL2     0.900000E-01   1.00800           0
     31537 MEMB     264      POPC     H13S     HAL2     0.900000E-01   1.00800           0
     31538 MEMB     264      POPC     C214     CTL2    -0.180000       12.0110           0
     31539 MEMB     264      POPC     H14R     HAL2     0.900000E-01   1.00800           0
     31540 MEMB     264      POPC     H14S     HAL2     0.900000E-01   1.00800           0
     31541 MEMB     264      POPC     C215     CTL2    -0.180000       12.0110           0
     31542 MEMB     264      POPC     H15R     HAL2     0.900000E-01   1.00800           0
     31543 MEMB     264      POPC     H15S     HAL2     0.900000E-01   1.00800           0
     31544 MEMB     264      POPC     C216     CTL2    -0.180000       12.0110           0
     31545 MEMB     264      POPC     H16R     HAL2     0.900000E-01   1.00800           0
     31546 MEMB     264      POPC     H16S     HAL2     0.900000E-01   1.00800           0
     31547 MEMB     264      POPC     C217     CTL2    -0.180000       12.0110           0
     31548 MEMB     264      POPC     H17R     HAL2     0.900000E-01   1.00800           0
     31549 MEMB     264      POPC     H17S     HAL2     0.900000E-01   1.00800           0
     31550 MEMB     264      POPC     C218     CTL3    -0.270000       12.0110           0
     31551 MEMB     264      POPC     H18R     HAL3     0.900000E-01   1.00800           0
     31552 MEMB     264      POPC     H18S     HAL3     0.900000E-01   1.00800           0
     31553 MEMB     264      POPC     H18T     HAL3     0.900000E-01   1.00800           0
     31554 MEMB     264      POPC     C33      CTL2    -0.180000       12.0110           0
     31555 MEMB     264      POPC     H3X      HAL2     0.900000E-01   1.00800           0
     31556 MEMB     264      POPC     H3Y      HAL2     0.900000E-01   1.00800           0
     31557 MEMB     264      POPC     C34      CTL2    -0.180000       12.0110           0
     31558 MEMB     264      POPC     H4X      HAL2     0.900000E-01   1.00800           0
     31559 MEMB     264      POPC     H4Y      HAL2     0.900000E-01   1.00800           0
     31560 MEMB     264      POPC     C35      CTL2    -0.180000       12.0110           0
     31561 MEMB     264      POPC     H5X      HAL2     0.900000E-01   1.00800           0
     31562 MEMB     264      POPC     H5Y      HAL2     0.900000E-01   1.00800           0
     31563 MEMB     264      POPC     C36      CTL2    -0.180000       12.0110           0
     31564 MEMB     264      POPC     H6X      HAL2     0.900000E-01   1.00800           0
     31565 MEMB     264      POPC     H6Y      HAL2     0.900000E-01   1.00800           0
     31566 MEMB     264      POPC     C37      CTL2    -0.180000       12.0110           0
     31567 MEMB     264      POPC     H7X      HAL2     0.900000E-01   1.00800           0
     31568 MEMB     264      POPC     H7Y      HAL2     0.900000E-01   1.00800           0
     31569 MEMB     264      POPC     C38      CTL2    -0.180000       12.0110           0
     31570 MEMB     264      POPC     H8X      HAL2     0.900000E-01   1.00800           0
     31571 MEMB     264      POPC     H8Y      HAL2     0.900000E-01   1.00800           0
     31572 MEMB     264      POPC     C39      CTL2    -0.180000       12.0110           0
     31573 MEMB     264      POPC     H9X      HAL2     0.900000E-01   1.00800           0
     31574 MEMB     264      POPC     H9Y      HAL2     0.900000E-01   1.00800           0
     31575 MEMB     264      POPC     C310     CTL2    -0.180000       12.0110           0
     31576 MEMB     264      POPC     H10X     HAL2     0.900000E-01   1.00800           0
     31577 MEMB     264      POPC     H10Y     HAL2     0.900000E-01   1.00800           0
     31578 MEMB     264      POPC     C311     CTL2    -0.180000       12.0110           0
     31579 MEMB     264      POPC     H11X     HAL2     0.900000E-01   1.00800           0
     31580 MEMB     264      POPC     H11Y     HAL2     0.900000E-01   1.00800           0
     31581 MEMB     264      POPC     C312     CTL2    -0.180000       12.0110           0
     31582 MEMB     264      POPC     H12X     HAL2     0.900000E-01   1.00800           0
     31583 MEMB     264      POPC     H12Y     HAL2     0.900000E-01   1.00800           0
     31584 MEMB     264      POPC     C313     CTL2    -0.180000       12.0110           0
     31585 MEMB     264      POPC     H13X     HAL2     0.900000E-01   1.00800           0
     31586 MEMB     264      POPC     H13Y     HAL2     0.900000E-01   1.00800           0
     31587 MEMB     264      POPC     C314     CTL2    -0.180000       12.0110           0
     31588 MEMB     264      POPC     H14X     HAL2     0.900000E-01   1.00800           0
     31589 MEMB     264      POPC     H14Y     HAL2     0.900000E-01   1.00800           0
     31590 MEMB     264      POPC     C315     CTL2    -0.180000       12.0110           0
     31591 MEMB     264      POPC     H15X     HAL2     0.900000E-01   1.00800           0
     31592 MEMB     264      POPC     H15Y     HAL2     0.900000E-01   1.00800           0
     31593 MEMB     264      POPC     C316     CTL3    -0.270000       12.0110           0
     31594 MEMB     264      POPC     H16X     HAL3     0.900000E-01   1.00800           0
     31595 MEMB     264      POPC     H16Y     HAL3     0.900000E-01   1.00800           0
     31596 MEMB     264      POPC     H16Z     HAL3     0.900000E-01   1.00800           0
     31597 MEMB     265      POPC     N        NTL     -0.600000       14.0070           0
     31598 MEMB     265      POPC     C12      CTL2    -0.100000       12.0110           0
     31599 MEMB     265      POPC     H12A     HL       0.250000       1.00800           0
     31600 MEMB     265      POPC     H12B     HL       0.250000       1.00800           0
     31601 MEMB     265      POPC     C13      CTL5    -0.350000       12.0110           0
     31602 MEMB     265      POPC     H13A     HL       0.250000       1.00800           0
     31603 MEMB     265      POPC     H13B     HL       0.250000       1.00800           0
     31604 MEMB     265      POPC     H13C     HL       0.250000       1.00800           0
     31605 MEMB     265      POPC     C14      CTL5    -0.350000       12.0110           0
     31606 MEMB     265      POPC     H14A     HL       0.250000       1.00800           0
     31607 MEMB     265      POPC     H14B     HL       0.250000       1.00800           0
     31608 MEMB     265      POPC     H14C     HL       0.250000       1.00800           0
     31609 MEMB     265      POPC     C15      CTL5    -0.350000       12.0110           0
     31610 MEMB     265      POPC     H15A     HL       0.250000       1.00800           0
     31611 MEMB     265      POPC     H15B     HL       0.250000       1.00800           0
     31612 MEMB     265      POPC     H15C     HL       0.250000       1.00800           0
     31613 MEMB     265      POPC     C11      CTL2    -0.800000E-01   12.0110           0
     31614 MEMB     265      POPC     H11A     HAL2     0.900000E-01   1.00800           0
     31615 MEMB     265      POPC     H11B     HAL2     0.900000E-01   1.00800           0
     31616 MEMB     265      POPC     P        PL        1.50000       30.9740           0
     31617 MEMB     265      POPC     O13      O2L     -0.780000       15.9994           0
     31618 MEMB     265      POPC     O14      O2L     -0.780000       15.9994           0
     31619 MEMB     265      POPC     O12      OSLP    -0.570000       15.9994           0
     31620 MEMB     265      POPC     O11      OSLP    -0.570000       15.9994           0
     31621 MEMB     265      POPC     C1       CTL2    -0.800000E-01   12.0110           0
     31622 MEMB     265      POPC     HA       HAL2     0.900000E-01   1.00800           0
     31623 MEMB     265      POPC     HB       HAL2     0.900000E-01   1.00800           0
     31624 MEMB     265      POPC     C2       CTL1     0.170000       12.0110           0
     31625 MEMB     265      POPC     HS       HAL1     0.900000E-01   1.00800           0
     31626 MEMB     265      POPC     O21      OSL     -0.490000       15.9994           0
     31627 MEMB     265      POPC     C21      CL       0.900000       12.0110           0
     31628 MEMB     265      POPC     O22      OBL     -0.630000       15.9994           0
     31629 MEMB     265      POPC     C22      CTL2    -0.220000       12.0110           0
     31630 MEMB     265      POPC     H2R      HAL2     0.900000E-01   1.00800           0
     31631 MEMB     265      POPC     H2S      HAL2     0.900000E-01   1.00800           0
     31632 MEMB     265      POPC     C3       CTL2     0.800000E-01   12.0110           0
     31633 MEMB     265      POPC     HX       HAL2     0.900000E-01   1.00800           0
     31634 MEMB     265      POPC     HY       HAL2     0.900000E-01   1.00800           0
     31635 MEMB     265      POPC     O31      OSL     -0.490000       15.9994           0
     31636 MEMB     265      POPC     C31      CL       0.900000       12.0110           0
     31637 MEMB     265      POPC     O32      OBL     -0.630000       15.9994           0
     31638 MEMB     265      POPC     C32      CTL2    -0.220000       12.0110           0
     31639 MEMB     265      POPC     H2X      HAL2     0.900000E-01   1.00800           0
     31640 MEMB     265      POPC     H2Y      HAL2     0.900000E-01   1.00800           0
     31641 MEMB     265      POPC     C23      CTL2    -0.180000       12.0110           0
     31642 MEMB     265      POPC     H3R      HAL2     0.900000E-01   1.00800           0
     31643 MEMB     265      POPC     H3S      HAL2     0.900000E-01   1.00800           0
     31644 MEMB     265      POPC     C24      CTL2    -0.180000       12.0110           0
     31645 MEMB     265      POPC     H4R      HAL2     0.900000E-01   1.00800           0
     31646 MEMB     265      POPC     H4S      HAL2     0.900000E-01   1.00800           0
     31647 MEMB     265      POPC     C25      CTL2    -0.180000       12.0110           0
     31648 MEMB     265      POPC     H5R      HAL2     0.900000E-01   1.00800           0
     31649 MEMB     265      POPC     H5S      HAL2     0.900000E-01   1.00800           0
     31650 MEMB     265      POPC     C26      CTL2    -0.180000       12.0110           0
     31651 MEMB     265      POPC     H6R      HAL2     0.900000E-01   1.00800           0
     31652 MEMB     265      POPC     H6S      HAL2     0.900000E-01   1.00800           0
     31653 MEMB     265      POPC     C27      CTL2    -0.180000       12.0110           0
     31654 MEMB     265      POPC     H7R      HAL2     0.900000E-01   1.00800           0
     31655 MEMB     265      POPC     H7S      HAL2     0.900000E-01   1.00800           0
     31656 MEMB     265      POPC     C28      CTL2    -0.180000       12.0110           0
     31657 MEMB     265      POPC     H8R      HAL2     0.900000E-01   1.00800           0
     31658 MEMB     265      POPC     H8S      HAL2     0.900000E-01   1.00800           0
     31659 MEMB     265      POPC     C29      CEL1    -0.150000       12.0110           0
     31660 MEMB     265      POPC     H91      HEL1     0.150000       1.00800           0
     31661 MEMB     265      POPC     C210     CEL1    -0.150000       12.0110           0
     31662 MEMB     265      POPC     H101     HEL1     0.150000       1.00800           0
     31663 MEMB     265      POPC     C211     CTL2    -0.180000       12.0110           0
     31664 MEMB     265      POPC     H11R     HAL2     0.900000E-01   1.00800           0
     31665 MEMB     265      POPC     H11S     HAL2     0.900000E-01   1.00800           0
     31666 MEMB     265      POPC     C212     CTL2    -0.180000       12.0110           0
     31667 MEMB     265      POPC     H12R     HAL2     0.900000E-01   1.00800           0
     31668 MEMB     265      POPC     H12S     HAL2     0.900000E-01   1.00800           0
     31669 MEMB     265      POPC     C213     CTL2    -0.180000       12.0110           0
     31670 MEMB     265      POPC     H13R     HAL2     0.900000E-01   1.00800           0
     31671 MEMB     265      POPC     H13S     HAL2     0.900000E-01   1.00800           0
     31672 MEMB     265      POPC     C214     CTL2    -0.180000       12.0110           0
     31673 MEMB     265      POPC     H14R     HAL2     0.900000E-01   1.00800           0
     31674 MEMB     265      POPC     H14S     HAL2     0.900000E-01   1.00800           0
     31675 MEMB     265      POPC     C215     CTL2    -0.180000       12.0110           0
     31676 MEMB     265      POPC     H15R     HAL2     0.900000E-01   1.00800           0
     31677 MEMB     265      POPC     H15S     HAL2     0.900000E-01   1.00800           0
     31678 MEMB     265      POPC     C216     CTL2    -0.180000       12.0110           0
     31679 MEMB     265      POPC     H16R     HAL2     0.900000E-01   1.00800           0
     31680 MEMB     265      POPC     H16S     HAL2     0.900000E-01   1.00800           0
     31681 MEMB     265      POPC     C217     CTL2    -0.180000       12.0110           0
     31682 MEMB     265      POPC     H17R     HAL2     0.900000E-01   1.00800           0
     31683 MEMB     265      POPC     H17S     HAL2     0.900000E-01   1.00800           0
     31684 MEMB     265      POPC     C218     CTL3    -0.270000       12.0110           0
     31685 MEMB     265      POPC     H18R     HAL3     0.900000E-01   1.00800           0
     31686 MEMB     265      POPC     H18S     HAL3     0.900000E-01   1.00800           0
     31687 MEMB     265      POPC     H18T     HAL3     0.900000E-01   1.00800           0
     31688 MEMB     265      POPC     C33      CTL2    -0.180000       12.0110           0
     31689 MEMB     265      POPC     H3X      HAL2     0.900000E-01   1.00800           0
     31690 MEMB     265      POPC     H3Y      HAL2     0.900000E-01   1.00800           0
     31691 MEMB     265      POPC     C34      CTL2    -0.180000       12.0110           0
     31692 MEMB     265      POPC     H4X      HAL2     0.900000E-01   1.00800           0
     31693 MEMB     265      POPC     H4Y      HAL2     0.900000E-01   1.00800           0
     31694 MEMB     265      POPC     C35      CTL2    -0.180000       12.0110           0
     31695 MEMB     265      POPC     H5X      HAL2     0.900000E-01   1.00800           0
     31696 MEMB     265      POPC     H5Y      HAL2     0.900000E-01   1.00800           0
     31697 MEMB     265      POPC     C36      CTL2    -0.180000       12.0110           0
     31698 MEMB     265      POPC     H6X      HAL2     0.900000E-01   1.00800           0
     31699 MEMB     265      POPC     H6Y      HAL2     0.900000E-01   1.00800           0
     31700 MEMB     265      POPC     C37      CTL2    -0.180000       12.0110           0
     31701 MEMB     265      POPC     H7X      HAL2     0.900000E-01   1.00800           0
     31702 MEMB     265      POPC     H7Y      HAL2     0.900000E-01   1.00800           0
     31703 MEMB     265      POPC     C38      CTL2    -0.180000       12.0110           0
     31704 MEMB     265      POPC     H8X      HAL2     0.900000E-01   1.00800           0
     31705 MEMB     265      POPC     H8Y      HAL2     0.900000E-01   1.00800           0
     31706 MEMB     265      POPC     C39      CTL2    -0.180000       12.0110           0
     31707 MEMB     265      POPC     H9X      HAL2     0.900000E-01   1.00800           0
     31708 MEMB     265      POPC     H9Y      HAL2     0.900000E-01   1.00800           0
     31709 MEMB     265      POPC     C310     CTL2    -0.180000       12.0110           0
     31710 MEMB     265      POPC     H10X     HAL2     0.900000E-01   1.00800           0
     31711 MEMB     265      POPC     H10Y     HAL2     0.900000E-01   1.00800           0
     31712 MEMB     265      POPC     C311     CTL2    -0.180000       12.0110           0
     31713 MEMB     265      POPC     H11X     HAL2     0.900000E-01   1.00800           0
     31714 MEMB     265      POPC     H11Y     HAL2     0.900000E-01   1.00800           0
     31715 MEMB     265      POPC     C312     CTL2    -0.180000       12.0110           0
     31716 MEMB     265      POPC     H12X     HAL2     0.900000E-01   1.00800           0
     31717 MEMB     265      POPC     H12Y     HAL2     0.900000E-01   1.00800           0
     31718 MEMB     265      POPC     C313     CTL2    -0.180000       12.0110           0
     31719 MEMB     265      POPC     H13X     HAL2     0.900000E-01   1.00800           0
     31720 MEMB     265      POPC     H13Y     HAL2     0.900000E-01   1.00800           0
     31721 MEMB     265      POPC     C314     CTL2    -0.180000       12.0110           0
     31722 MEMB     265      POPC     H14X     HAL2     0.900000E-01   1.00800           0
     31723 MEMB     265      POPC     H14Y     HAL2     0.900000E-01   1.00800           0
     31724 MEMB     265      POPC     C315     CTL2    -0.180000       12.0110           0
     31725 MEMB     265      POPC     H15X     HAL2     0.900000E-01   1.00800           0
     31726 MEMB     265      POPC     H15Y     HAL2     0.900000E-01   1.00800           0
     31727 MEMB     265      POPC     C316     CTL3    -0.270000       12.0110           0
     31728 MEMB     265      POPC     H16X     HAL3     0.900000E-01   1.00800           0
     31729 MEMB     265      POPC     H16Y     HAL3     0.900000E-01   1.00800           0
     31730 MEMB     265      POPC     H16Z     HAL3     0.900000E-01   1.00800           0
     31731 MEMB     266      POPC     N        NTL     -0.600000       14.0070           0
     31732 MEMB     266      POPC     C12      CTL2    -0.100000       12.0110           0
     31733 MEMB     266      POPC     H12A     HL       0.250000       1.00800           0
     31734 MEMB     266      POPC     H12B     HL       0.250000       1.00800           0
     31735 MEMB     266      POPC     C13      CTL5    -0.350000       12.0110           0
     31736 MEMB     266      POPC     H13A     HL       0.250000       1.00800           0
     31737 MEMB     266      POPC     H13B     HL       0.250000       1.00800           0
     31738 MEMB     266      POPC     H13C     HL       0.250000       1.00800           0
     31739 MEMB     266      POPC     C14      CTL5    -0.350000       12.0110           0
     31740 MEMB     266      POPC     H14A     HL       0.250000       1.00800           0
     31741 MEMB     266      POPC     H14B     HL       0.250000       1.00800           0
     31742 MEMB     266      POPC     H14C     HL       0.250000       1.00800           0
     31743 MEMB     266      POPC     C15      CTL5    -0.350000       12.0110           0
     31744 MEMB     266      POPC     H15A     HL       0.250000       1.00800           0
     31745 MEMB     266      POPC     H15B     HL       0.250000       1.00800           0
     31746 MEMB     266      POPC     H15C     HL       0.250000       1.00800           0
     31747 MEMB     266      POPC     C11      CTL2    -0.800000E-01   12.0110           0
     31748 MEMB     266      POPC     H11A     HAL2     0.900000E-01   1.00800           0
     31749 MEMB     266      POPC     H11B     HAL2     0.900000E-01   1.00800           0
     31750 MEMB     266      POPC     P        PL        1.50000       30.9740           0
     31751 MEMB     266      POPC     O13      O2L     -0.780000       15.9994           0
     31752 MEMB     266      POPC     O14      O2L     -0.780000       15.9994           0
     31753 MEMB     266      POPC     O12      OSLP    -0.570000       15.9994           0
     31754 MEMB     266      POPC     O11      OSLP    -0.570000       15.9994           0
     31755 MEMB     266      POPC     C1       CTL2    -0.800000E-01   12.0110           0
     31756 MEMB     266      POPC     HA       HAL2     0.900000E-01   1.00800           0
     31757 MEMB     266      POPC     HB       HAL2     0.900000E-01   1.00800           0
     31758 MEMB     266      POPC     C2       CTL1     0.170000       12.0110           0
     31759 MEMB     266      POPC     HS       HAL1     0.900000E-01   1.00800           0
     31760 MEMB     266      POPC     O21      OSL     -0.490000       15.9994           0
     31761 MEMB     266      POPC     C21      CL       0.900000       12.0110           0
     31762 MEMB     266      POPC     O22      OBL     -0.630000       15.9994           0
     31763 MEMB     266      POPC     C22      CTL2    -0.220000       12.0110           0
     31764 MEMB     266      POPC     H2R      HAL2     0.900000E-01   1.00800           0
     31765 MEMB     266      POPC     H2S      HAL2     0.900000E-01   1.00800           0
     31766 MEMB     266      POPC     C3       CTL2     0.800000E-01   12.0110           0
     31767 MEMB     266      POPC     HX       HAL2     0.900000E-01   1.00800           0
     31768 MEMB     266      POPC     HY       HAL2     0.900000E-01   1.00800           0
     31769 MEMB     266      POPC     O31      OSL     -0.490000       15.9994           0
     31770 MEMB     266      POPC     C31      CL       0.900000       12.0110           0
     31771 MEMB     266      POPC     O32      OBL     -0.630000       15.9994           0
     31772 MEMB     266      POPC     C32      CTL2    -0.220000       12.0110           0
     31773 MEMB     266      POPC     H2X      HAL2     0.900000E-01   1.00800           0
     31774 MEMB     266      POPC     H2Y      HAL2     0.900000E-01   1.00800           0
     31775 MEMB     266      POPC     C23      CTL2    -0.180000       12.0110           0
     31776 MEMB     266      POPC     H3R      HAL2     0.900000E-01   1.00800           0
     31777 MEMB     266      POPC     H3S      HAL2     0.900000E-01   1.00800           0
     31778 MEMB     266      POPC     C24      CTL2    -0.180000       12.0110           0
     31779 MEMB     266      POPC     H4R      HAL2     0.900000E-01   1.00800           0
     31780 MEMB     266      POPC     H4S      HAL2     0.900000E-01   1.00800           0
     31781 MEMB     266      POPC     C25      CTL2    -0.180000       12.0110           0
     31782 MEMB     266      POPC     H5R      HAL2     0.900000E-01   1.00800           0
     31783 MEMB     266      POPC     H5S      HAL2     0.900000E-01   1.00800           0
     31784 MEMB     266      POPC     C26      CTL2    -0.180000       12.0110           0
     31785 MEMB     266      POPC     H6R      HAL2     0.900000E-01   1.00800           0
     31786 MEMB     266      POPC     H6S      HAL2     0.900000E-01   1.00800           0
     31787 MEMB     266      POPC     C27      CTL2    -0.180000       12.0110           0
     31788 MEMB     266      POPC     H7R      HAL2     0.900000E-01   1.00800           0
     31789 MEMB     266      POPC     H7S      HAL2     0.900000E-01   1.00800           0
     31790 MEMB     266      POPC     C28      CTL2    -0.180000       12.0110           0
     31791 MEMB     266      POPC     H8R      HAL2     0.900000E-01   1.00800           0
     31792 MEMB     266      POPC     H8S      HAL2     0.900000E-01   1.00800           0
     31793 MEMB     266      POPC     C29      CEL1    -0.150000       12.0110           0
     31794 MEMB     266      POPC     H91      HEL1     0.150000       1.00800           0
     31795 MEMB     266      POPC     C210     CEL1    -0.150000       12.0110           0
     31796 MEMB     266      POPC     H101     HEL1     0.150000       1.00800           0
     31797 MEMB     266      POPC     C211     CTL2    -0.180000       12.0110           0
     31798 MEMB     266      POPC     H11R     HAL2     0.900000E-01   1.00800           0
     31799 MEMB     266      POPC     H11S     HAL2     0.900000E-01   1.00800           0
     31800 MEMB     266      POPC     C212     CTL2    -0.180000       12.0110           0
     31801 MEMB     266      POPC     H12R     HAL2     0.900000E-01   1.00800           0
     31802 MEMB     266      POPC     H12S     HAL2     0.900000E-01   1.00800           0
     31803 MEMB     266      POPC     C213     CTL2    -0.180000       12.0110           0
     31804 MEMB     266      POPC     H13R     HAL2     0.900000E-01   1.00800           0
     31805 MEMB     266      POPC     H13S     HAL2     0.900000E-01   1.00800           0
     31806 MEMB     266      POPC     C214     CTL2    -0.180000       12.0110           0
     31807 MEMB     266      POPC     H14R     HAL2     0.900000E-01   1.00800           0
     31808 MEMB     266      POPC     H14S     HAL2     0.900000E-01   1.00800           0
     31809 MEMB     266      POPC     C215     CTL2    -0.180000       12.0110           0
     31810 MEMB     266      POPC     H15R     HAL2     0.900000E-01   1.00800           0
     31811 MEMB     266      POPC     H15S     HAL2     0.900000E-01   1.00800           0
     31812 MEMB     266      POPC     C216     CTL2    -0.180000       12.0110           0
     31813 MEMB     266      POPC     H16R     HAL2     0.900000E-01   1.00800           0
     31814 MEMB     266      POPC     H16S     HAL2     0.900000E-01   1.00800           0
     31815 MEMB     266      POPC     C217     CTL2    -0.180000       12.0110           0
     31816 MEMB     266      POPC     H17R     HAL2     0.900000E-01   1.00800           0
     31817 MEMB     266      POPC     H17S     HAL2     0.900000E-01   1.00800           0
     31818 MEMB     266      POPC     C218     CTL3    -0.270000       12.0110           0
     31819 MEMB     266      POPC     H18R     HAL3     0.900000E-01   1.00800           0
     31820 MEMB     266      POPC     H18S     HAL3     0.900000E-01   1.00800           0
     31821 MEMB     266      POPC     H18T     HAL3     0.900000E-01   1.00800           0
     31822 MEMB     266      POPC     C33      CTL2    -0.180000       12.0110           0
     31823 MEMB     266      POPC     H3X      HAL2     0.900000E-01   1.00800           0
     31824 MEMB     266      POPC     H3Y      HAL2     0.900000E-01   1.00800           0
     31825 MEMB     266      POPC     C34      CTL2    -0.180000       12.0110           0
     31826 MEMB     266      POPC     H4X      HAL2     0.900000E-01   1.00800           0
     31827 MEMB     266      POPC     H4Y      HAL2     0.900000E-01   1.00800           0
     31828 MEMB     266      POPC     C35      CTL2    -0.180000       12.0110           0
     31829 MEMB     266      POPC     H5X      HAL2     0.900000E-01   1.00800           0
     31830 MEMB     266      POPC     H5Y      HAL2     0.900000E-01   1.00800           0
     31831 MEMB     266      POPC     C36      CTL2    -0.180000       12.0110           0
     31832 MEMB     266      POPC     H6X      HAL2     0.900000E-01   1.00800           0
     31833 MEMB     266      POPC     H6Y      HAL2     0.900000E-01   1.00800           0
     31834 MEMB     266      POPC     C37      CTL2    -0.180000       12.0110           0
     31835 MEMB     266      POPC     H7X      HAL2     0.900000E-01   1.00800           0
     31836 MEMB     266      POPC     H7Y      HAL2     0.900000E-01   1.00800           0
     31837 MEMB     266      POPC     C38      CTL2    -0.180000       12.0110           0
     31838 MEMB     266      POPC     H8X      HAL2     0.900000E-01   1.00800           0
     31839 MEMB     266      POPC     H8Y      HAL2     0.900000E-01   1.00800           0
     31840 MEMB     266      POPC     C39      CTL2    -0.180000       12.0110           0
     31841 MEMB     266      POPC     H9X      HAL2     0.900000E-01   1.00800           0
     31842 MEMB     266      POPC     H9Y      HAL2     0.900000E-01   1.00800           0
     31843 MEMB     266      POPC     C310     CTL2    -0.180000       12.0110           0
     31844 MEMB     266      POPC     H10X     HAL2     0.900000E-01   1.00800           0
     31845 MEMB     266      POPC     H10Y     HAL2     0.900000E-01   1.00800           0
     31846 MEMB     266      POPC     C311     CTL2    -0.180000       12.0110           0
     31847 MEMB     266      POPC     H11X     HAL2     0.900000E-01   1.00800           0
     31848 MEMB     266      POPC     H11Y     HAL2     0.900000E-01   1.00800           0
     31849 MEMB     266      POPC     C312     CTL2    -0.180000       12.0110           0
     31850 MEMB     266      POPC     H12X     HAL2     0.900000E-01   1.00800           0
     31851 MEMB     266      POPC     H12Y     HAL2     0.900000E-01   1.00800           0
     31852 MEMB     266      POPC     C313     CTL2    -0.180000       12.0110           0
     31853 MEMB     266      POPC     H13X     HAL2     0.900000E-01   1.00800           0
     31854 MEMB     266      POPC     H13Y     HAL2     0.900000E-01   1.00800           0
     31855 MEMB     266      POPC     C314     CTL2    -0.180000       12.0110           0
     31856 MEMB     266      POPC     H14X     HAL2     0.900000E-01   1.00800           0
     31857 MEMB     266      POPC     H14Y     HAL2     0.900000E-01   1.00800           0
     31858 MEMB     266      POPC     C315     CTL2    -0.180000       12.0110           0
     31859 MEMB     266      POPC     H15X     HAL2     0.900000E-01   1.00800           0
     31860 MEMB     266      POPC     H15Y     HAL2     0.900000E-01   1.00800           0
     31861 MEMB     266      POPC     C316     CTL3    -0.270000       12.0110           0
     31862 MEMB     266      POPC     H16X     HAL3     0.900000E-01   1.00800           0
     31863 MEMB     266      POPC     H16Y     HAL3     0.900000E-01   1.00800           0
     31864 MEMB     266      POPC     H16Z     HAL3     0.900000E-01   1.00800           0
     31865 MEMB     267      POPC     N        NTL     -0.600000       14.0070           0
     31866 MEMB     267      POPC     C12      CTL2    -0.100000       12.0110           0
     31867 MEMB     267      POPC     H12A     HL       0.250000       1.00800           0
     31868 MEMB     267      POPC     H12B     HL       0.250000       1.00800           0
     31869 MEMB     267      POPC     C13      CTL5    -0.350000       12.0110           0
     31870 MEMB     267      POPC     H13A     HL       0.250000       1.00800           0
     31871 MEMB     267      POPC     H13B     HL       0.250000       1.00800           0
     31872 MEMB     267      POPC     H13C     HL       0.250000       1.00800           0
     31873 MEMB     267      POPC     C14      CTL5    -0.350000       12.0110           0
     31874 MEMB     267      POPC     H14A     HL       0.250000       1.00800           0
     31875 MEMB     267      POPC     H14B     HL       0.250000       1.00800           0
     31876 MEMB     267      POPC     H14C     HL       0.250000       1.00800           0
     31877 MEMB     267      POPC     C15      CTL5    -0.350000       12.0110           0
     31878 MEMB     267      POPC     H15A     HL       0.250000       1.00800           0
     31879 MEMB     267      POPC     H15B     HL       0.250000       1.00800           0
     31880 MEMB     267      POPC     H15C     HL       0.250000       1.00800           0
     31881 MEMB     267      POPC     C11      CTL2    -0.800000E-01   12.0110           0
     31882 MEMB     267      POPC     H11A     HAL2     0.900000E-01   1.00800           0
     31883 MEMB     267      POPC     H11B     HAL2     0.900000E-01   1.00800           0
     31884 MEMB     267      POPC     P        PL        1.50000       30.9740           0
     31885 MEMB     267      POPC     O13      O2L     -0.780000       15.9994           0
     31886 MEMB     267      POPC     O14      O2L     -0.780000       15.9994           0
     31887 MEMB     267      POPC     O12      OSLP    -0.570000       15.9994           0
     31888 MEMB     267      POPC     O11      OSLP    -0.570000       15.9994           0
     31889 MEMB     267      POPC     C1       CTL2    -0.800000E-01   12.0110           0
     31890 MEMB     267      POPC     HA       HAL2     0.900000E-01   1.00800           0
     31891 MEMB     267      POPC     HB       HAL2     0.900000E-01   1.00800           0
     31892 MEMB     267      POPC     C2       CTL1     0.170000       12.0110           0
     31893 MEMB     267      POPC     HS       HAL1     0.900000E-01   1.00800           0
     31894 MEMB     267      POPC     O21      OSL     -0.490000       15.9994           0
     31895 MEMB     267      POPC     C21      CL       0.900000       12.0110           0
     31896 MEMB     267      POPC     O22      OBL     -0.630000       15.9994           0
     31897 MEMB     267      POPC     C22      CTL2    -0.220000       12.0110           0
     31898 MEMB     267      POPC     H2R      HAL2     0.900000E-01   1.00800           0
     31899 MEMB     267      POPC     H2S      HAL2     0.900000E-01   1.00800           0
     31900 MEMB     267      POPC     C3       CTL2     0.800000E-01   12.0110           0
     31901 MEMB     267      POPC     HX       HAL2     0.900000E-01   1.00800           0
     31902 MEMB     267      POPC     HY       HAL2     0.900000E-01   1.00800           0
     31903 MEMB     267      POPC     O31      OSL     -0.490000       15.9994           0
     31904 MEMB     267      POPC     C31      CL       0.900000       12.0110           0
     31905 MEMB     267      POPC     O32      OBL     -0.630000       15.9994           0
     31906 MEMB     267      POPC     C32      CTL2    -0.220000       12.0110           0
     31907 MEMB     267      POPC     H2X      HAL2     0.900000E-01   1.00800           0
     31908 MEMB     267      POPC     H2Y      HAL2     0.900000E-01   1.00800           0
     31909 MEMB     267      POPC     C23      CTL2    -0.180000       12.0110           0
     31910 MEMB     267      POPC     H3R      HAL2     0.900000E-01   1.00800           0
     31911 MEMB     267      POPC     H3S      HAL2     0.900000E-01   1.00800           0
     31912 MEMB     267      POPC     C24      CTL2    -0.180000       12.0110           0
     31913 MEMB     267      POPC     H4R      HAL2     0.900000E-01   1.00800           0
     31914 MEMB     267      POPC     H4S      HAL2     0.900000E-01   1.00800           0
     31915 MEMB     267      POPC     C25      CTL2    -0.180000       12.0110           0
     31916 MEMB     267      POPC     H5R      HAL2     0.900000E-01   1.00800           0
     31917 MEMB     267      POPC     H5S      HAL2     0.900000E-01   1.00800           0
     31918 MEMB     267      POPC     C26      CTL2    -0.180000       12.0110           0
     31919 MEMB     267      POPC     H6R      HAL2     0.900000E-01   1.00800           0
     31920 MEMB     267      POPC     H6S      HAL2     0.900000E-01   1.00800           0
     31921 MEMB     267      POPC     C27      CTL2    -0.180000       12.0110           0
     31922 MEMB     267      POPC     H7R      HAL2     0.900000E-01   1.00800           0
     31923 MEMB     267      POPC     H7S      HAL2     0.900000E-01   1.00800           0
     31924 MEMB     267      POPC     C28      CTL2    -0.180000       12.0110           0
     31925 MEMB     267      POPC     H8R      HAL2     0.900000E-01   1.00800           0
     31926 MEMB     267      POPC     H8S      HAL2     0.900000E-01   1.00800           0
     31927 MEMB     267      POPC     C29      CEL1    -0.150000       12.0110           0
     31928 MEMB     267      POPC     H91      HEL1     0.150000       1.00800           0
     31929 MEMB     267      POPC     C210     CEL1    -0.150000       12.0110           0
     31930 MEMB     267      POPC     H101     HEL1     0.150000       1.00800           0
     31931 MEMB     267      POPC     C211     CTL2    -0.180000       12.0110           0
     31932 MEMB     267      POPC     H11R     HAL2     0.900000E-01   1.00800           0
     31933 MEMB     267      POPC     H11S     HAL2     0.900000E-01   1.00800           0
     31934 MEMB     267      POPC     C212     CTL2    -0.180000       12.0110           0
     31935 MEMB     267      POPC     H12R     HAL2     0.900000E-01   1.00800           0
     31936 MEMB     267      POPC     H12S     HAL2     0.900000E-01   1.00800           0
     31937 MEMB     267      POPC     C213     CTL2    -0.180000       12.0110           0
     31938 MEMB     267      POPC     H13R     HAL2     0.900000E-01   1.00800           0
     31939 MEMB     267      POPC     H13S     HAL2     0.900000E-01   1.00800           0
     31940 MEMB     267      POPC     C214     CTL2    -0.180000       12.0110           0
     31941 MEMB     267      POPC     H14R     HAL2     0.900000E-01   1.00800           0
     31942 MEMB     267      POPC     H14S     HAL2     0.900000E-01   1.00800           0
     31943 MEMB     267      POPC     C215     CTL2    -0.180000       12.0110           0
     31944 MEMB     267      POPC     H15R     HAL2     0.900000E-01   1.00800           0
     31945 MEMB     267      POPC     H15S     HAL2     0.900000E-01   1.00800           0
     31946 MEMB     267      POPC     C216     CTL2    -0.180000       12.0110           0
     31947 MEMB     267      POPC     H16R     HAL2     0.900000E-01   1.00800           0
     31948 MEMB     267      POPC     H16S     HAL2     0.900000E-01   1.00800           0
     31949 MEMB     267      POPC     C217     CTL2    -0.180000       12.0110           0
     31950 MEMB     267      POPC     H17R     HAL2     0.900000E-01   1.00800           0
     31951 MEMB     267      POPC     H17S     HAL2     0.900000E-01   1.00800           0
     31952 MEMB     267      POPC     C218     CTL3    -0.270000       12.0110           0
     31953 MEMB     267      POPC     H18R     HAL3     0.900000E-01   1.00800           0
     31954 MEMB     267      POPC     H18S     HAL3     0.900000E-01   1.00800           0
     31955 MEMB     267      POPC     H18T     HAL3     0.900000E-01   1.00800           0
     31956 MEMB     267      POPC     C33      CTL2    -0.180000       12.0110           0
     31957 MEMB     267      POPC     H3X      HAL2     0.900000E-01   1.00800           0
     31958 MEMB     267      POPC     H3Y      HAL2     0.900000E-01   1.00800           0
     31959 MEMB     267      POPC     C34      CTL2    -0.180000       12.0110           0
     31960 MEMB     267      POPC     H4X      HAL2     0.900000E-01   1.00800           0
     31961 MEMB     267      POPC     H4Y      HAL2     0.900000E-01   1.00800           0
     31962 MEMB     267      POPC     C35      CTL2    -0.180000       12.0110           0
     31963 MEMB     267      POPC     H5X      HAL2     0.900000E-01   1.00800           0
     31964 MEMB     267      POPC     H5Y      HAL2     0.900000E-01   1.00800           0
     31965 MEMB     267      POPC     C36      CTL2    -0.180000       12.0110           0
     31966 MEMB     267      POPC     H6X      HAL2     0.900000E-01   1.00800           0
     31967 MEMB     267      POPC     H6Y      HAL2     0.900000E-01   1.00800           0
     31968 MEMB     267      POPC     C37      CTL2    -0.180000       12.0110           0
     31969 MEMB     267      POPC     H7X      HAL2     0.900000E-01   1.00800           0
     31970 MEMB     267      POPC     H7Y      HAL2     0.900000E-01   1.00800           0
     31971 MEMB     267      POPC     C38      CTL2    -0.180000       12.0110           0
     31972 MEMB     267      POPC     H8X      HAL2     0.900000E-01   1.00800           0
     31973 MEMB     267      POPC     H8Y      HAL2     0.900000E-01   1.00800           0
     31974 MEMB     267      POPC     C39      CTL2    -0.180000       12.0110           0
     31975 MEMB     267      POPC     H9X      HAL2     0.900000E-01   1.00800           0
     31976 MEMB     267      POPC     H9Y      HAL2     0.900000E-01   1.00800           0
     31977 MEMB     267      POPC     C310     CTL2    -0.180000       12.0110           0
     31978 MEMB     267      POPC     H10X     HAL2     0.900000E-01   1.00800           0
     31979 MEMB     267      POPC     H10Y     HAL2     0.900000E-01   1.00800           0
     31980 MEMB     267      POPC     C311     CTL2    -0.180000       12.0110           0
     31981 MEMB     267      POPC     H11X     HAL2     0.900000E-01   1.00800           0
     31982 MEMB     267      POPC     H11Y     HAL2     0.900000E-01   1.00800           0
     31983 MEMB     267      POPC     C312     CTL2    -0.180000       12.0110           0
     31984 MEMB     267      POPC     H12X     HAL2     0.900000E-01   1.00800           0
     31985 MEMB     267      POPC     H12Y     HAL2     0.900000E-01   1.00800           0
     31986 MEMB     267      POPC     C313     CTL2    -0.180000       12.0110           0
     31987 MEMB     267      POPC     H13X     HAL2     0.900000E-01   1.00800           0
     31988 MEMB     267      POPC     H13Y     HAL2     0.900000E-01   1.00800           0
     31989 MEMB     267      POPC     C314     CTL2    -0.180000       12.0110           0
     31990 MEMB     267      POPC     H14X     HAL2     0.900000E-01   1.00800           0
     31991 MEMB     267      POPC     H14Y     HAL2     0.900000E-01   1.00800           0
     31992 MEMB     267      POPC     C315     CTL2    -0.180000       12.0110           0
     31993 MEMB     267      POPC     H15X     HAL2     0.900000E-01   1.00800           0
     31994 MEMB     267      POPC     H15Y     HAL2     0.900000E-01   1.00800           0
     31995 MEMB     267      POPC     C316     CTL3    -0.270000       12.0110           0
     31996 MEMB     267      POPC     H16X     HAL3     0.900000E-01   1.00800           0
     31997 MEMB     267      POPC     H16Y     HAL3     0.900000E-01   1.00800           0
     31998 MEMB     267      POPC     H16Z     HAL3     0.900000E-01   1.00800           0
     31999 MEMB     268      POPC     N        NTL     -0.600000       14.0070           0
     32000 MEMB     268      POPC     C12      CTL2    -0.100000       12.0110           0
     32001 MEMB     268      POPC     H12A     HL       0.250000       1.00800           0
     32002 MEMB     268      POPC     H12B     HL       0.250000       1.00800           0
     32003 MEMB     268      POPC     C13      CTL5    -0.350000       12.0110           0
     32004 MEMB     268      POPC     H13A     HL       0.250000       1.00800           0
     32005 MEMB     268      POPC     H13B     HL       0.250000       1.00800           0
     32006 MEMB     268      POPC     H13C     HL       0.250000       1.00800           0
     32007 MEMB     268      POPC     C14      CTL5    -0.350000       12.0110           0
     32008 MEMB     268      POPC     H14A     HL       0.250000       1.00800           0
     32009 MEMB     268      POPC     H14B     HL       0.250000       1.00800           0
     32010 MEMB     268      POPC     H14C     HL       0.250000       1.00800           0
     32011 MEMB     268      POPC     C15      CTL5    -0.350000       12.0110           0
     32012 MEMB     268      POPC     H15A     HL       0.250000       1.00800           0
     32013 MEMB     268      POPC     H15B     HL       0.250000       1.00800           0
     32014 MEMB     268      POPC     H15C     HL       0.250000       1.00800           0
     32015 MEMB     268      POPC     C11      CTL2    -0.800000E-01   12.0110           0
     32016 MEMB     268      POPC     H11A     HAL2     0.900000E-01   1.00800           0
     32017 MEMB     268      POPC     H11B     HAL2     0.900000E-01   1.00800           0
     32018 MEMB     268      POPC     P        PL        1.50000       30.9740           0
     32019 MEMB     268      POPC     O13      O2L     -0.780000       15.9994           0
     32020 MEMB     268      POPC     O14      O2L     -0.780000       15.9994           0
     32021 MEMB     268      POPC     O12      OSLP    -0.570000       15.9994           0
     32022 MEMB     268      POPC     O11      OSLP    -0.570000       15.9994           0
     32023 MEMB     268      POPC     C1       CTL2    -0.800000E-01   12.0110           0
     32024 MEMB     268      POPC     HA       HAL2     0.900000E-01   1.00800           0
     32025 MEMB     268      POPC     HB       HAL2     0.900000E-01   1.00800           0
     32026 MEMB     268      POPC     C2       CTL1     0.170000       12.0110           0
     32027 MEMB     268      POPC     HS       HAL1     0.900000E-01   1.00800           0
     32028 MEMB     268      POPC     O21      OSL     -0.490000       15.9994           0
     32029 MEMB     268      POPC     C21      CL       0.900000       12.0110           0
     32030 MEMB     268      POPC     O22      OBL     -0.630000       15.9994           0
     32031 MEMB     268      POPC     C22      CTL2    -0.220000       12.0110           0
     32032 MEMB     268      POPC     H2R      HAL2     0.900000E-01   1.00800           0
     32033 MEMB     268      POPC     H2S      HAL2     0.900000E-01   1.00800           0
     32034 MEMB     268      POPC     C3       CTL2     0.800000E-01   12.0110           0
     32035 MEMB     268      POPC     HX       HAL2     0.900000E-01   1.00800           0
     32036 MEMB     268      POPC     HY       HAL2     0.900000E-01   1.00800           0
     32037 MEMB     268      POPC     O31      OSL     -0.490000       15.9994           0
     32038 MEMB     268      POPC     C31      CL       0.900000       12.0110           0
     32039 MEMB     268      POPC     O32      OBL     -0.630000       15.9994           0
     32040 MEMB     268      POPC     C32      CTL2    -0.220000       12.0110           0
     32041 MEMB     268      POPC     H2X      HAL2     0.900000E-01   1.00800           0
     32042 MEMB     268      POPC     H2Y      HAL2     0.900000E-01   1.00800           0
     32043 MEMB     268      POPC     C23      CTL2    -0.180000       12.0110           0
     32044 MEMB     268      POPC     H3R      HAL2     0.900000E-01   1.00800           0
     32045 MEMB     268      POPC     H3S      HAL2     0.900000E-01   1.00800           0
     32046 MEMB     268      POPC     C24      CTL2    -0.180000       12.0110           0
     32047 MEMB     268      POPC     H4R      HAL2     0.900000E-01   1.00800           0
     32048 MEMB     268      POPC     H4S      HAL2     0.900000E-01   1.00800           0
     32049 MEMB     268      POPC     C25      CTL2    -0.180000       12.0110           0
     32050 MEMB     268      POPC     H5R      HAL2     0.900000E-01   1.00800           0
     32051 MEMB     268      POPC     H5S      HAL2     0.900000E-01   1.00800           0
     32052 MEMB     268      POPC     C26      CTL2    -0.180000       12.0110           0
     32053 MEMB     268      POPC     H6R      HAL2     0.900000E-01   1.00800           0
     32054 MEMB     268      POPC     H6S      HAL2     0.900000E-01   1.00800           0
     32055 MEMB     268      POPC     C27      CTL2    -0.180000       12.0110           0
     32056 MEMB     268      POPC     H7R      HAL2     0.900000E-01   1.00800           0
     32057 MEMB     268      POPC     H7S      HAL2     0.900000E-01   1.00800           0
     32058 MEMB     268      POPC     C28      CTL2    -0.180000       12.0110           0
     32059 MEMB     268      POPC     H8R      HAL2     0.900000E-01   1.00800           0
     32060 MEMB     268      POPC     H8S      HAL2     0.900000E-01   1.00800           0
     32061 MEMB     268      POPC     C29      CEL1    -0.150000       12.0110           0
     32062 MEMB     268      POPC     H91      HEL1     0.150000       1.00800           0
     32063 MEMB     268      POPC     C210     CEL1    -0.150000       12.0110           0
     32064 MEMB     268      POPC     H101     HEL1     0.150000       1.00800           0
     32065 MEMB     268      POPC     C211     CTL2    -0.180000       12.0110           0
     32066 MEMB     268      POPC     H11R     HAL2     0.900000E-01   1.00800           0
     32067 MEMB     268      POPC     H11S     HAL2     0.900000E-01   1.00800           0
     32068 MEMB     268      POPC     C212     CTL2    -0.180000       12.0110           0
     32069 MEMB     268      POPC     H12R     HAL2     0.900000E-01   1.00800           0
     32070 MEMB     268      POPC     H12S     HAL2     0.900000E-01   1.00800           0
     32071 MEMB     268      POPC     C213     CTL2    -0.180000       12.0110           0
     32072 MEMB     268      POPC     H13R     HAL2     0.900000E-01   1.00800           0
     32073 MEMB     268      POPC     H13S     HAL2     0.900000E-01   1.00800           0
     32074 MEMB     268      POPC     C214     CTL2    -0.180000       12.0110           0
     32075 MEMB     268      POPC     H14R     HAL2     0.900000E-01   1.00800           0
     32076 MEMB     268      POPC     H14S     HAL2     0.900000E-01   1.00800           0
     32077 MEMB     268      POPC     C215     CTL2    -0.180000       12.0110           0
     32078 MEMB     268      POPC     H15R     HAL2     0.900000E-01   1.00800           0
     32079 MEMB     268      POPC     H15S     HAL2     0.900000E-01   1.00800           0
     32080 MEMB     268      POPC     C216     CTL2    -0.180000       12.0110           0
     32081 MEMB     268      POPC     H16R     HAL2     0.900000E-01   1.00800           0
     32082 MEMB     268      POPC     H16S     HAL2     0.900000E-01   1.00800           0
     32083 MEMB     268      POPC     C217     CTL2    -0.180000       12.0110           0
     32084 MEMB     268      POPC     H17R     HAL2     0.900000E-01   1.00800           0
     32085 MEMB     268      POPC     H17S     HAL2     0.900000E-01   1.00800           0
     32086 MEMB     268      POPC     C218     CTL3    -0.270000       12.0110           0
     32087 MEMB     268      POPC     H18R     HAL3     0.900000E-01   1.00800           0
     32088 MEMB     268      POPC     H18S     HAL3     0.900000E-01   1.00800           0
     32089 MEMB     268      POPC     H18T     HAL3     0.900000E-01   1.00800           0
     32090 MEMB     268      POPC     C33      CTL2    -0.180000       12.0110           0
     32091 MEMB     268      POPC     H3X      HAL2     0.900000E-01   1.00800           0
     32092 MEMB     268      POPC     H3Y      HAL2     0.900000E-01   1.00800           0
     32093 MEMB     268      POPC     C34      CTL2    -0.180000       12.0110           0
     32094 MEMB     268      POPC     H4X      HAL2     0.900000E-01   1.00800           0
     32095 MEMB     268      POPC     H4Y      HAL2     0.900000E-01   1.00800           0
     32096 MEMB     268      POPC     C35      CTL2    -0.180000       12.0110           0
     32097 MEMB     268      POPC     H5X      HAL2     0.900000E-01   1.00800           0
     32098 MEMB     268      POPC     H5Y      HAL2     0.900000E-01   1.00800           0
     32099 MEMB     268      POPC     C36      CTL2    -0.180000       12.0110           0
     32100 MEMB     268      POPC     H6X      HAL2     0.900000E-01   1.00800           0
     32101 MEMB     268      POPC     H6Y      HAL2     0.900000E-01   1.00800           0
     32102 MEMB     268      POPC     C37      CTL2    -0.180000       12.0110           0
     32103 MEMB     268      POPC     H7X      HAL2     0.900000E-01   1.00800           0
     32104 MEMB     268      POPC     H7Y      HAL2     0.900000E-01   1.00800           0
     32105 MEMB     268      POPC     C38      CTL2    -0.180000       12.0110           0
     32106 MEMB     268      POPC     H8X      HAL2     0.900000E-01   1.00800           0
     32107 MEMB     268      POPC     H8Y      HAL2     0.900000E-01   1.00800           0
     32108 MEMB     268      POPC     C39      CTL2    -0.180000       12.0110           0
     32109 MEMB     268      POPC     H9X      HAL2     0.900000E-01   1.00800           0
     32110 MEMB     268      POPC     H9Y      HAL2     0.900000E-01   1.00800           0
     32111 MEMB     268      POPC     C310     CTL2    -0.180000       12.0110           0
     32112 MEMB     268      POPC     H10X     HAL2     0.900000E-01   1.00800           0
     32113 MEMB     268      POPC     H10Y     HAL2     0.900000E-01   1.00800           0
     32114 MEMB     268      POPC     C311     CTL2    -0.180000       12.0110           0
     32115 MEMB     268      POPC     H11X     HAL2     0.900000E-01   1.00800           0
     32116 MEMB     268      POPC     H11Y     HAL2     0.900000E-01   1.00800           0
     32117 MEMB     268      POPC     C312     CTL2    -0.180000       12.0110           0
     32118 MEMB     268      POPC     H12X     HAL2     0.900000E-01   1.00800           0
     32119 MEMB     268      POPC     H12Y     HAL2     0.900000E-01   1.00800           0
     32120 MEMB     268      POPC     C313     CTL2    -0.180000       12.0110           0
     32121 MEMB     268      POPC     H13X     HAL2     0.900000E-01   1.00800           0
     32122 MEMB     268      POPC     H13Y     HAL2     0.900000E-01   1.00800           0
     32123 MEMB     268      POPC     C314     CTL2    -0.180000       12.0110           0
     32124 MEMB     268      POPC     H14X     HAL2     0.900000E-01   1.00800           0
     32125 MEMB     268      POPC     H14Y     HAL2     0.900000E-01   1.00800           0
     32126 MEMB     268      POPC     C315     CTL2    -0.180000       12.0110           0
     32127 MEMB     268      POPC     H15X     HAL2     0.900000E-01   1.00800           0
     32128 MEMB     268      POPC     H15Y     HAL2     0.900000E-01   1.00800           0
     32129 MEMB     268      POPC     C316     CTL3    -0.270000       12.0110           0
     32130 MEMB     268      POPC     H16X     HAL3     0.900000E-01   1.00800           0
     32131 MEMB     268      POPC     H16Y     HAL3     0.900000E-01   1.00800           0
     32132 MEMB     268      POPC     H16Z     HAL3     0.900000E-01   1.00800           0
     32133 MEMB     269      POPC     N        NTL     -0.600000       14.0070           0
     32134 MEMB     269      POPC     C12      CTL2    -0.100000       12.0110           0
     32135 MEMB     269      POPC     H12A     HL       0.250000       1.00800           0
     32136 MEMB     269      POPC     H12B     HL       0.250000       1.00800           0
     32137 MEMB     269      POPC     C13      CTL5    -0.350000       12.0110           0
     32138 MEMB     269      POPC     H13A     HL       0.250000       1.00800           0
     32139 MEMB     269      POPC     H13B     HL       0.250000       1.00800           0
     32140 MEMB     269      POPC     H13C     HL       0.250000       1.00800           0
     32141 MEMB     269      POPC     C14      CTL5    -0.350000       12.0110           0
     32142 MEMB     269      POPC     H14A     HL       0.250000       1.00800           0
     32143 MEMB     269      POPC     H14B     HL       0.250000       1.00800           0
     32144 MEMB     269      POPC     H14C     HL       0.250000       1.00800           0
     32145 MEMB     269      POPC     C15      CTL5    -0.350000       12.0110           0
     32146 MEMB     269      POPC     H15A     HL       0.250000       1.00800           0
     32147 MEMB     269      POPC     H15B     HL       0.250000       1.00800           0
     32148 MEMB     269      POPC     H15C     HL       0.250000       1.00800           0
     32149 MEMB     269      POPC     C11      CTL2    -0.800000E-01   12.0110           0
     32150 MEMB     269      POPC     H11A     HAL2     0.900000E-01   1.00800           0
     32151 MEMB     269      POPC     H11B     HAL2     0.900000E-01   1.00800           0
     32152 MEMB     269      POPC     P        PL        1.50000       30.9740           0
     32153 MEMB     269      POPC     O13      O2L     -0.780000       15.9994           0
     32154 MEMB     269      POPC     O14      O2L     -0.780000       15.9994           0
     32155 MEMB     269      POPC     O12      OSLP    -0.570000       15.9994           0
     32156 MEMB     269      POPC     O11      OSLP    -0.570000       15.9994           0
     32157 MEMB     269      POPC     C1       CTL2    -0.800000E-01   12.0110           0
     32158 MEMB     269      POPC     HA       HAL2     0.900000E-01   1.00800           0
     32159 MEMB     269      POPC     HB       HAL2     0.900000E-01   1.00800           0
     32160 MEMB     269      POPC     C2       CTL1     0.170000       12.0110           0
     32161 MEMB     269      POPC     HS       HAL1     0.900000E-01   1.00800           0
     32162 MEMB     269      POPC     O21      OSL     -0.490000       15.9994           0
     32163 MEMB     269      POPC     C21      CL       0.900000       12.0110           0
     32164 MEMB     269      POPC     O22      OBL     -0.630000       15.9994           0
     32165 MEMB     269      POPC     C22      CTL2    -0.220000       12.0110           0
     32166 MEMB     269      POPC     H2R      HAL2     0.900000E-01   1.00800           0
     32167 MEMB     269      POPC     H2S      HAL2     0.900000E-01   1.00800           0
     32168 MEMB     269      POPC     C3       CTL2     0.800000E-01   12.0110           0
     32169 MEMB     269      POPC     HX       HAL2     0.900000E-01   1.00800           0
     32170 MEMB     269      POPC     HY       HAL2     0.900000E-01   1.00800           0
     32171 MEMB     269      POPC     O31      OSL     -0.490000       15.9994           0
     32172 MEMB     269      POPC     C31      CL       0.900000       12.0110           0
     32173 MEMB     269      POPC     O32      OBL     -0.630000       15.9994           0
     32174 MEMB     269      POPC     C32      CTL2    -0.220000       12.0110           0
     32175 MEMB     269      POPC     H2X      HAL2     0.900000E-01   1.00800           0
     32176 MEMB     269      POPC     H2Y      HAL2     0.900000E-01   1.00800           0
     32177 MEMB     269      POPC     C23      CTL2    -0.180000       12.0110           0
     32178 MEMB     269      POPC     H3R      HAL2     0.900000E-01   1.00800           0
     32179 MEMB     269      POPC     H3S      HAL2     0.900000E-01   1.00800           0
     32180 MEMB     269      POPC     C24      CTL2    -0.180000       12.0110           0
     32181 MEMB     269      POPC     H4R      HAL2     0.900000E-01   1.00800           0
     32182 MEMB     269      POPC     H4S      HAL2     0.900000E-01   1.00800           0
     32183 MEMB     269      POPC     C25      CTL2    -0.180000       12.0110           0
     32184 MEMB     269      POPC     H5R      HAL2     0.900000E-01   1.00800           0
     32185 MEMB     269      POPC     H5S      HAL2     0.900000E-01   1.00800           0
     32186 MEMB     269      POPC     C26      CTL2    -0.180000       12.0110           0
     32187 MEMB     269      POPC     H6R      HAL2     0.900000E-01   1.00800           0
     32188 MEMB     269      POPC     H6S      HAL2     0.900000E-01   1.00800           0
     32189 MEMB     269      POPC     C27      CTL2    -0.180000       12.0110           0
     32190 MEMB     269      POPC     H7R      HAL2     0.900000E-01   1.00800           0
     32191 MEMB     269      POPC     H7S      HAL2     0.900000E-01   1.00800           0
     32192 MEMB     269      POPC     C28      CTL2    -0.180000       12.0110           0
     32193 MEMB     269      POPC     H8R      HAL2     0.900000E-01   1.00800           0
     32194 MEMB     269      POPC     H8S      HAL2     0.900000E-01   1.00800           0
     32195 MEMB     269      POPC     C29      CEL1    -0.150000       12.0110           0
     32196 MEMB     269      POPC     H91      HEL1     0.150000       1.00800           0
     32197 MEMB     269      POPC     C210     CEL1    -0.150000       12.0110           0
     32198 MEMB     269      POPC     H101     HEL1     0.150000       1.00800           0
     32199 MEMB     269      POPC     C211     CTL2    -0.180000       12.0110           0
     32200 MEMB     269      POPC     H11R     HAL2     0.900000E-01   1.00800           0
     32201 MEMB     269      POPC     H11S     HAL2     0.900000E-01   1.00800           0
     32202 MEMB     269      POPC     C212     CTL2    -0.180000       12.0110           0
     32203 MEMB     269      POPC     H12R     HAL2     0.900000E-01   1.00800           0
     32204 MEMB     269      POPC     H12S     HAL2     0.900000E-01   1.00800           0
     32205 MEMB     269      POPC     C213     CTL2    -0.180000       12.0110           0
     32206 MEMB     269      POPC     H13R     HAL2     0.900000E-01   1.00800           0
     32207 MEMB     269      POPC     H13S     HAL2     0.900000E-01   1.00800           0
     32208 MEMB     269      POPC     C214     CTL2    -0.180000       12.0110           0
     32209 MEMB     269      POPC     H14R     HAL2     0.900000E-01   1.00800           0
     32210 MEMB     269      POPC     H14S     HAL2     0.900000E-01   1.00800           0
     32211 MEMB     269      POPC     C215     CTL2    -0.180000       12.0110           0
     32212 MEMB     269      POPC     H15R     HAL2     0.900000E-01   1.00800           0
     32213 MEMB     269      POPC     H15S     HAL2     0.900000E-01   1.00800           0
     32214 MEMB     269      POPC     C216     CTL2    -0.180000       12.0110           0
     32215 MEMB     269      POPC     H16R     HAL2     0.900000E-01   1.00800           0
     32216 MEMB     269      POPC     H16S     HAL2     0.900000E-01   1.00800           0
     32217 MEMB     269      POPC     C217     CTL2    -0.180000       12.0110           0
     32218 MEMB     269      POPC     H17R     HAL2     0.900000E-01   1.00800           0
     32219 MEMB     269      POPC     H17S     HAL2     0.900000E-01   1.00800           0
     32220 MEMB     269      POPC     C218     CTL3    -0.270000       12.0110           0
     32221 MEMB     269      POPC     H18R     HAL3     0.900000E-01   1.00800           0
     32222 MEMB     269      POPC     H18S     HAL3     0.900000E-01   1.00800           0
     32223 MEMB     269      POPC     H18T     HAL3     0.900000E-01   1.00800           0
     32224 MEMB     269      POPC     C33      CTL2    -0.180000       12.0110           0
     32225 MEMB     269      POPC     H3X      HAL2     0.900000E-01   1.00800           0
     32226 MEMB     269      POPC     H3Y      HAL2     0.900000E-01   1.00800           0
     32227 MEMB     269      POPC     C34      CTL2    -0.180000       12.0110           0
     32228 MEMB     269      POPC     H4X      HAL2     0.900000E-01   1.00800           0
     32229 MEMB     269      POPC     H4Y      HAL2     0.900000E-01   1.00800           0
     32230 MEMB     269      POPC     C35      CTL2    -0.180000       12.0110           0
     32231 MEMB     269      POPC     H5X      HAL2     0.900000E-01   1.00800           0
     32232 MEMB     269      POPC     H5Y      HAL2     0.900000E-01   1.00800           0
     32233 MEMB     269      POPC     C36      CTL2    -0.180000       12.0110           0
     32234 MEMB     269      POPC     H6X      HAL2     0.900000E-01   1.00800           0
     32235 MEMB     269      POPC     H6Y      HAL2     0.900000E-01   1.00800           0
     32236 MEMB     269      POPC     C37      CTL2    -0.180000       12.0110           0
     32237 MEMB     269      POPC     H7X      HAL2     0.900000E-01   1.00800           0
     32238 MEMB     269      POPC     H7Y      HAL2     0.900000E-01   1.00800           0
     32239 MEMB     269      POPC     C38      CTL2    -0.180000       12.0110           0
     32240 MEMB     269      POPC     H8X      HAL2     0.900000E-01   1.00800           0
     32241 MEMB     269      POPC     H8Y      HAL2     0.900000E-01   1.00800           0
     32242 MEMB     269      POPC     C39      CTL2    -0.180000       12.0110           0
     32243 MEMB     269      POPC     H9X      HAL2     0.900000E-01   1.00800           0
     32244 MEMB     269      POPC     H9Y      HAL2     0.900000E-01   1.00800           0
     32245 MEMB     269      POPC     C310     CTL2    -0.180000       12.0110           0
     32246 MEMB     269      POPC     H10X     HAL2     0.900000E-01   1.00800           0
     32247 MEMB     269      POPC     H10Y     HAL2     0.900000E-01   1.00800           0
     32248 MEMB     269      POPC     C311     CTL2    -0.180000       12.0110           0
     32249 MEMB     269      POPC     H11X     HAL2     0.900000E-01   1.00800           0
     32250 MEMB     269      POPC     H11Y     HAL2     0.900000E-01   1.00800           0
     32251 MEMB     269      POPC     C312     CTL2    -0.180000       12.0110           0
     32252 MEMB     269      POPC     H12X     HAL2     0.900000E-01   1.00800           0
     32253 MEMB     269      POPC     H12Y     HAL2     0.900000E-01   1.00800           0
     32254 MEMB     269      POPC     C313     CTL2    -0.180000       12.0110           0
     32255 MEMB     269      POPC     H13X     HAL2     0.900000E-01   1.00800           0
     32256 MEMB     269      POPC     H13Y     HAL2     0.900000E-01   1.00800           0
     32257 MEMB     269      POPC     C314     CTL2    -0.180000       12.0110           0
     32258 MEMB     269      POPC     H14X     HAL2     0.900000E-01   1.00800           0
     32259 MEMB     269      POPC     H14Y     HAL2     0.900000E-01   1.00800           0
     32260 MEMB     269      POPC     C315     CTL2    -0.180000       12.0110           0
     32261 MEMB     269      POPC     H15X     HAL2     0.900000E-01   1.00800           0
     32262 MEMB     269      POPC     H15Y     HAL2     0.900000E-01   1.00800           0
     32263 MEMB     269      POPC     C316     CTL3    -0.270000       12.0110           0
     32264 MEMB     269      POPC     H16X     HAL3     0.900000E-01   1.00800           0
     32265 MEMB     269      POPC     H16Y     HAL3     0.900000E-01   1.00800           0
     32266 MEMB     269      POPC     H16Z     HAL3     0.900000E-01   1.00800           0
     32267 MEMB     270      POPC     N        NTL     -0.600000       14.0070           0
     32268 MEMB     270      POPC     C12      CTL2    -0.100000       12.0110           0
     32269 MEMB     270      POPC     H12A     HL       0.250000       1.00800           0
     32270 MEMB     270      POPC     H12B     HL       0.250000       1.00800           0
     32271 MEMB     270      POPC     C13      CTL5    -0.350000       12.0110           0
     32272 MEMB     270      POPC     H13A     HL       0.250000       1.00800           0
     32273 MEMB     270      POPC     H13B     HL       0.250000       1.00800           0
     32274 MEMB     270      POPC     H13C     HL       0.250000       1.00800           0
     32275 MEMB     270      POPC     C14      CTL5    -0.350000       12.0110           0
     32276 MEMB     270      POPC     H14A     HL       0.250000       1.00800           0
     32277 MEMB     270      POPC     H14B     HL       0.250000       1.00800           0
     32278 MEMB     270      POPC     H14C     HL       0.250000       1.00800           0
     32279 MEMB     270      POPC     C15      CTL5    -0.350000       12.0110           0
     32280 MEMB     270      POPC     H15A     HL       0.250000       1.00800           0
     32281 MEMB     270      POPC     H15B     HL       0.250000       1.00800           0
     32282 MEMB     270      POPC     H15C     HL       0.250000       1.00800           0
     32283 MEMB     270      POPC     C11      CTL2    -0.800000E-01   12.0110           0
     32284 MEMB     270      POPC     H11A     HAL2     0.900000E-01   1.00800           0
     32285 MEMB     270      POPC     H11B     HAL2     0.900000E-01   1.00800           0
     32286 MEMB     270      POPC     P        PL        1.50000       30.9740           0
     32287 MEMB     270      POPC     O13      O2L     -0.780000       15.9994           0
     32288 MEMB     270      POPC     O14      O2L     -0.780000       15.9994           0
     32289 MEMB     270      POPC     O12      OSLP    -0.570000       15.9994           0
     32290 MEMB     270      POPC     O11      OSLP    -0.570000       15.9994           0
     32291 MEMB     270      POPC     C1       CTL2    -0.800000E-01   12.0110           0
     32292 MEMB     270      POPC     HA       HAL2     0.900000E-01   1.00800           0
     32293 MEMB     270      POPC     HB       HAL2     0.900000E-01   1.00800           0
     32294 MEMB     270      POPC     C2       CTL1     0.170000       12.0110           0
     32295 MEMB     270      POPC     HS       HAL1     0.900000E-01   1.00800           0
     32296 MEMB     270      POPC     O21      OSL     -0.490000       15.9994           0
     32297 MEMB     270      POPC     C21      CL       0.900000       12.0110           0
     32298 MEMB     270      POPC     O22      OBL     -0.630000       15.9994           0
     32299 MEMB     270      POPC     C22      CTL2    -0.220000       12.0110           0
     32300 MEMB     270      POPC     H2R      HAL2     0.900000E-01   1.00800           0
     32301 MEMB     270      POPC     H2S      HAL2     0.900000E-01   1.00800           0
     32302 MEMB     270      POPC     C3       CTL2     0.800000E-01   12.0110           0
     32303 MEMB     270      POPC     HX       HAL2     0.900000E-01   1.00800           0
     32304 MEMB     270      POPC     HY       HAL2     0.900000E-01   1.00800           0
     32305 MEMB     270      POPC     O31      OSL     -0.490000       15.9994           0
     32306 MEMB     270      POPC     C31      CL       0.900000       12.0110           0
     32307 MEMB     270      POPC     O32      OBL     -0.630000       15.9994           0
     32308 MEMB     270      POPC     C32      CTL2    -0.220000       12.0110           0
     32309 MEMB     270      POPC     H2X      HAL2     0.900000E-01   1.00800           0
     32310 MEMB     270      POPC     H2Y      HAL2     0.900000E-01   1.00800           0
     32311 MEMB     270      POPC     C23      CTL2    -0.180000       12.0110           0
     32312 MEMB     270      POPC     H3R      HAL2     0.900000E-01   1.00800           0
     32313 MEMB     270      POPC     H3S      HAL2     0.900000E-01   1.00800           0
     32314 MEMB     270      POPC     C24      CTL2    -0.180000       12.0110           0
     32315 MEMB     270      POPC     H4R      HAL2     0.900000E-01   1.00800           0
     32316 MEMB     270      POPC     H4S      HAL2     0.900000E-01   1.00800           0
     32317 MEMB     270      POPC     C25      CTL2    -0.180000       12.0110           0
     32318 MEMB     270      POPC     H5R      HAL2     0.900000E-01   1.00800           0
     32319 MEMB     270      POPC     H5S      HAL2     0.900000E-01   1.00800           0
     32320 MEMB     270      POPC     C26      CTL2    -0.180000       12.0110           0
     32321 MEMB     270      POPC     H6R      HAL2     0.900000E-01   1.00800           0
     32322 MEMB     270      POPC     H6S      HAL2     0.900000E-01   1.00800           0
     32323 MEMB     270      POPC     C27      CTL2    -0.180000       12.0110           0
     32324 MEMB     270      POPC     H7R      HAL2     0.900000E-01   1.00800           0
     32325 MEMB     270      POPC     H7S      HAL2     0.900000E-01   1.00800           0
     32326 MEMB     270      POPC     C28      CTL2    -0.180000       12.0110           0
     32327 MEMB     270      POPC     H8R      HAL2     0.900000E-01   1.00800           0
     32328 MEMB     270      POPC     H8S      HAL2     0.900000E-01   1.00800           0
     32329 MEMB     270      POPC     C29      CEL1    -0.150000       12.0110           0
     32330 MEMB     270      POPC     H91      HEL1     0.150000       1.00800           0
     32331 MEMB     270      POPC     C210     CEL1    -0.150000       12.0110           0
     32332 MEMB     270      POPC     H101     HEL1     0.150000       1.00800           0
     32333 MEMB     270      POPC     C211     CTL2    -0.180000       12.0110           0
     32334 MEMB     270      POPC     H11R     HAL2     0.900000E-01   1.00800           0
     32335 MEMB     270      POPC     H11S     HAL2     0.900000E-01   1.00800           0
     32336 MEMB     270      POPC     C212     CTL2    -0.180000       12.0110           0
     32337 MEMB     270      POPC     H12R     HAL2     0.900000E-01   1.00800           0
     32338 MEMB     270      POPC     H12S     HAL2     0.900000E-01   1.00800           0
     32339 MEMB     270      POPC     C213     CTL2    -0.180000       12.0110           0
     32340 MEMB     270      POPC     H13R     HAL2     0.900000E-01   1.00800           0
     32341 MEMB     270      POPC     H13S     HAL2     0.900000E-01   1.00800           0
     32342 MEMB     270      POPC     C214     CTL2    -0.180000       12.0110           0
     32343 MEMB     270      POPC     H14R     HAL2     0.900000E-01   1.00800           0
     32344 MEMB     270      POPC     H14S     HAL2     0.900000E-01   1.00800           0
     32345 MEMB     270      POPC     C215     CTL2    -0.180000       12.0110           0
     32346 MEMB     270      POPC     H15R     HAL2     0.900000E-01   1.00800           0
     32347 MEMB     270      POPC     H15S     HAL2     0.900000E-01   1.00800           0
     32348 MEMB     270      POPC     C216     CTL2    -0.180000       12.0110           0
     32349 MEMB     270      POPC     H16R     HAL2     0.900000E-01   1.00800           0
     32350 MEMB     270      POPC     H16S     HAL2     0.900000E-01   1.00800           0
     32351 MEMB     270      POPC     C217     CTL2    -0.180000       12.0110           0
     32352 MEMB     270      POPC     H17R     HAL2     0.900000E-01   1.00800           0
     32353 MEMB     270      POPC     H17S     HAL2     0.900000E-01   1.00800           0
     32354 MEMB     270      POPC     C218     CTL3    -0.270000       12.0110           0
     32355 MEMB     270      POPC     H18R     HAL3     0.900000E-01   1.00800           0
     32356 MEMB     270      POPC     H18S     HAL3     0.900000E-01   1.00800           0
     32357 MEMB     270      POPC     H18T     HAL3     0.900000E-01   1.00800           0
     32358 MEMB     270      POPC     C33      CTL2    -0.180000       12.0110           0
     32359 MEMB     270      POPC     H3X      HAL2     0.900000E-01   1.00800           0
     32360 MEMB     270      POPC     H3Y      HAL2     0.900000E-01   1.00800           0
     32361 MEMB     270      POPC     C34      CTL2    -0.180000       12.0110           0
     32362 MEMB     270      POPC     H4X      HAL2     0.900000E-01   1.00800           0
     32363 MEMB     270      POPC     H4Y      HAL2     0.900000E-01   1.00800           0
     32364 MEMB     270      POPC     C35      CTL2    -0.180000       12.0110           0
     32365 MEMB     270      POPC     H5X      HAL2     0.900000E-01   1.00800           0
     32366 MEMB     270      POPC     H5Y      HAL2     0.900000E-01   1.00800           0
     32367 MEMB     270      POPC     C36      CTL2    -0.180000       12.0110           0
     32368 MEMB     270      POPC     H6X      HAL2     0.900000E-01   1.00800           0
     32369 MEMB     270      POPC     H6Y      HAL2     0.900000E-01   1.00800           0
     32370 MEMB     270      POPC     C37      CTL2    -0.180000       12.0110           0
     32371 MEMB     270      POPC     H7X      HAL2     0.900000E-01   1.00800           0
     32372 MEMB     270      POPC     H7Y      HAL2     0.900000E-01   1.00800           0
     32373 MEMB     270      POPC     C38      CTL2    -0.180000       12.0110           0
     32374 MEMB     270      POPC     H8X      HAL2     0.900000E-01   1.00800           0
     32375 MEMB     270      POPC     H8Y      HAL2     0.900000E-01   1.00800           0
     32376 MEMB     270      POPC     C39      CTL2    -0.180000       12.0110           0
     32377 MEMB     270      POPC     H9X      HAL2     0.900000E-01   1.00800           0
     32378 MEMB     270      POPC     H9Y      HAL2     0.900000E-01   1.00800           0
     32379 MEMB     270      POPC     C310     CTL2    -0.180000       12.0110           0
     32380 MEMB     270      POPC     H10X     HAL2     0.900000E-01   1.00800           0
     32381 MEMB     270      POPC     H10Y     HAL2     0.900000E-01   1.00800           0
     32382 MEMB     270      POPC     C311     CTL2    -0.180000       12.0110           0
     32383 MEMB     270      POPC     H11X     HAL2     0.900000E-01   1.00800           0
     32384 MEMB     270      POPC     H11Y     HAL2     0.900000E-01   1.00800           0
     32385 MEMB     270      POPC     C312     CTL2    -0.180000       12.0110           0
     32386 MEMB     270      POPC     H12X     HAL2     0.900000E-01   1.00800           0
     32387 MEMB     270      POPC     H12Y     HAL2     0.900000E-01   1.00800           0
     32388 MEMB     270      POPC     C313     CTL2    -0.180000       12.0110           0
     32389 MEMB     270      POPC     H13X     HAL2     0.900000E-01   1.00800           0
     32390 MEMB     270      POPC     H13Y     HAL2     0.900000E-01   1.00800           0
     32391 MEMB     270      POPC     C314     CTL2    -0.180000       12.0110           0
     32392 MEMB     270      POPC     H14X     HAL2     0.900000E-01   1.00800           0
     32393 MEMB     270      POPC     H14Y     HAL2     0.900000E-01   1.00800           0
     32394 MEMB     270      POPC     C315     CTL2    -0.180000       12.0110           0
     32395 MEMB     270      POPC     H15X     HAL2     0.900000E-01   1.00800           0
     32396 MEMB     270      POPC     H15Y     HAL2     0.900000E-01   1.00800           0
     32397 MEMB     270      POPC     C316     CTL3    -0.270000       12.0110           0
     32398 MEMB     270      POPC     H16X     HAL3     0.900000E-01   1.00800           0
     32399 MEMB     270      POPC     H16Y     HAL3     0.900000E-01   1.00800           0
     32400 MEMB     270      POPC     H16Z     HAL3     0.900000E-01   1.00800           0
     32401 MEMB     271      POPC     N        NTL     -0.600000       14.0070           0
     32402 MEMB     271      POPC     C12      CTL2    -0.100000       12.0110           0
     32403 MEMB     271      POPC     H12A     HL       0.250000       1.00800           0
     32404 MEMB     271      POPC     H12B     HL       0.250000       1.00800           0
     32405 MEMB     271      POPC     C13      CTL5    -0.350000       12.0110           0
     32406 MEMB     271      POPC     H13A     HL       0.250000       1.00800           0
     32407 MEMB     271      POPC     H13B     HL       0.250000       1.00800           0
     32408 MEMB     271      POPC     H13C     HL       0.250000       1.00800           0
     32409 MEMB     271      POPC     C14      CTL5    -0.350000       12.0110           0
     32410 MEMB     271      POPC     H14A     HL       0.250000       1.00800           0
     32411 MEMB     271      POPC     H14B     HL       0.250000       1.00800           0
     32412 MEMB     271      POPC     H14C     HL       0.250000       1.00800           0
     32413 MEMB     271      POPC     C15      CTL5    -0.350000       12.0110           0
     32414 MEMB     271      POPC     H15A     HL       0.250000       1.00800           0
     32415 MEMB     271      POPC     H15B     HL       0.250000       1.00800           0
     32416 MEMB     271      POPC     H15C     HL       0.250000       1.00800           0
     32417 MEMB     271      POPC     C11      CTL2    -0.800000E-01   12.0110           0
     32418 MEMB     271      POPC     H11A     HAL2     0.900000E-01   1.00800           0
     32419 MEMB     271      POPC     H11B     HAL2     0.900000E-01   1.00800           0
     32420 MEMB     271      POPC     P        PL        1.50000       30.9740           0
     32421 MEMB     271      POPC     O13      O2L     -0.780000       15.9994           0
     32422 MEMB     271      POPC     O14      O2L     -0.780000       15.9994           0
     32423 MEMB     271      POPC     O12      OSLP    -0.570000       15.9994           0
     32424 MEMB     271      POPC     O11      OSLP    -0.570000       15.9994           0
     32425 MEMB     271      POPC     C1       CTL2    -0.800000E-01   12.0110           0
     32426 MEMB     271      POPC     HA       HAL2     0.900000E-01   1.00800           0
     32427 MEMB     271      POPC     HB       HAL2     0.900000E-01   1.00800           0
     32428 MEMB     271      POPC     C2       CTL1     0.170000       12.0110           0
     32429 MEMB     271      POPC     HS       HAL1     0.900000E-01   1.00800           0
     32430 MEMB     271      POPC     O21      OSL     -0.490000       15.9994           0
     32431 MEMB     271      POPC     C21      CL       0.900000       12.0110           0
     32432 MEMB     271      POPC     O22      OBL     -0.630000       15.9994           0
     32433 MEMB     271      POPC     C22      CTL2    -0.220000       12.0110           0
     32434 MEMB     271      POPC     H2R      HAL2     0.900000E-01   1.00800           0
     32435 MEMB     271      POPC     H2S      HAL2     0.900000E-01   1.00800           0
     32436 MEMB     271      POPC     C3       CTL2     0.800000E-01   12.0110           0
     32437 MEMB     271      POPC     HX       HAL2     0.900000E-01   1.00800           0
     32438 MEMB     271      POPC     HY       HAL2     0.900000E-01   1.00800           0
     32439 MEMB     271      POPC     O31      OSL     -0.490000       15.9994           0
     32440 MEMB     271      POPC     C31      CL       0.900000       12.0110           0
     32441 MEMB     271      POPC     O32      OBL     -0.630000       15.9994           0
     32442 MEMB     271      POPC     C32      CTL2    -0.220000       12.0110           0
     32443 MEMB     271      POPC     H2X      HAL2     0.900000E-01   1.00800           0
     32444 MEMB     271      POPC     H2Y      HAL2     0.900000E-01   1.00800           0
     32445 MEMB     271      POPC     C23      CTL2    -0.180000       12.0110           0
     32446 MEMB     271      POPC     H3R      HAL2     0.900000E-01   1.00800           0
     32447 MEMB     271      POPC     H3S      HAL2     0.900000E-01   1.00800           0
     32448 MEMB     271      POPC     C24      CTL2    -0.180000       12.0110           0
     32449 MEMB     271      POPC     H4R      HAL2     0.900000E-01   1.00800           0
     32450 MEMB     271      POPC     H4S      HAL2     0.900000E-01   1.00800           0
     32451 MEMB     271      POPC     C25      CTL2    -0.180000       12.0110           0
     32452 MEMB     271      POPC     H5R      HAL2     0.900000E-01   1.00800           0
     32453 MEMB     271      POPC     H5S      HAL2     0.900000E-01   1.00800           0
     32454 MEMB     271      POPC     C26      CTL2    -0.180000       12.0110           0
     32455 MEMB     271      POPC     H6R      HAL2     0.900000E-01   1.00800           0
     32456 MEMB     271      POPC     H6S      HAL2     0.900000E-01   1.00800           0
     32457 MEMB     271      POPC     C27      CTL2    -0.180000       12.0110           0
     32458 MEMB     271      POPC     H7R      HAL2     0.900000E-01   1.00800           0
     32459 MEMB     271      POPC     H7S      HAL2     0.900000E-01   1.00800           0
     32460 MEMB     271      POPC     C28      CTL2    -0.180000       12.0110           0
     32461 MEMB     271      POPC     H8R      HAL2     0.900000E-01   1.00800           0
     32462 MEMB     271      POPC     H8S      HAL2     0.900000E-01   1.00800           0
     32463 MEMB     271      POPC     C29      CEL1    -0.150000       12.0110           0
     32464 MEMB     271      POPC     H91      HEL1     0.150000       1.00800           0
     32465 MEMB     271      POPC     C210     CEL1    -0.150000       12.0110           0
     32466 MEMB     271      POPC     H101     HEL1     0.150000       1.00800           0
     32467 MEMB     271      POPC     C211     CTL2    -0.180000       12.0110           0
     32468 MEMB     271      POPC     H11R     HAL2     0.900000E-01   1.00800           0
     32469 MEMB     271      POPC     H11S     HAL2     0.900000E-01   1.00800           0
     32470 MEMB     271      POPC     C212     CTL2    -0.180000       12.0110           0
     32471 MEMB     271      POPC     H12R     HAL2     0.900000E-01   1.00800           0
     32472 MEMB     271      POPC     H12S     HAL2     0.900000E-01   1.00800           0
     32473 MEMB     271      POPC     C213     CTL2    -0.180000       12.0110           0
     32474 MEMB     271      POPC     H13R     HAL2     0.900000E-01   1.00800           0
     32475 MEMB     271      POPC     H13S     HAL2     0.900000E-01   1.00800           0
     32476 MEMB     271      POPC     C214     CTL2    -0.180000       12.0110           0
     32477 MEMB     271      POPC     H14R     HAL2     0.900000E-01   1.00800           0
     32478 MEMB     271      POPC     H14S     HAL2     0.900000E-01   1.00800           0
     32479 MEMB     271      POPC     C215     CTL2    -0.180000       12.0110           0
     32480 MEMB     271      POPC     H15R     HAL2     0.900000E-01   1.00800           0
     32481 MEMB     271      POPC     H15S     HAL2     0.900000E-01   1.00800           0
     32482 MEMB     271      POPC     C216     CTL2    -0.180000       12.0110           0
     32483 MEMB     271      POPC     H16R     HAL2     0.900000E-01   1.00800           0
     32484 MEMB     271      POPC     H16S     HAL2     0.900000E-01   1.00800           0
     32485 MEMB     271      POPC     C217     CTL2    -0.180000       12.0110           0
     32486 MEMB     271      POPC     H17R     HAL2     0.900000E-01   1.00800           0
     32487 MEMB     271      POPC     H17S     HAL2     0.900000E-01   1.00800           0
     32488 MEMB     271      POPC     C218     CTL3    -0.270000       12.0110           0
     32489 MEMB     271      POPC     H18R     HAL3     0.900000E-01   1.00800           0
     32490 MEMB     271      POPC     H18S     HAL3     0.900000E-01   1.00800           0
     32491 MEMB     271      POPC     H18T     HAL3     0.900000E-01   1.00800           0
     32492 MEMB     271      POPC     C33      CTL2    -0.180000       12.0110           0
     32493 MEMB     271      POPC     H3X      HAL2     0.900000E-01   1.00800           0
     32494 MEMB     271      POPC     H3Y      HAL2     0.900000E-01   1.00800           0
     32495 MEMB     271      POPC     C34      CTL2    -0.180000       12.0110           0
     32496 MEMB     271      POPC     H4X      HAL2     0.900000E-01   1.00800           0
     32497 MEMB     271      POPC     H4Y      HAL2     0.900000E-01   1.00800           0
     32498 MEMB     271      POPC     C35      CTL2    -0.180000       12.0110           0
     32499 MEMB     271      POPC     H5X      HAL2     0.900000E-01   1.00800           0
     32500 MEMB     271      POPC     H5Y      HAL2     0.900000E-01   1.00800           0
     32501 MEMB     271      POPC     C36      CTL2    -0.180000       12.0110           0
     32502 MEMB     271      POPC     H6X      HAL2     0.900000E-01   1.00800           0
     32503 MEMB     271      POPC     H6Y      HAL2     0.900000E-01   1.00800           0
     32504 MEMB     271      POPC     C37      CTL2    -0.180000       12.0110           0
     32505 MEMB     271      POPC     H7X      HAL2     0.900000E-01   1.00800           0
     32506 MEMB     271      POPC     H7Y      HAL2     0.900000E-01   1.00800           0
     32507 MEMB     271      POPC     C38      CTL2    -0.180000       12.0110           0
     32508 MEMB     271      POPC     H8X      HAL2     0.900000E-01   1.00800           0
     32509 MEMB     271      POPC     H8Y      HAL2     0.900000E-01   1.00800           0
     32510 MEMB     271      POPC     C39      CTL2    -0.180000       12.0110           0
     32511 MEMB     271      POPC     H9X      HAL2     0.900000E-01   1.00800           0
     32512 MEMB     271      POPC     H9Y      HAL2     0.900000E-01   1.00800           0
     32513 MEMB     271      POPC     C310     CTL2    -0.180000       12.0110           0
     32514 MEMB     271      POPC     H10X     HAL2     0.900000E-01   1.00800           0
     32515 MEMB     271      POPC     H10Y     HAL2     0.900000E-01   1.00800           0
     32516 MEMB     271      POPC     C311     CTL2    -0.180000       12.0110           0
     32517 MEMB     271      POPC     H11X     HAL2     0.900000E-01   1.00800           0
     32518 MEMB     271      POPC     H11Y     HAL2     0.900000E-01   1.00800           0
     32519 MEMB     271      POPC     C312     CTL2    -0.180000       12.0110           0
     32520 MEMB     271      POPC     H12X     HAL2     0.900000E-01   1.00800           0
     32521 MEMB     271      POPC     H12Y     HAL2     0.900000E-01   1.00800           0
     32522 MEMB     271      POPC     C313     CTL2    -0.180000       12.0110           0
     32523 MEMB     271      POPC     H13X     HAL2     0.900000E-01   1.00800           0
     32524 MEMB     271      POPC     H13Y     HAL2     0.900000E-01   1.00800           0
     32525 MEMB     271      POPC     C314     CTL2    -0.180000       12.0110           0
     32526 MEMB     271      POPC     H14X     HAL2     0.900000E-01   1.00800           0
     32527 MEMB     271      POPC     H14Y     HAL2     0.900000E-01   1.00800           0
     32528 MEMB     271      POPC     C315     CTL2    -0.180000       12.0110           0
     32529 MEMB     271      POPC     H15X     HAL2     0.900000E-01   1.00800           0
     32530 MEMB     271      POPC     H15Y     HAL2     0.900000E-01   1.00800           0
     32531 MEMB     271      POPC     C316     CTL3    -0.270000       12.0110           0
     32532 MEMB     271      POPC     H16X     HAL3     0.900000E-01   1.00800           0
     32533 MEMB     271      POPC     H16Y     HAL3     0.900000E-01   1.00800           0
     32534 MEMB     271      POPC     H16Z     HAL3     0.900000E-01   1.00800           0
     32535 MEMB     272      POPC     N        NTL     -0.600000       14.0070           0
     32536 MEMB     272      POPC     C12      CTL2    -0.100000       12.0110           0
     32537 MEMB     272      POPC     H12A     HL       0.250000       1.00800           0
     32538 MEMB     272      POPC     H12B     HL       0.250000       1.00800           0
     32539 MEMB     272      POPC     C13      CTL5    -0.350000       12.0110           0
     32540 MEMB     272      POPC     H13A     HL       0.250000       1.00800           0
     32541 MEMB     272      POPC     H13B     HL       0.250000       1.00800           0
     32542 MEMB     272      POPC     H13C     HL       0.250000       1.00800           0
     32543 MEMB     272      POPC     C14      CTL5    -0.350000       12.0110           0
     32544 MEMB     272      POPC     H14A     HL       0.250000       1.00800           0
     32545 MEMB     272      POPC     H14B     HL       0.250000       1.00800           0
     32546 MEMB     272      POPC     H14C     HL       0.250000       1.00800           0
     32547 MEMB     272      POPC     C15      CTL5    -0.350000       12.0110           0
     32548 MEMB     272      POPC     H15A     HL       0.250000       1.00800           0
     32549 MEMB     272      POPC     H15B     HL       0.250000       1.00800           0
     32550 MEMB     272      POPC     H15C     HL       0.250000       1.00800           0
     32551 MEMB     272      POPC     C11      CTL2    -0.800000E-01   12.0110           0
     32552 MEMB     272      POPC     H11A     HAL2     0.900000E-01   1.00800           0
     32553 MEMB     272      POPC     H11B     HAL2     0.900000E-01   1.00800           0
     32554 MEMB     272      POPC     P        PL        1.50000       30.9740           0
     32555 MEMB     272      POPC     O13      O2L     -0.780000       15.9994           0
     32556 MEMB     272      POPC     O14      O2L     -0.780000       15.9994           0
     32557 MEMB     272      POPC     O12      OSLP    -0.570000       15.9994           0
     32558 MEMB     272      POPC     O11      OSLP    -0.570000       15.9994           0
     32559 MEMB     272      POPC     C1       CTL2    -0.800000E-01   12.0110           0
     32560 MEMB     272      POPC     HA       HAL2     0.900000E-01   1.00800           0
     32561 MEMB     272      POPC     HB       HAL2     0.900000E-01   1.00800           0
     32562 MEMB     272      POPC     C2       CTL1     0.170000       12.0110           0
     32563 MEMB     272      POPC     HS       HAL1     0.900000E-01   1.00800           0
     32564 MEMB     272      POPC     O21      OSL     -0.490000       15.9994           0
     32565 MEMB     272      POPC     C21      CL       0.900000       12.0110           0
     32566 MEMB     272      POPC     O22      OBL     -0.630000       15.9994           0
     32567 MEMB     272      POPC     C22      CTL2    -0.220000       12.0110           0
     32568 MEMB     272      POPC     H2R      HAL2     0.900000E-01   1.00800           0
     32569 MEMB     272      POPC     H2S      HAL2     0.900000E-01   1.00800           0
     32570 MEMB     272      POPC     C3       CTL2     0.800000E-01   12.0110           0
     32571 MEMB     272      POPC     HX       HAL2     0.900000E-01   1.00800           0
     32572 MEMB     272      POPC     HY       HAL2     0.900000E-01   1.00800           0
     32573 MEMB     272      POPC     O31      OSL     -0.490000       15.9994           0
     32574 MEMB     272      POPC     C31      CL       0.900000       12.0110           0
     32575 MEMB     272      POPC     O32      OBL     -0.630000       15.9994           0
     32576 MEMB     272      POPC     C32      CTL2    -0.220000       12.0110           0
     32577 MEMB     272      POPC     H2X      HAL2     0.900000E-01   1.00800           0
     32578 MEMB     272      POPC     H2Y      HAL2     0.900000E-01   1.00800           0
     32579 MEMB     272      POPC     C23      CTL2    -0.180000       12.0110           0
     32580 MEMB     272      POPC     H3R      HAL2     0.900000E-01   1.00800           0
     32581 MEMB     272      POPC     H3S      HAL2     0.900000E-01   1.00800           0
     32582 MEMB     272      POPC     C24      CTL2    -0.180000       12.0110           0
     32583 MEMB     272      POPC     H4R      HAL2     0.900000E-01   1.00800           0
     32584 MEMB     272      POPC     H4S      HAL2     0.900000E-01   1.00800           0
     32585 MEMB     272      POPC     C25      CTL2    -0.180000       12.0110           0
     32586 MEMB     272      POPC     H5R      HAL2     0.900000E-01   1.00800           0
     32587 MEMB     272      POPC     H5S      HAL2     0.900000E-01   1.00800           0
     32588 MEMB     272      POPC     C26      CTL2    -0.180000       12.0110           0
     32589 MEMB     272      POPC     H6R      HAL2     0.900000E-01   1.00800           0
     32590 MEMB     272      POPC     H6S      HAL2     0.900000E-01   1.00800           0
     32591 MEMB     272      POPC     C27      CTL2    -0.180000       12.0110           0
     32592 MEMB     272      POPC     H7R      HAL2     0.900000E-01   1.00800           0
     32593 MEMB     272      POPC     H7S      HAL2     0.900000E-01   1.00800           0
     32594 MEMB     272      POPC     C28      CTL2    -0.180000       12.0110           0
     32595 MEMB     272      POPC     H8R      HAL2     0.900000E-01   1.00800           0
     32596 MEMB     272      POPC     H8S      HAL2     0.900000E-01   1.00800           0
     32597 MEMB     272      POPC     C29      CEL1    -0.150000       12.0110           0
     32598 MEMB     272      POPC     H91      HEL1     0.150000       1.00800           0
     32599 MEMB     272      POPC     C210     CEL1    -0.150000       12.0110           0
     32600 MEMB     272      POPC     H101     HEL1     0.150000       1.00800           0
     32601 MEMB     272      POPC     C211     CTL2    -0.180000       12.0110           0
     32602 MEMB     272      POPC     H11R     HAL2     0.900000E-01   1.00800           0
     32603 MEMB     272      POPC     H11S     HAL2     0.900000E-01   1.00800           0
     32604 MEMB     272      POPC     C212     CTL2    -0.180000       12.0110           0
     32605 MEMB     272      POPC     H12R     HAL2     0.900000E-01   1.00800           0
     32606 MEMB     272      POPC     H12S     HAL2     0.900000E-01   1.00800           0
     32607 MEMB     272      POPC     C213     CTL2    -0.180000       12.0110           0
     32608 MEMB     272      POPC     H13R     HAL2     0.900000E-01   1.00800           0
     32609 MEMB     272      POPC     H13S     HAL2     0.900000E-01   1.00800           0
     32610 MEMB     272      POPC     C214     CTL2    -0.180000       12.0110           0
     32611 MEMB     272      POPC     H14R     HAL2     0.900000E-01   1.00800           0
     32612 MEMB     272      POPC     H14S     HAL2     0.900000E-01   1.00800           0
     32613 MEMB     272      POPC     C215     CTL2    -0.180000       12.0110           0
     32614 MEMB     272      POPC     H15R     HAL2     0.900000E-01   1.00800           0
     32615 MEMB     272      POPC     H15S     HAL2     0.900000E-01   1.00800           0
     32616 MEMB     272      POPC     C216     CTL2    -0.180000       12.0110           0
     32617 MEMB     272      POPC     H16R     HAL2     0.900000E-01   1.00800           0
     32618 MEMB     272      POPC     H16S     HAL2     0.900000E-01   1.00800           0
     32619 MEMB     272      POPC     C217     CTL2    -0.180000       12.0110           0
     32620 MEMB     272      POPC     H17R     HAL2     0.900000E-01   1.00800           0
     32621 MEMB     272      POPC     H17S     HAL2     0.900000E-01   1.00800           0
     32622 MEMB     272      POPC     C218     CTL3    -0.270000       12.0110           0
     32623 MEMB     272      POPC     H18R     HAL3     0.900000E-01   1.00800           0
     32624 MEMB     272      POPC     H18S     HAL3     0.900000E-01   1.00800           0
     32625 MEMB     272      POPC     H18T     HAL3     0.900000E-01   1.00800           0
     32626 MEMB     272      POPC     C33      CTL2    -0.180000       12.0110           0
     32627 MEMB     272      POPC     H3X      HAL2     0.900000E-01   1.00800           0
     32628 MEMB     272      POPC     H3Y      HAL2     0.900000E-01   1.00800           0
     32629 MEMB     272      POPC     C34      CTL2    -0.180000       12.0110           0
     32630 MEMB     272      POPC     H4X      HAL2     0.900000E-01   1.00800           0
     32631 MEMB     272      POPC     H4Y      HAL2     0.900000E-01   1.00800           0
     32632 MEMB     272      POPC     C35      CTL2    -0.180000       12.0110           0
     32633 MEMB     272      POPC     H5X      HAL2     0.900000E-01   1.00800           0
     32634 MEMB     272      POPC     H5Y      HAL2     0.900000E-01   1.00800           0
     32635 MEMB     272      POPC     C36      CTL2    -0.180000       12.0110           0
     32636 MEMB     272      POPC     H6X      HAL2     0.900000E-01   1.00800           0
     32637 MEMB     272      POPC     H6Y      HAL2     0.900000E-01   1.00800           0
     32638 MEMB     272      POPC     C37      CTL2    -0.180000       12.0110           0
     32639 MEMB     272      POPC     H7X      HAL2     0.900000E-01   1.00800           0
     32640 MEMB     272      POPC     H7Y      HAL2     0.900000E-01   1.00800           0
     32641 MEMB     272      POPC     C38      CTL2    -0.180000       12.0110           0
     32642 MEMB     272      POPC     H8X      HAL2     0.900000E-01   1.00800           0
     32643 MEMB     272      POPC     H8Y      HAL2     0.900000E-01   1.00800           0
     32644 MEMB     272      POPC     C39      CTL2    -0.180000       12.0110           0
     32645 MEMB     272      POPC     H9X      HAL2     0.900000E-01   1.00800           0
     32646 MEMB     272      POPC     H9Y      HAL2     0.900000E-01   1.00800           0
     32647 MEMB     272      POPC     C310     CTL2    -0.180000       12.0110           0
     32648 MEMB     272      POPC     H10X     HAL2     0.900000E-01   1.00800           0
     32649 MEMB     272      POPC     H10Y     HAL2     0.900000E-01   1.00800           0
     32650 MEMB     272      POPC     C311     CTL2    -0.180000       12.0110           0
     32651 MEMB     272      POPC     H11X     HAL2     0.900000E-01   1.00800           0
     32652 MEMB     272      POPC     H11Y     HAL2     0.900000E-01   1.00800           0
     32653 MEMB     272      POPC     C312     CTL2    -0.180000       12.0110           0
     32654 MEMB     272      POPC     H12X     HAL2     0.900000E-01   1.00800           0
     32655 MEMB     272      POPC     H12Y     HAL2     0.900000E-01   1.00800           0
     32656 MEMB     272      POPC     C313     CTL2    -0.180000       12.0110           0
     32657 MEMB     272      POPC     H13X     HAL2     0.900000E-01   1.00800           0
     32658 MEMB     272      POPC     H13Y     HAL2     0.900000E-01   1.00800           0
     32659 MEMB     272      POPC     C314     CTL2    -0.180000       12.0110           0
     32660 MEMB     272      POPC     H14X     HAL2     0.900000E-01   1.00800           0
     32661 MEMB     272      POPC     H14Y     HAL2     0.900000E-01   1.00800           0
     32662 MEMB     272      POPC     C315     CTL2    -0.180000       12.0110           0
     32663 MEMB     272      POPC     H15X     HAL2     0.900000E-01   1.00800           0
     32664 MEMB     272      POPC     H15Y     HAL2     0.900000E-01   1.00800           0
     32665 MEMB     272      POPC     C316     CTL3    -0.270000       12.0110           0
     32666 MEMB     272      POPC     H16X     HAL3     0.900000E-01   1.00800           0
     32667 MEMB     272      POPC     H16Y     HAL3     0.900000E-01   1.00800           0
     32668 MEMB     272      POPC     H16Z     HAL3     0.900000E-01   1.00800           0
     32669 MEMB     273      POPC     N        NTL     -0.600000       14.0070           0
     32670 MEMB     273      POPC     C12      CTL2    -0.100000       12.0110           0
     32671 MEMB     273      POPC     H12A     HL       0.250000       1.00800           0
     32672 MEMB     273      POPC     H12B     HL       0.250000       1.00800           0
     32673 MEMB     273      POPC     C13      CTL5    -0.350000       12.0110           0
     32674 MEMB     273      POPC     H13A     HL       0.250000       1.00800           0
     32675 MEMB     273      POPC     H13B     HL       0.250000       1.00800           0
     32676 MEMB     273      POPC     H13C     HL       0.250000       1.00800           0
     32677 MEMB     273      POPC     C14      CTL5    -0.350000       12.0110           0
     32678 MEMB     273      POPC     H14A     HL       0.250000       1.00800           0
     32679 MEMB     273      POPC     H14B     HL       0.250000       1.00800           0
     32680 MEMB     273      POPC     H14C     HL       0.250000       1.00800           0
     32681 MEMB     273      POPC     C15      CTL5    -0.350000       12.0110           0
     32682 MEMB     273      POPC     H15A     HL       0.250000       1.00800           0
     32683 MEMB     273      POPC     H15B     HL       0.250000       1.00800           0
     32684 MEMB     273      POPC     H15C     HL       0.250000       1.00800           0
     32685 MEMB     273      POPC     C11      CTL2    -0.800000E-01   12.0110           0
     32686 MEMB     273      POPC     H11A     HAL2     0.900000E-01   1.00800           0
     32687 MEMB     273      POPC     H11B     HAL2     0.900000E-01   1.00800           0
     32688 MEMB     273      POPC     P        PL        1.50000       30.9740           0
     32689 MEMB     273      POPC     O13      O2L     -0.780000       15.9994           0
     32690 MEMB     273      POPC     O14      O2L     -0.780000       15.9994           0
     32691 MEMB     273      POPC     O12      OSLP    -0.570000       15.9994           0
     32692 MEMB     273      POPC     O11      OSLP    -0.570000       15.9994           0
     32693 MEMB     273      POPC     C1       CTL2    -0.800000E-01   12.0110           0
     32694 MEMB     273      POPC     HA       HAL2     0.900000E-01   1.00800           0
     32695 MEMB     273      POPC     HB       HAL2     0.900000E-01   1.00800           0
     32696 MEMB     273      POPC     C2       CTL1     0.170000       12.0110           0
     32697 MEMB     273      POPC     HS       HAL1     0.900000E-01   1.00800           0
     32698 MEMB     273      POPC     O21      OSL     -0.490000       15.9994           0
     32699 MEMB     273      POPC     C21      CL       0.900000       12.0110           0
     32700 MEMB     273      POPC     O22      OBL     -0.630000       15.9994           0
     32701 MEMB     273      POPC     C22      CTL2    -0.220000       12.0110           0
     32702 MEMB     273      POPC     H2R      HAL2     0.900000E-01   1.00800           0
     32703 MEMB     273      POPC     H2S      HAL2     0.900000E-01   1.00800           0
     32704 MEMB     273      POPC     C3       CTL2     0.800000E-01   12.0110           0
     32705 MEMB     273      POPC     HX       HAL2     0.900000E-01   1.00800           0
     32706 MEMB     273      POPC     HY       HAL2     0.900000E-01   1.00800           0
     32707 MEMB     273      POPC     O31      OSL     -0.490000       15.9994           0
     32708 MEMB     273      POPC     C31      CL       0.900000       12.0110           0
     32709 MEMB     273      POPC     O32      OBL     -0.630000       15.9994           0
     32710 MEMB     273      POPC     C32      CTL2    -0.220000       12.0110           0
     32711 MEMB     273      POPC     H2X      HAL2     0.900000E-01   1.00800           0
     32712 MEMB     273      POPC     H2Y      HAL2     0.900000E-01   1.00800           0
     32713 MEMB     273      POPC     C23      CTL2    -0.180000       12.0110           0
     32714 MEMB     273      POPC     H3R      HAL2     0.900000E-01   1.00800           0
     32715 MEMB     273      POPC     H3S      HAL2     0.900000E-01   1.00800           0
     32716 MEMB     273      POPC     C24      CTL2    -0.180000       12.0110           0
     32717 MEMB     273      POPC     H4R      HAL2     0.900000E-01   1.00800           0
     32718 MEMB     273      POPC     H4S      HAL2     0.900000E-01   1.00800           0
     32719 MEMB     273      POPC     C25      CTL2    -0.180000       12.0110           0
     32720 MEMB     273      POPC     H5R      HAL2     0.900000E-01   1.00800           0
     32721 MEMB     273      POPC     H5S      HAL2     0.900000E-01   1.00800           0
     32722 MEMB     273      POPC     C26      CTL2    -0.180000       12.0110           0
     32723 MEMB     273      POPC     H6R      HAL2     0.900000E-01   1.00800           0
     32724 MEMB     273      POPC     H6S      HAL2     0.900000E-01   1.00800           0
     32725 MEMB     273      POPC     C27      CTL2    -0.180000       12.0110           0
     32726 MEMB     273      POPC     H7R      HAL2     0.900000E-01   1.00800           0
     32727 MEMB     273      POPC     H7S      HAL2     0.900000E-01   1.00800           0
     32728 MEMB     273      POPC     C28      CTL2    -0.180000       12.0110           0
     32729 MEMB     273      POPC     H8R      HAL2     0.900000E-01   1.00800           0
     32730 MEMB     273      POPC     H8S      HAL2     0.900000E-01   1.00800           0
     32731 MEMB     273      POPC     C29      CEL1    -0.150000       12.0110           0
     32732 MEMB     273      POPC     H91      HEL1     0.150000       1.00800           0
     32733 MEMB     273      POPC     C210     CEL1    -0.150000       12.0110           0
     32734 MEMB     273      POPC     H101     HEL1     0.150000       1.00800           0
     32735 MEMB     273      POPC     C211     CTL2    -0.180000       12.0110           0
     32736 MEMB     273      POPC     H11R     HAL2     0.900000E-01   1.00800           0
     32737 MEMB     273      POPC     H11S     HAL2     0.900000E-01   1.00800           0
     32738 MEMB     273      POPC     C212     CTL2    -0.180000       12.0110           0
     32739 MEMB     273      POPC     H12R     HAL2     0.900000E-01   1.00800           0
     32740 MEMB     273      POPC     H12S     HAL2     0.900000E-01   1.00800           0
     32741 MEMB     273      POPC     C213     CTL2    -0.180000       12.0110           0
     32742 MEMB     273      POPC     H13R     HAL2     0.900000E-01   1.00800           0
     32743 MEMB     273      POPC     H13S     HAL2     0.900000E-01   1.00800           0
     32744 MEMB     273      POPC     C214     CTL2    -0.180000       12.0110           0
     32745 MEMB     273      POPC     H14R     HAL2     0.900000E-01   1.00800           0
     32746 MEMB     273      POPC     H14S     HAL2     0.900000E-01   1.00800           0
     32747 MEMB     273      POPC     C215     CTL2    -0.180000       12.0110           0
     32748 MEMB     273      POPC     H15R     HAL2     0.900000E-01   1.00800           0
     32749 MEMB     273      POPC     H15S     HAL2     0.900000E-01   1.00800           0
     32750 MEMB     273      POPC     C216     CTL2    -0.180000       12.0110           0
     32751 MEMB     273      POPC     H16R     HAL2     0.900000E-01   1.00800           0
     32752 MEMB     273      POPC     H16S     HAL2     0.900000E-01   1.00800           0
     32753 MEMB     273      POPC     C217     CTL2    -0.180000       12.0110           0
     32754 MEMB     273      POPC     H17R     HAL2     0.900000E-01   1.00800           0
     32755 MEMB     273      POPC     H17S     HAL2     0.900000E-01   1.00800           0
     32756 MEMB     273      POPC     C218     CTL3    -0.270000       12.0110           0
     32757 MEMB     273      POPC     H18R     HAL3     0.900000E-01   1.00800           0
     32758 MEMB     273      POPC     H18S     HAL3     0.900000E-01   1.00800           0
     32759 MEMB     273      POPC     H18T     HAL3     0.900000E-01   1.00800           0
     32760 MEMB     273      POPC     C33      CTL2    -0.180000       12.0110           0
     32761 MEMB     273      POPC     H3X      HAL2     0.900000E-01   1.00800           0
     32762 MEMB     273      POPC     H3Y      HAL2     0.900000E-01   1.00800           0
     32763 MEMB     273      POPC     C34      CTL2    -0.180000       12.0110           0
     32764 MEMB     273      POPC     H4X      HAL2     0.900000E-01   1.00800           0
     32765 MEMB     273      POPC     H4Y      HAL2     0.900000E-01   1.00800           0
     32766 MEMB     273      POPC     C35      CTL2    -0.180000       12.0110           0
     32767 MEMB     273      POPC     H5X      HAL2     0.900000E-01   1.00800           0
     32768 MEMB     273      POPC     H5Y      HAL2     0.900000E-01   1.00800           0
     32769 MEMB     273      POPC     C36      CTL2    -0.180000       12.0110           0
     32770 MEMB     273      POPC     H6X      HAL2     0.900000E-01   1.00800           0
     32771 MEMB     273      POPC     H6Y      HAL2     0.900000E-01   1.00800           0
     32772 MEMB     273      POPC     C37      CTL2    -0.180000       12.0110           0
     32773 MEMB     273      POPC     H7X      HAL2     0.900000E-01   1.00800           0
     32774 MEMB     273      POPC     H7Y      HAL2     0.900000E-01   1.00800           0
     32775 MEMB     273      POPC     C38      CTL2    -0.180000       12.0110           0
     32776 MEMB     273      POPC     H8X      HAL2     0.900000E-01   1.00800           0
     32777 MEMB     273      POPC     H8Y      HAL2     0.900000E-01   1.00800           0
     32778 MEMB     273      POPC     C39      CTL2    -0.180000       12.0110           0
     32779 MEMB     273      POPC     H9X      HAL2     0.900000E-01   1.00800           0
     32780 MEMB     273      POPC     H9Y      HAL2     0.900000E-01   1.00800           0
     32781 MEMB     273      POPC     C310     CTL2    -0.180000       12.0110           0
     32782 MEMB     273      POPC     H10X     HAL2     0.900000E-01   1.00800           0
     32783 MEMB     273      POPC     H10Y     HAL2     0.900000E-01   1.00800           0
     32784 MEMB     273      POPC     C311     CTL2    -0.180000       12.0110           0
     32785 MEMB     273      POPC     H11X     HAL2     0.900000E-01   1.00800           0
     32786 MEMB     273      POPC     H11Y     HAL2     0.900000E-01   1.00800           0
     32787 MEMB     273      POPC     C312     CTL2    -0.180000       12.0110           0
     32788 MEMB     273      POPC     H12X     HAL2     0.900000E-01   1.00800           0
     32789 MEMB     273      POPC     H12Y     HAL2     0.900000E-01   1.00800           0
     32790 MEMB     273      POPC     C313     CTL2    -0.180000       12.0110           0
     32791 MEMB     273      POPC     H13X     HAL2     0.900000E-01   1.00800           0
     32792 MEMB     273      POPC     H13Y     HAL2     0.900000E-01   1.00800           0
     32793 MEMB     273      POPC     C314     CTL2    -0.180000       12.0110           0
     32794 MEMB     273      POPC     H14X     HAL2     0.900000E-01   1.00800           0
     32795 MEMB     273      POPC     H14Y     HAL2     0.900000E-01   1.00800           0
     32796 MEMB     273      POPC     C315     CTL2    -0.180000       12.0110           0
     32797 MEMB     273      POPC     H15X     HAL2     0.900000E-01   1.00800           0
     32798 MEMB     273      POPC     H15Y     HAL2     0.900000E-01   1.00800           0
     32799 MEMB     273      POPC     C316     CTL3    -0.270000       12.0110           0
     32800 MEMB     273      POPC     H16X     HAL3     0.900000E-01   1.00800           0
     32801 MEMB     273      POPC     H16Y     HAL3     0.900000E-01   1.00800           0
     32802 MEMB     273      POPC     H16Z     HAL3     0.900000E-01   1.00800           0
     32803 MEMB     274      POPC     N        NTL     -0.600000       14.0070           0
     32804 MEMB     274      POPC     C12      CTL2    -0.100000       12.0110           0
     32805 MEMB     274      POPC     H12A     HL       0.250000       1.00800           0
     32806 MEMB     274      POPC     H12B     HL       0.250000       1.00800           0
     32807 MEMB     274      POPC     C13      CTL5    -0.350000       12.0110           0
     32808 MEMB     274      POPC     H13A     HL       0.250000       1.00800           0
     32809 MEMB     274      POPC     H13B     HL       0.250000       1.00800           0
     32810 MEMB     274      POPC     H13C     HL       0.250000       1.00800           0
     32811 MEMB     274      POPC     C14      CTL5    -0.350000       12.0110           0
     32812 MEMB     274      POPC     H14A     HL       0.250000       1.00800           0
     32813 MEMB     274      POPC     H14B     HL       0.250000       1.00800           0
     32814 MEMB     274      POPC     H14C     HL       0.250000       1.00800           0
     32815 MEMB     274      POPC     C15      CTL5    -0.350000       12.0110           0
     32816 MEMB     274      POPC     H15A     HL       0.250000       1.00800           0
     32817 MEMB     274      POPC     H15B     HL       0.250000       1.00800           0
     32818 MEMB     274      POPC     H15C     HL       0.250000       1.00800           0
     32819 MEMB     274      POPC     C11      CTL2    -0.800000E-01   12.0110           0
     32820 MEMB     274      POPC     H11A     HAL2     0.900000E-01   1.00800           0
     32821 MEMB     274      POPC     H11B     HAL2     0.900000E-01   1.00800           0
     32822 MEMB     274      POPC     P        PL        1.50000       30.9740           0
     32823 MEMB     274      POPC     O13      O2L     -0.780000       15.9994           0
     32824 MEMB     274      POPC     O14      O2L     -0.780000       15.9994           0
     32825 MEMB     274      POPC     O12      OSLP    -0.570000       15.9994           0
     32826 MEMB     274      POPC     O11      OSLP    -0.570000       15.9994           0
     32827 MEMB     274      POPC     C1       CTL2    -0.800000E-01   12.0110           0
     32828 MEMB     274      POPC     HA       HAL2     0.900000E-01   1.00800           0
     32829 MEMB     274      POPC     HB       HAL2     0.900000E-01   1.00800           0
     32830 MEMB     274      POPC     C2       CTL1     0.170000       12.0110           0
     32831 MEMB     274      POPC     HS       HAL1     0.900000E-01   1.00800           0
     32832 MEMB     274      POPC     O21      OSL     -0.490000       15.9994           0
     32833 MEMB     274      POPC     C21      CL       0.900000       12.0110           0
     32834 MEMB     274      POPC     O22      OBL     -0.630000       15.9994           0
     32835 MEMB     274      POPC     C22      CTL2    -0.220000       12.0110           0
     32836 MEMB     274      POPC     H2R      HAL2     0.900000E-01   1.00800           0
     32837 MEMB     274      POPC     H2S      HAL2     0.900000E-01   1.00800           0
     32838 MEMB     274      POPC     C3       CTL2     0.800000E-01   12.0110           0
     32839 MEMB     274      POPC     HX       HAL2     0.900000E-01   1.00800           0
     32840 MEMB     274      POPC     HY       HAL2     0.900000E-01   1.00800           0
     32841 MEMB     274      POPC     O31      OSL     -0.490000       15.9994           0
     32842 MEMB     274      POPC     C31      CL       0.900000       12.0110           0
     32843 MEMB     274      POPC     O32      OBL     -0.630000       15.9994           0
     32844 MEMB     274      POPC     C32      CTL2    -0.220000       12.0110           0
     32845 MEMB     274      POPC     H2X      HAL2     0.900000E-01   1.00800           0
     32846 MEMB     274      POPC     H2Y      HAL2     0.900000E-01   1.00800           0
     32847 MEMB     274      POPC     C23      CTL2    -0.180000       12.0110           0
     32848 MEMB     274      POPC     H3R      HAL2     0.900000E-01   1.00800           0
     32849 MEMB     274      POPC     H3S      HAL2     0.900000E-01   1.00800           0
     32850 MEMB     274      POPC     C24      CTL2    -0.180000       12.0110           0
     32851 MEMB     274      POPC     H4R      HAL2     0.900000E-01   1.00800           0
     32852 MEMB     274      POPC     H4S      HAL2     0.900000E-01   1.00800           0
     32853 MEMB     274      POPC     C25      CTL2    -0.180000       12.0110           0
     32854 MEMB     274      POPC     H5R      HAL2     0.900000E-01   1.00800           0
     32855 MEMB     274      POPC     H5S      HAL2     0.900000E-01   1.00800           0
     32856 MEMB     274      POPC     C26      CTL2    -0.180000       12.0110           0
     32857 MEMB     274      POPC     H6R      HAL2     0.900000E-01   1.00800           0
     32858 MEMB     274      POPC     H6S      HAL2     0.900000E-01   1.00800           0
     32859 MEMB     274      POPC     C27      CTL2    -0.180000       12.0110           0
     32860 MEMB     274      POPC     H7R      HAL2     0.900000E-01   1.00800           0
     32861 MEMB     274      POPC     H7S      HAL2     0.900000E-01   1.00800           0
     32862 MEMB     274      POPC     C28      CTL2    -0.180000       12.0110           0
     32863 MEMB     274      POPC     H8R      HAL2     0.900000E-01   1.00800           0
     32864 MEMB     274      POPC     H8S      HAL2     0.900000E-01   1.00800           0
     32865 MEMB     274      POPC     C29      CEL1    -0.150000       12.0110           0
     32866 MEMB     274      POPC     H91      HEL1     0.150000       1.00800           0
     32867 MEMB     274      POPC     C210     CEL1    -0.150000       12.0110           0
     32868 MEMB     274      POPC     H101     HEL1     0.150000       1.00800           0
     32869 MEMB     274      POPC     C211     CTL2    -0.180000       12.0110           0
     32870 MEMB     274      POPC     H11R     HAL2     0.900000E-01   1.00800           0
     32871 MEMB     274      POPC     H11S     HAL2     0.900000E-01   1.00800           0
     32872 MEMB     274      POPC     C212     CTL2    -0.180000       12.0110           0
     32873 MEMB     274      POPC     H12R     HAL2     0.900000E-01   1.00800           0
     32874 MEMB     274      POPC     H12S     HAL2     0.900000E-01   1.00800           0
     32875 MEMB     274      POPC     C213     CTL2    -0.180000       12.0110           0
     32876 MEMB     274      POPC     H13R     HAL2     0.900000E-01   1.00800           0
     32877 MEMB     274      POPC     H13S     HAL2     0.900000E-01   1.00800           0
     32878 MEMB     274      POPC     C214     CTL2    -0.180000       12.0110           0
     32879 MEMB     274      POPC     H14R     HAL2     0.900000E-01   1.00800           0
     32880 MEMB     274      POPC     H14S     HAL2     0.900000E-01   1.00800           0
     32881 MEMB     274      POPC     C215     CTL2    -0.180000       12.0110           0
     32882 MEMB     274      POPC     H15R     HAL2     0.900000E-01   1.00800           0
     32883 MEMB     274      POPC     H15S     HAL2     0.900000E-01   1.00800           0
     32884 MEMB     274      POPC     C216     CTL2    -0.180000       12.0110           0
     32885 MEMB     274      POPC     H16R     HAL2     0.900000E-01   1.00800           0
     32886 MEMB     274      POPC     H16S     HAL2     0.900000E-01   1.00800           0
     32887 MEMB     274      POPC     C217     CTL2    -0.180000       12.0110           0
     32888 MEMB     274      POPC     H17R     HAL2     0.900000E-01   1.00800           0
     32889 MEMB     274      POPC     H17S     HAL2     0.900000E-01   1.00800           0
     32890 MEMB     274      POPC     C218     CTL3    -0.270000       12.0110           0
     32891 MEMB     274      POPC     H18R     HAL3     0.900000E-01   1.00800           0
     32892 MEMB     274      POPC     H18S     HAL3     0.900000E-01   1.00800           0
     32893 MEMB     274      POPC     H18T     HAL3     0.900000E-01   1.00800           0
     32894 MEMB     274      POPC     C33      CTL2    -0.180000       12.0110           0
     32895 MEMB     274      POPC     H3X      HAL2     0.900000E-01   1.00800           0
     32896 MEMB     274      POPC     H3Y      HAL2     0.900000E-01   1.00800           0
     32897 MEMB     274      POPC     C34      CTL2    -0.180000       12.0110           0
     32898 MEMB     274      POPC     H4X      HAL2     0.900000E-01   1.00800           0
     32899 MEMB     274      POPC     H4Y      HAL2     0.900000E-01   1.00800           0
     32900 MEMB     274      POPC     C35      CTL2    -0.180000       12.0110           0
     32901 MEMB     274      POPC     H5X      HAL2     0.900000E-01   1.00800           0
     32902 MEMB     274      POPC     H5Y      HAL2     0.900000E-01   1.00800           0
     32903 MEMB     274      POPC     C36      CTL2    -0.180000       12.0110           0
     32904 MEMB     274      POPC     H6X      HAL2     0.900000E-01   1.00800           0
     32905 MEMB     274      POPC     H6Y      HAL2     0.900000E-01   1.00800           0
     32906 MEMB     274      POPC     C37      CTL2    -0.180000       12.0110           0
     32907 MEMB     274      POPC     H7X      HAL2     0.900000E-01   1.00800           0
     32908 MEMB     274      POPC     H7Y      HAL2     0.900000E-01   1.00800           0
     32909 MEMB     274      POPC     C38      CTL2    -0.180000       12.0110           0
     32910 MEMB     274      POPC     H8X      HAL2     0.900000E-01   1.00800           0
     32911 MEMB     274      POPC     H8Y      HAL2     0.900000E-01   1.00800           0
     32912 MEMB     274      POPC     C39      CTL2    -0.180000       12.0110           0
     32913 MEMB     274      POPC     H9X      HAL2     0.900000E-01   1.00800           0
     32914 MEMB     274      POPC     H9Y      HAL2     0.900000E-01   1.00800           0
     32915 MEMB     274      POPC     C310     CTL2    -0.180000       12.0110           0
     32916 MEMB     274      POPC     H10X     HAL2     0.900000E-01   1.00800           0
     32917 MEMB     274      POPC     H10Y     HAL2     0.900000E-01   1.00800           0
     32918 MEMB     274      POPC     C311     CTL2    -0.180000       12.0110           0
     32919 MEMB     274      POPC     H11X     HAL2     0.900000E-01   1.00800           0
     32920 MEMB     274      POPC     H11Y     HAL2     0.900000E-01   1.00800           0
     32921 MEMB     274      POPC     C312     CTL2    -0.180000       12.0110           0
     32922 MEMB     274      POPC     H12X     HAL2     0.900000E-01   1.00800           0
     32923 MEMB     274      POPC     H12Y     HAL2     0.900000E-01   1.00800           0
     32924 MEMB     274      POPC     C313     CTL2    -0.180000       12.0110           0
     32925 MEMB     274      POPC     H13X     HAL2     0.900000E-01   1.00800           0
     32926 MEMB     274      POPC     H13Y     HAL2     0.900000E-01   1.00800           0
     32927 MEMB     274      POPC     C314     CTL2    -0.180000       12.0110           0
     32928 MEMB     274      POPC     H14X     HAL2     0.900000E-01   1.00800           0
     32929 MEMB     274      POPC     H14Y     HAL2     0.900000E-01   1.00800           0
     32930 MEMB     274      POPC     C315     CTL2    -0.180000       12.0110           0
     32931 MEMB     274      POPC     H15X     HAL2     0.900000E-01   1.00800           0
     32932 MEMB     274      POPC     H15Y     HAL2     0.900000E-01   1.00800           0
     32933 MEMB     274      POPC     C316     CTL3    -0.270000       12.0110           0
     32934 MEMB     274      POPC     H16X     HAL3     0.900000E-01   1.00800           0
     32935 MEMB     274      POPC     H16Y     HAL3     0.900000E-01   1.00800           0
     32936 MEMB     274      POPC     H16Z     HAL3     0.900000E-01   1.00800           0
     32937 MEMB     275      POPC     N        NTL     -0.600000       14.0070           0
     32938 MEMB     275      POPC     C12      CTL2    -0.100000       12.0110           0
     32939 MEMB     275      POPC     H12A     HL       0.250000       1.00800           0
     32940 MEMB     275      POPC     H12B     HL       0.250000       1.00800           0
     32941 MEMB     275      POPC     C13      CTL5    -0.350000       12.0110           0
     32942 MEMB     275      POPC     H13A     HL       0.250000       1.00800           0
     32943 MEMB     275      POPC     H13B     HL       0.250000       1.00800           0
     32944 MEMB     275      POPC     H13C     HL       0.250000       1.00800           0
     32945 MEMB     275      POPC     C14      CTL5    -0.350000       12.0110           0
     32946 MEMB     275      POPC     H14A     HL       0.250000       1.00800           0
     32947 MEMB     275      POPC     H14B     HL       0.250000       1.00800           0
     32948 MEMB     275      POPC     H14C     HL       0.250000       1.00800           0
     32949 MEMB     275      POPC     C15      CTL5    -0.350000       12.0110           0
     32950 MEMB     275      POPC     H15A     HL       0.250000       1.00800           0
     32951 MEMB     275      POPC     H15B     HL       0.250000       1.00800           0
     32952 MEMB     275      POPC     H15C     HL       0.250000       1.00800           0
     32953 MEMB     275      POPC     C11      CTL2    -0.800000E-01   12.0110           0
     32954 MEMB     275      POPC     H11A     HAL2     0.900000E-01   1.00800           0
     32955 MEMB     275      POPC     H11B     HAL2     0.900000E-01   1.00800           0
     32956 MEMB     275      POPC     P        PL        1.50000       30.9740           0
     32957 MEMB     275      POPC     O13      O2L     -0.780000       15.9994           0
     32958 MEMB     275      POPC     O14      O2L     -0.780000       15.9994           0
     32959 MEMB     275      POPC     O12      OSLP    -0.570000       15.9994           0
     32960 MEMB     275      POPC     O11      OSLP    -0.570000       15.9994           0
     32961 MEMB     275      POPC     C1       CTL2    -0.800000E-01   12.0110           0
     32962 MEMB     275      POPC     HA       HAL2     0.900000E-01   1.00800           0
     32963 MEMB     275      POPC     HB       HAL2     0.900000E-01   1.00800           0
     32964 MEMB     275      POPC     C2       CTL1     0.170000       12.0110           0
     32965 MEMB     275      POPC     HS       HAL1     0.900000E-01   1.00800           0
     32966 MEMB     275      POPC     O21      OSL     -0.490000       15.9994           0
     32967 MEMB     275      POPC     C21      CL       0.900000       12.0110           0
     32968 MEMB     275      POPC     O22      OBL     -0.630000       15.9994           0
     32969 MEMB     275      POPC     C22      CTL2    -0.220000       12.0110           0
     32970 MEMB     275      POPC     H2R      HAL2     0.900000E-01   1.00800           0
     32971 MEMB     275      POPC     H2S      HAL2     0.900000E-01   1.00800           0
     32972 MEMB     275      POPC     C3       CTL2     0.800000E-01   12.0110           0
     32973 MEMB     275      POPC     HX       HAL2     0.900000E-01   1.00800           0
     32974 MEMB     275      POPC     HY       HAL2     0.900000E-01   1.00800           0
     32975 MEMB     275      POPC     O31      OSL     -0.490000       15.9994           0
     32976 MEMB     275      POPC     C31      CL       0.900000       12.0110           0
     32977 MEMB     275      POPC     O32      OBL     -0.630000       15.9994           0
     32978 MEMB     275      POPC     C32      CTL2    -0.220000       12.0110           0
     32979 MEMB     275      POPC     H2X      HAL2     0.900000E-01   1.00800           0
     32980 MEMB     275      POPC     H2Y      HAL2     0.900000E-01   1.00800           0
     32981 MEMB     275      POPC     C23      CTL2    -0.180000       12.0110           0
     32982 MEMB     275      POPC     H3R      HAL2     0.900000E-01   1.00800           0
     32983 MEMB     275      POPC     H3S      HAL2     0.900000E-01   1.00800           0
     32984 MEMB     275      POPC     C24      CTL2    -0.180000       12.0110           0
     32985 MEMB     275      POPC     H4R      HAL2     0.900000E-01   1.00800           0
     32986 MEMB     275      POPC     H4S      HAL2     0.900000E-01   1.00800           0
     32987 MEMB     275      POPC     C25      CTL2    -0.180000       12.0110           0
     32988 MEMB     275      POPC     H5R      HAL2     0.900000E-01   1.00800           0
     32989 MEMB     275      POPC     H5S      HAL2     0.900000E-01   1.00800           0
     32990 MEMB     275      POPC     C26      CTL2    -0.180000       12.0110           0
     32991 MEMB     275      POPC     H6R      HAL2     0.900000E-01   1.00800           0
     32992 MEMB     275      POPC     H6S      HAL2     0.900000E-01   1.00800           0
     32993 MEMB     275      POPC     C27      CTL2    -0.180000       12.0110           0
     32994 MEMB     275      POPC     H7R      HAL2     0.900000E-01   1.00800           0
     32995 MEMB     275      POPC     H7S      HAL2     0.900000E-01   1.00800           0
     32996 MEMB     275      POPC     C28      CTL2    -0.180000       12.0110           0
     32997 MEMB     275      POPC     H8R      HAL2     0.900000E-01   1.00800           0
     32998 MEMB     275      POPC     H8S      HAL2     0.900000E-01   1.00800           0
     32999 MEMB     275      POPC     C29      CEL1    -0.150000       12.0110           0
     33000 MEMB     275      POPC     H91      HEL1     0.150000       1.00800           0
     33001 MEMB     275      POPC     C210     CEL1    -0.150000       12.0110           0
     33002 MEMB     275      POPC     H101     HEL1     0.150000       1.00800           0
     33003 MEMB     275      POPC     C211     CTL2    -0.180000       12.0110           0
     33004 MEMB     275      POPC     H11R     HAL2     0.900000E-01   1.00800           0
     33005 MEMB     275      POPC     H11S     HAL2     0.900000E-01   1.00800           0
     33006 MEMB     275      POPC     C212     CTL2    -0.180000       12.0110           0
     33007 MEMB     275      POPC     H12R     HAL2     0.900000E-01   1.00800           0
     33008 MEMB     275      POPC     H12S     HAL2     0.900000E-01   1.00800           0
     33009 MEMB     275      POPC     C213     CTL2    -0.180000       12.0110           0
     33010 MEMB     275      POPC     H13R     HAL2     0.900000E-01   1.00800           0
     33011 MEMB     275      POPC     H13S     HAL2     0.900000E-01   1.00800           0
     33012 MEMB     275      POPC     C214     CTL2    -0.180000       12.0110           0
     33013 MEMB     275      POPC     H14R     HAL2     0.900000E-01   1.00800           0
     33014 MEMB     275      POPC     H14S     HAL2     0.900000E-01   1.00800           0
     33015 MEMB     275      POPC     C215     CTL2    -0.180000       12.0110           0
     33016 MEMB     275      POPC     H15R     HAL2     0.900000E-01   1.00800           0
     33017 MEMB     275      POPC     H15S     HAL2     0.900000E-01   1.00800           0
     33018 MEMB     275      POPC     C216     CTL2    -0.180000       12.0110           0
     33019 MEMB     275      POPC     H16R     HAL2     0.900000E-01   1.00800           0
     33020 MEMB     275      POPC     H16S     HAL2     0.900000E-01   1.00800           0
     33021 MEMB     275      POPC     C217     CTL2    -0.180000       12.0110           0
     33022 MEMB     275      POPC     H17R     HAL2     0.900000E-01   1.00800           0
     33023 MEMB     275      POPC     H17S     HAL2     0.900000E-01   1.00800           0
     33024 MEMB     275      POPC     C218     CTL3    -0.270000       12.0110           0
     33025 MEMB     275      POPC     H18R     HAL3     0.900000E-01   1.00800           0
     33026 MEMB     275      POPC     H18S     HAL3     0.900000E-01   1.00800           0
     33027 MEMB     275      POPC     H18T     HAL3     0.900000E-01   1.00800           0
     33028 MEMB     275      POPC     C33      CTL2    -0.180000       12.0110           0
     33029 MEMB     275      POPC     H3X      HAL2     0.900000E-01   1.00800           0
     33030 MEMB     275      POPC     H3Y      HAL2     0.900000E-01   1.00800           0
     33031 MEMB     275      POPC     C34      CTL2    -0.180000       12.0110           0
     33032 MEMB     275      POPC     H4X      HAL2     0.900000E-01   1.00800           0
     33033 MEMB     275      POPC     H4Y      HAL2     0.900000E-01   1.00800           0
     33034 MEMB     275      POPC     C35      CTL2    -0.180000       12.0110           0
     33035 MEMB     275      POPC     H5X      HAL2     0.900000E-01   1.00800           0
     33036 MEMB     275      POPC     H5Y      HAL2     0.900000E-01   1.00800           0
     33037 MEMB     275      POPC     C36      CTL2    -0.180000       12.0110           0
     33038 MEMB     275      POPC     H6X      HAL2     0.900000E-01   1.00800           0
     33039 MEMB     275      POPC     H6Y      HAL2     0.900000E-01   1.00800           0
     33040 MEMB     275      POPC     C37      CTL2    -0.180000       12.0110           0
     33041 MEMB     275      POPC     H7X      HAL2     0.900000E-01   1.00800           0
     33042 MEMB     275      POPC     H7Y      HAL2     0.900000E-01   1.00800           0
     33043 MEMB     275      POPC     C38      CTL2    -0.180000       12.0110           0
     33044 MEMB     275      POPC     H8X      HAL2     0.900000E-01   1.00800           0
     33045 MEMB     275      POPC     H8Y      HAL2     0.900000E-01   1.00800           0
     33046 MEMB     275      POPC     C39      CTL2    -0.180000       12.0110           0
     33047 MEMB     275      POPC     H9X      HAL2     0.900000E-01   1.00800           0
     33048 MEMB     275      POPC     H9Y      HAL2     0.900000E-01   1.00800           0
     33049 MEMB     275      POPC     C310     CTL2    -0.180000       12.0110           0
     33050 MEMB     275      POPC     H10X     HAL2     0.900000E-01   1.00800           0
     33051 MEMB     275      POPC     H10Y     HAL2     0.900000E-01   1.00800           0
     33052 MEMB     275      POPC     C311     CTL2    -0.180000       12.0110           0
     33053 MEMB     275      POPC     H11X     HAL2     0.900000E-01   1.00800           0
     33054 MEMB     275      POPC     H11Y     HAL2     0.900000E-01   1.00800           0
     33055 MEMB     275      POPC     C312     CTL2    -0.180000       12.0110           0
     33056 MEMB     275      POPC     H12X     HAL2     0.900000E-01   1.00800           0
     33057 MEMB     275      POPC     H12Y     HAL2     0.900000E-01   1.00800           0
     33058 MEMB     275      POPC     C313     CTL2    -0.180000       12.0110           0
     33059 MEMB     275      POPC     H13X     HAL2     0.900000E-01   1.00800           0
     33060 MEMB     275      POPC     H13Y     HAL2     0.900000E-01   1.00800           0
     33061 MEMB     275      POPC     C314     CTL2    -0.180000       12.0110           0
     33062 MEMB     275      POPC     H14X     HAL2     0.900000E-01   1.00800           0
     33063 MEMB     275      POPC     H14Y     HAL2     0.900000E-01   1.00800           0
     33064 MEMB     275      POPC     C315     CTL2    -0.180000       12.0110           0
     33065 MEMB     275      POPC     H15X     HAL2     0.900000E-01   1.00800           0
     33066 MEMB     275      POPC     H15Y     HAL2     0.900000E-01   1.00800           0
     33067 MEMB     275      POPC     C316     CTL3    -0.270000       12.0110           0
     33068 MEMB     275      POPC     H16X     HAL3     0.900000E-01   1.00800           0
     33069 MEMB     275      POPC     H16Y     HAL3     0.900000E-01   1.00800           0
     33070 MEMB     275      POPC     H16Z     HAL3     0.900000E-01   1.00800           0
     33071 MEMB     276      POPC     N        NTL     -0.600000       14.0070           0
     33072 MEMB     276      POPC     C12      CTL2    -0.100000       12.0110           0
     33073 MEMB     276      POPC     H12A     HL       0.250000       1.00800           0
     33074 MEMB     276      POPC     H12B     HL       0.250000       1.00800           0
     33075 MEMB     276      POPC     C13      CTL5    -0.350000       12.0110           0
     33076 MEMB     276      POPC     H13A     HL       0.250000       1.00800           0
     33077 MEMB     276      POPC     H13B     HL       0.250000       1.00800           0
     33078 MEMB     276      POPC     H13C     HL       0.250000       1.00800           0
     33079 MEMB     276      POPC     C14      CTL5    -0.350000       12.0110           0
     33080 MEMB     276      POPC     H14A     HL       0.250000       1.00800           0
     33081 MEMB     276      POPC     H14B     HL       0.250000       1.00800           0
     33082 MEMB     276      POPC     H14C     HL       0.250000       1.00800           0
     33083 MEMB     276      POPC     C15      CTL5    -0.350000       12.0110           0
     33084 MEMB     276      POPC     H15A     HL       0.250000       1.00800           0
     33085 MEMB     276      POPC     H15B     HL       0.250000       1.00800           0
     33086 MEMB     276      POPC     H15C     HL       0.250000       1.00800           0
     33087 MEMB     276      POPC     C11      CTL2    -0.800000E-01   12.0110           0
     33088 MEMB     276      POPC     H11A     HAL2     0.900000E-01   1.00800           0
     33089 MEMB     276      POPC     H11B     HAL2     0.900000E-01   1.00800           0
     33090 MEMB     276      POPC     P        PL        1.50000       30.9740           0
     33091 MEMB     276      POPC     O13      O2L     -0.780000       15.9994           0
     33092 MEMB     276      POPC     O14      O2L     -0.780000       15.9994           0
     33093 MEMB     276      POPC     O12      OSLP    -0.570000       15.9994           0
     33094 MEMB     276      POPC     O11      OSLP    -0.570000       15.9994           0
     33095 MEMB     276      POPC     C1       CTL2    -0.800000E-01   12.0110           0
     33096 MEMB     276      POPC     HA       HAL2     0.900000E-01   1.00800           0
     33097 MEMB     276      POPC     HB       HAL2     0.900000E-01   1.00800           0
     33098 MEMB     276      POPC     C2       CTL1     0.170000       12.0110           0
     33099 MEMB     276      POPC     HS       HAL1     0.900000E-01   1.00800           0
     33100 MEMB     276      POPC     O21      OSL     -0.490000       15.9994           0
     33101 MEMB     276      POPC     C21      CL       0.900000       12.0110           0
     33102 MEMB     276      POPC     O22      OBL     -0.630000       15.9994           0
     33103 MEMB     276      POPC     C22      CTL2    -0.220000       12.0110           0
     33104 MEMB     276      POPC     H2R      HAL2     0.900000E-01   1.00800           0
     33105 MEMB     276      POPC     H2S      HAL2     0.900000E-01   1.00800           0
     33106 MEMB     276      POPC     C3       CTL2     0.800000E-01   12.0110           0
     33107 MEMB     276      POPC     HX       HAL2     0.900000E-01   1.00800           0
     33108 MEMB     276      POPC     HY       HAL2     0.900000E-01   1.00800           0
     33109 MEMB     276      POPC     O31      OSL     -0.490000       15.9994           0
     33110 MEMB     276      POPC     C31      CL       0.900000       12.0110           0
     33111 MEMB     276      POPC     O32      OBL     -0.630000       15.9994           0
     33112 MEMB     276      POPC     C32      CTL2    -0.220000       12.0110           0
     33113 MEMB     276      POPC     H2X      HAL2     0.900000E-01   1.00800           0
     33114 MEMB     276      POPC     H2Y      HAL2     0.900000E-01   1.00800           0
     33115 MEMB     276      POPC     C23      CTL2    -0.180000       12.0110           0
     33116 MEMB     276      POPC     H3R      HAL2     0.900000E-01   1.00800           0
     33117 MEMB     276      POPC     H3S      HAL2     0.900000E-01   1.00800           0
     33118 MEMB     276      POPC     C24      CTL2    -0.180000       12.0110           0
     33119 MEMB     276      POPC     H4R      HAL2     0.900000E-01   1.00800           0
     33120 MEMB     276      POPC     H4S      HAL2     0.900000E-01   1.00800           0
     33121 MEMB     276      POPC     C25      CTL2    -0.180000       12.0110           0
     33122 MEMB     276      POPC     H5R      HAL2     0.900000E-01   1.00800           0
     33123 MEMB     276      POPC     H5S      HAL2     0.900000E-01   1.00800           0
     33124 MEMB     276      POPC     C26      CTL2    -0.180000       12.0110           0
     33125 MEMB     276      POPC     H6R      HAL2     0.900000E-01   1.00800           0
     33126 MEMB     276      POPC     H6S      HAL2     0.900000E-01   1.00800           0
     33127 MEMB     276      POPC     C27      CTL2    -0.180000       12.0110           0
     33128 MEMB     276      POPC     H7R      HAL2     0.900000E-01   1.00800           0
     33129 MEMB     276      POPC     H7S      HAL2     0.900000E-01   1.00800           0
     33130 MEMB     276      POPC     C28      CTL2    -0.180000       12.0110           0
     33131 MEMB     276      POPC     H8R      HAL2     0.900000E-01   1.00800           0
     33132 MEMB     276      POPC     H8S      HAL2     0.900000E-01   1.00800           0
     33133 MEMB     276      POPC     C29      CEL1    -0.150000       12.0110           0
     33134 MEMB     276      POPC     H91      HEL1     0.150000       1.00800           0
     33135 MEMB     276      POPC     C210     CEL1    -0.150000       12.0110           0
     33136 MEMB     276      POPC     H101     HEL1     0.150000       1.00800           0
     33137 MEMB     276      POPC     C211     CTL2    -0.180000       12.0110           0
     33138 MEMB     276      POPC     H11R     HAL2     0.900000E-01   1.00800           0
     33139 MEMB     276      POPC     H11S     HAL2     0.900000E-01   1.00800           0
     33140 MEMB     276      POPC     C212     CTL2    -0.180000       12.0110           0
     33141 MEMB     276      POPC     H12R     HAL2     0.900000E-01   1.00800           0
     33142 MEMB     276      POPC     H12S     HAL2     0.900000E-01   1.00800           0
     33143 MEMB     276      POPC     C213     CTL2    -0.180000       12.0110           0
     33144 MEMB     276      POPC     H13R     HAL2     0.900000E-01   1.00800           0
     33145 MEMB     276      POPC     H13S     HAL2     0.900000E-01   1.00800           0
     33146 MEMB     276      POPC     C214     CTL2    -0.180000       12.0110           0
     33147 MEMB     276      POPC     H14R     HAL2     0.900000E-01   1.00800           0
     33148 MEMB     276      POPC     H14S     HAL2     0.900000E-01   1.00800           0
     33149 MEMB     276      POPC     C215     CTL2    -0.180000       12.0110           0
     33150 MEMB     276      POPC     H15R     HAL2     0.900000E-01   1.00800           0
     33151 MEMB     276      POPC     H15S     HAL2     0.900000E-01   1.00800           0
     33152 MEMB     276      POPC     C216     CTL2    -0.180000       12.0110           0
     33153 MEMB     276      POPC     H16R     HAL2     0.900000E-01   1.00800           0
     33154 MEMB     276      POPC     H16S     HAL2     0.900000E-01   1.00800           0
     33155 MEMB     276      POPC     C217     CTL2    -0.180000       12.0110           0
     33156 MEMB     276      POPC     H17R     HAL2     0.900000E-01   1.00800           0
     33157 MEMB     276      POPC     H17S     HAL2     0.900000E-01   1.00800           0
     33158 MEMB     276      POPC     C218     CTL3    -0.270000       12.0110           0
     33159 MEMB     276      POPC     H18R     HAL3     0.900000E-01   1.00800           0
     33160 MEMB     276      POPC     H18S     HAL3     0.900000E-01   1.00800           0
     33161 MEMB     276      POPC     H18T     HAL3     0.900000E-01   1.00800           0
     33162 MEMB     276      POPC     C33      CTL2    -0.180000       12.0110           0
     33163 MEMB     276      POPC     H3X      HAL2     0.900000E-01   1.00800           0
     33164 MEMB     276      POPC     H3Y      HAL2     0.900000E-01   1.00800           0
     33165 MEMB     276      POPC     C34      CTL2    -0.180000       12.0110           0
     33166 MEMB     276      POPC     H4X      HAL2     0.900000E-01   1.00800           0
     33167 MEMB     276      POPC     H4Y      HAL2     0.900000E-01   1.00800           0
     33168 MEMB     276      POPC     C35      CTL2    -0.180000       12.0110           0
     33169 MEMB     276      POPC     H5X      HAL2     0.900000E-01   1.00800           0
     33170 MEMB     276      POPC     H5Y      HAL2     0.900000E-01   1.00800           0
     33171 MEMB     276      POPC     C36      CTL2    -0.180000       12.0110           0
     33172 MEMB     276      POPC     H6X      HAL2     0.900000E-01   1.00800           0
     33173 MEMB     276      POPC     H6Y      HAL2     0.900000E-01   1.00800           0
     33174 MEMB     276      POPC     C37      CTL2    -0.180000       12.0110           0
     33175 MEMB     276      POPC     H7X      HAL2     0.900000E-01   1.00800           0
     33176 MEMB     276      POPC     H7Y      HAL2     0.900000E-01   1.00800           0
     33177 MEMB     276      POPC     C38      CTL2    -0.180000       12.0110           0
     33178 MEMB     276      POPC     H8X      HAL2     0.900000E-01   1.00800           0
     33179 MEMB     276      POPC     H8Y      HAL2     0.900000E-01   1.00800           0
     33180 MEMB     276      POPC     C39      CTL2    -0.180000       12.0110           0
     33181 MEMB     276      POPC     H9X      HAL2     0.900000E-01   1.00800           0
     33182 MEMB     276      POPC     H9Y      HAL2     0.900000E-01   1.00800           0
     33183 MEMB     276      POPC     C310     CTL2    -0.180000       12.0110           0
     33184 MEMB     276      POPC     H10X     HAL2     0.900000E-01   1.00800           0
     33185 MEMB     276      POPC     H10Y     HAL2     0.900000E-01   1.00800           0
     33186 MEMB     276      POPC     C311     CTL2    -0.180000       12.0110           0
     33187 MEMB     276      POPC     H11X     HAL2     0.900000E-01   1.00800           0
     33188 MEMB     276      POPC     H11Y     HAL2     0.900000E-01   1.00800           0
     33189 MEMB     276      POPC     C312     CTL2    -0.180000       12.0110           0
     33190 MEMB     276      POPC     H12X     HAL2     0.900000E-01   1.00800           0
     33191 MEMB     276      POPC     H12Y     HAL2     0.900000E-01   1.00800           0
     33192 MEMB     276      POPC     C313     CTL2    -0.180000       12.0110           0
     33193 MEMB     276      POPC     H13X     HAL2     0.900000E-01   1.00800           0
     33194 MEMB     276      POPC     H13Y     HAL2     0.900000E-01   1.00800           0
     33195 MEMB     276      POPC     C314     CTL2    -0.180000       12.0110           0
     33196 MEMB     276      POPC     H14X     HAL2     0.900000E-01   1.00800           0
     33197 MEMB     276      POPC     H14Y     HAL2     0.900000E-01   1.00800           0
     33198 MEMB     276      POPC     C315     CTL2    -0.180000       12.0110           0
     33199 MEMB     276      POPC     H15X     HAL2     0.900000E-01   1.00800           0
     33200 MEMB     276      POPC     H15Y     HAL2     0.900000E-01   1.00800           0
     33201 MEMB     276      POPC     C316     CTL3    -0.270000       12.0110           0
     33202 MEMB     276      POPC     H16X     HAL3     0.900000E-01   1.00800           0
     33203 MEMB     276      POPC     H16Y     HAL3     0.900000E-01   1.00800           0
     33204 MEMB     276      POPC     H16Z     HAL3     0.900000E-01   1.00800           0
     33205 MEMB     277      POPC     N        NTL     -0.600000       14.0070           0
     33206 MEMB     277      POPC     C12      CTL2    -0.100000       12.0110           0
     33207 MEMB     277      POPC     H12A     HL       0.250000       1.00800           0
     33208 MEMB     277      POPC     H12B     HL       0.250000       1.00800           0
     33209 MEMB     277      POPC     C13      CTL5    -0.350000       12.0110           0
     33210 MEMB     277      POPC     H13A     HL       0.250000       1.00800           0
     33211 MEMB     277      POPC     H13B     HL       0.250000       1.00800           0
     33212 MEMB     277      POPC     H13C     HL       0.250000       1.00800           0
     33213 MEMB     277      POPC     C14      CTL5    -0.350000       12.0110           0
     33214 MEMB     277      POPC     H14A     HL       0.250000       1.00800           0
     33215 MEMB     277      POPC     H14B     HL       0.250000       1.00800           0
     33216 MEMB     277      POPC     H14C     HL       0.250000       1.00800           0
     33217 MEMB     277      POPC     C15      CTL5    -0.350000       12.0110           0
     33218 MEMB     277      POPC     H15A     HL       0.250000       1.00800           0
     33219 MEMB     277      POPC     H15B     HL       0.250000       1.00800           0
     33220 MEMB     277      POPC     H15C     HL       0.250000       1.00800           0
     33221 MEMB     277      POPC     C11      CTL2    -0.800000E-01   12.0110           0
     33222 MEMB     277      POPC     H11A     HAL2     0.900000E-01   1.00800           0
     33223 MEMB     277      POPC     H11B     HAL2     0.900000E-01   1.00800           0
     33224 MEMB     277      POPC     P        PL        1.50000       30.9740           0
     33225 MEMB     277      POPC     O13      O2L     -0.780000       15.9994           0
     33226 MEMB     277      POPC     O14      O2L     -0.780000       15.9994           0
     33227 MEMB     277      POPC     O12      OSLP    -0.570000       15.9994           0
     33228 MEMB     277      POPC     O11      OSLP    -0.570000       15.9994           0
     33229 MEMB     277      POPC     C1       CTL2    -0.800000E-01   12.0110           0
     33230 MEMB     277      POPC     HA       HAL2     0.900000E-01   1.00800           0
     33231 MEMB     277      POPC     HB       HAL2     0.900000E-01   1.00800           0
     33232 MEMB     277      POPC     C2       CTL1     0.170000       12.0110           0
     33233 MEMB     277      POPC     HS       HAL1     0.900000E-01   1.00800           0
     33234 MEMB     277      POPC     O21      OSL     -0.490000       15.9994           0
     33235 MEMB     277      POPC     C21      CL       0.900000       12.0110           0
     33236 MEMB     277      POPC     O22      OBL     -0.630000       15.9994           0
     33237 MEMB     277      POPC     C22      CTL2    -0.220000       12.0110           0
     33238 MEMB     277      POPC     H2R      HAL2     0.900000E-01   1.00800           0
     33239 MEMB     277      POPC     H2S      HAL2     0.900000E-01   1.00800           0
     33240 MEMB     277      POPC     C3       CTL2     0.800000E-01   12.0110           0
     33241 MEMB     277      POPC     HX       HAL2     0.900000E-01   1.00800           0
     33242 MEMB     277      POPC     HY       HAL2     0.900000E-01   1.00800           0
     33243 MEMB     277      POPC     O31      OSL     -0.490000       15.9994           0
     33244 MEMB     277      POPC     C31      CL       0.900000       12.0110           0
     33245 MEMB     277      POPC     O32      OBL     -0.630000       15.9994           0
     33246 MEMB     277      POPC     C32      CTL2    -0.220000       12.0110           0
     33247 MEMB     277      POPC     H2X      HAL2     0.900000E-01   1.00800           0
     33248 MEMB     277      POPC     H2Y      HAL2     0.900000E-01   1.00800           0
     33249 MEMB     277      POPC     C23      CTL2    -0.180000       12.0110           0
     33250 MEMB     277      POPC     H3R      HAL2     0.900000E-01   1.00800           0
     33251 MEMB     277      POPC     H3S      HAL2     0.900000E-01   1.00800           0
     33252 MEMB     277      POPC     C24      CTL2    -0.180000       12.0110           0
     33253 MEMB     277      POPC     H4R      HAL2     0.900000E-01   1.00800           0
     33254 MEMB     277      POPC     H4S      HAL2     0.900000E-01   1.00800           0
     33255 MEMB     277      POPC     C25      CTL2    -0.180000       12.0110           0
     33256 MEMB     277      POPC     H5R      HAL2     0.900000E-01   1.00800           0
     33257 MEMB     277      POPC     H5S      HAL2     0.900000E-01   1.00800           0
     33258 MEMB     277      POPC     C26      CTL2    -0.180000       12.0110           0
     33259 MEMB     277      POPC     H6R      HAL2     0.900000E-01   1.00800           0
     33260 MEMB     277      POPC     H6S      HAL2     0.900000E-01   1.00800           0
     33261 MEMB     277      POPC     C27      CTL2    -0.180000       12.0110           0
     33262 MEMB     277      POPC     H7R      HAL2     0.900000E-01   1.00800           0
     33263 MEMB     277      POPC     H7S      HAL2     0.900000E-01   1.00800           0
     33264 MEMB     277      POPC     C28      CTL2    -0.180000       12.0110           0
     33265 MEMB     277      POPC     H8R      HAL2     0.900000E-01   1.00800           0
     33266 MEMB     277      POPC     H8S      HAL2     0.900000E-01   1.00800           0
     33267 MEMB     277      POPC     C29      CEL1    -0.150000       12.0110           0
     33268 MEMB     277      POPC     H91      HEL1     0.150000       1.00800           0
     33269 MEMB     277      POPC     C210     CEL1    -0.150000       12.0110           0
     33270 MEMB     277      POPC     H101     HEL1     0.150000       1.00800           0
     33271 MEMB     277      POPC     C211     CTL2    -0.180000       12.0110           0
     33272 MEMB     277      POPC     H11R     HAL2     0.900000E-01   1.00800           0
     33273 MEMB     277      POPC     H11S     HAL2     0.900000E-01   1.00800           0
     33274 MEMB     277      POPC     C212     CTL2    -0.180000       12.0110           0
     33275 MEMB     277      POPC     H12R     HAL2     0.900000E-01   1.00800           0
     33276 MEMB     277      POPC     H12S     HAL2     0.900000E-01   1.00800           0
     33277 MEMB     277      POPC     C213     CTL2    -0.180000       12.0110           0
     33278 MEMB     277      POPC     H13R     HAL2     0.900000E-01   1.00800           0
     33279 MEMB     277      POPC     H13S     HAL2     0.900000E-01   1.00800           0
     33280 MEMB     277      POPC     C214     CTL2    -0.180000       12.0110           0
     33281 MEMB     277      POPC     H14R     HAL2     0.900000E-01   1.00800           0
     33282 MEMB     277      POPC     H14S     HAL2     0.900000E-01   1.00800           0
     33283 MEMB     277      POPC     C215     CTL2    -0.180000       12.0110           0
     33284 MEMB     277      POPC     H15R     HAL2     0.900000E-01   1.00800           0
     33285 MEMB     277      POPC     H15S     HAL2     0.900000E-01   1.00800           0
     33286 MEMB     277      POPC     C216     CTL2    -0.180000       12.0110           0
     33287 MEMB     277      POPC     H16R     HAL2     0.900000E-01   1.00800           0
     33288 MEMB     277      POPC     H16S     HAL2     0.900000E-01   1.00800           0
     33289 MEMB     277      POPC     C217     CTL2    -0.180000       12.0110           0
     33290 MEMB     277      POPC     H17R     HAL2     0.900000E-01   1.00800           0
     33291 MEMB     277      POPC     H17S     HAL2     0.900000E-01   1.00800           0
     33292 MEMB     277      POPC     C218     CTL3    -0.270000       12.0110           0
     33293 MEMB     277      POPC     H18R     HAL3     0.900000E-01   1.00800           0
     33294 MEMB     277      POPC     H18S     HAL3     0.900000E-01   1.00800           0
     33295 MEMB     277      POPC     H18T     HAL3     0.900000E-01   1.00800           0
     33296 MEMB     277      POPC     C33      CTL2    -0.180000       12.0110           0
     33297 MEMB     277      POPC     H3X      HAL2     0.900000E-01   1.00800           0
     33298 MEMB     277      POPC     H3Y      HAL2     0.900000E-01   1.00800           0
     33299 MEMB     277      POPC     C34      CTL2    -0.180000       12.0110           0
     33300 MEMB     277      POPC     H4X      HAL2     0.900000E-01   1.00800           0
     33301 MEMB     277      POPC     H4Y      HAL2     0.900000E-01   1.00800           0
     33302 MEMB     277      POPC     C35      CTL2    -0.180000       12.0110           0
     33303 MEMB     277      POPC     H5X      HAL2     0.900000E-01   1.00800           0
     33304 MEMB     277      POPC     H5Y      HAL2     0.900000E-01   1.00800           0
     33305 MEMB     277      POPC     C36      CTL2    -0.180000       12.0110           0
     33306 MEMB     277      POPC     H6X      HAL2     0.900000E-01   1.00800           0
     33307 MEMB     277      POPC     H6Y      HAL2     0.900000E-01   1.00800           0
     33308 MEMB     277      POPC     C37      CTL2    -0.180000       12.0110           0
     33309 MEMB     277      POPC     H7X      HAL2     0.900000E-01   1.00800           0
     33310 MEMB     277      POPC     H7Y      HAL2     0.900000E-01   1.00800           0
     33311 MEMB     277      POPC     C38      CTL2    -0.180000       12.0110           0
     33312 MEMB     277      POPC     H8X      HAL2     0.900000E-01   1.00800           0
     33313 MEMB     277      POPC     H8Y      HAL2     0.900000E-01   1.00800           0
     33314 MEMB     277      POPC     C39      CTL2    -0.180000       12.0110           0
     33315 MEMB     277      POPC     H9X      HAL2     0.900000E-01   1.00800           0
     33316 MEMB     277      POPC     H9Y      HAL2     0.900000E-01   1.00800           0
     33317 MEMB     277      POPC     C310     CTL2    -0.180000       12.0110           0
     33318 MEMB     277      POPC     H10X     HAL2     0.900000E-01   1.00800           0
     33319 MEMB     277      POPC     H10Y     HAL2     0.900000E-01   1.00800           0
     33320 MEMB     277      POPC     C311     CTL2    -0.180000       12.0110           0
     33321 MEMB     277      POPC     H11X     HAL2     0.900000E-01   1.00800           0
     33322 MEMB     277      POPC     H11Y     HAL2     0.900000E-01   1.00800           0
     33323 MEMB     277      POPC     C312     CTL2    -0.180000       12.0110           0
     33324 MEMB     277      POPC     H12X     HAL2     0.900000E-01   1.00800           0
     33325 MEMB     277      POPC     H12Y     HAL2     0.900000E-01   1.00800           0
     33326 MEMB     277      POPC     C313     CTL2    -0.180000       12.0110           0
     33327 MEMB     277      POPC     H13X     HAL2     0.900000E-01   1.00800           0
     33328 MEMB     277      POPC     H13Y     HAL2     0.900000E-01   1.00800           0
     33329 MEMB     277      POPC     C314     CTL2    -0.180000       12.0110           0
     33330 MEMB     277      POPC     H14X     HAL2     0.900000E-01   1.00800           0
     33331 MEMB     277      POPC     H14Y     HAL2     0.900000E-01   1.00800           0
     33332 MEMB     277      POPC     C315     CTL2    -0.180000       12.0110           0
     33333 MEMB     277      POPC     H15X     HAL2     0.900000E-01   1.00800           0
     33334 MEMB     277      POPC     H15Y     HAL2     0.900000E-01   1.00800           0
     33335 MEMB     277      POPC     C316     CTL3    -0.270000       12.0110           0
     33336 MEMB     277      POPC     H16X     HAL3     0.900000E-01   1.00800           0
     33337 MEMB     277      POPC     H16Y     HAL3     0.900000E-01   1.00800           0
     33338 MEMB     277      POPC     H16Z     HAL3     0.900000E-01   1.00800           0
     33339 MEMB     278      POPC     N        NTL     -0.600000       14.0070           0
     33340 MEMB     278      POPC     C12      CTL2    -0.100000       12.0110           0
     33341 MEMB     278      POPC     H12A     HL       0.250000       1.00800           0
     33342 MEMB     278      POPC     H12B     HL       0.250000       1.00800           0
     33343 MEMB     278      POPC     C13      CTL5    -0.350000       12.0110           0
     33344 MEMB     278      POPC     H13A     HL       0.250000       1.00800           0
     33345 MEMB     278      POPC     H13B     HL       0.250000       1.00800           0
     33346 MEMB     278      POPC     H13C     HL       0.250000       1.00800           0
     33347 MEMB     278      POPC     C14      CTL5    -0.350000       12.0110           0
     33348 MEMB     278      POPC     H14A     HL       0.250000       1.00800           0
     33349 MEMB     278      POPC     H14B     HL       0.250000       1.00800           0
     33350 MEMB     278      POPC     H14C     HL       0.250000       1.00800           0
     33351 MEMB     278      POPC     C15      CTL5    -0.350000       12.0110           0
     33352 MEMB     278      POPC     H15A     HL       0.250000       1.00800           0
     33353 MEMB     278      POPC     H15B     HL       0.250000       1.00800           0
     33354 MEMB     278      POPC     H15C     HL       0.250000       1.00800           0
     33355 MEMB     278      POPC     C11      CTL2    -0.800000E-01   12.0110           0
     33356 MEMB     278      POPC     H11A     HAL2     0.900000E-01   1.00800           0
     33357 MEMB     278      POPC     H11B     HAL2     0.900000E-01   1.00800           0
     33358 MEMB     278      POPC     P        PL        1.50000       30.9740           0
     33359 MEMB     278      POPC     O13      O2L     -0.780000       15.9994           0
     33360 MEMB     278      POPC     O14      O2L     -0.780000       15.9994           0
     33361 MEMB     278      POPC     O12      OSLP    -0.570000       15.9994           0
     33362 MEMB     278      POPC     O11      OSLP    -0.570000       15.9994           0
     33363 MEMB     278      POPC     C1       CTL2    -0.800000E-01   12.0110           0
     33364 MEMB     278      POPC     HA       HAL2     0.900000E-01   1.00800           0
     33365 MEMB     278      POPC     HB       HAL2     0.900000E-01   1.00800           0
     33366 MEMB     278      POPC     C2       CTL1     0.170000       12.0110           0
     33367 MEMB     278      POPC     HS       HAL1     0.900000E-01   1.00800           0
     33368 MEMB     278      POPC     O21      OSL     -0.490000       15.9994           0
     33369 MEMB     278      POPC     C21      CL       0.900000       12.0110           0
     33370 MEMB     278      POPC     O22      OBL     -0.630000       15.9994           0
     33371 MEMB     278      POPC     C22      CTL2    -0.220000       12.0110           0
     33372 MEMB     278      POPC     H2R      HAL2     0.900000E-01   1.00800           0
     33373 MEMB     278      POPC     H2S      HAL2     0.900000E-01   1.00800           0
     33374 MEMB     278      POPC     C3       CTL2     0.800000E-01   12.0110           0
     33375 MEMB     278      POPC     HX       HAL2     0.900000E-01   1.00800           0
     33376 MEMB     278      POPC     HY       HAL2     0.900000E-01   1.00800           0
     33377 MEMB     278      POPC     O31      OSL     -0.490000       15.9994           0
     33378 MEMB     278      POPC     C31      CL       0.900000       12.0110           0
     33379 MEMB     278      POPC     O32      OBL     -0.630000       15.9994           0
     33380 MEMB     278      POPC     C32      CTL2    -0.220000       12.0110           0
     33381 MEMB     278      POPC     H2X      HAL2     0.900000E-01   1.00800           0
     33382 MEMB     278      POPC     H2Y      HAL2     0.900000E-01   1.00800           0
     33383 MEMB     278      POPC     C23      CTL2    -0.180000       12.0110           0
     33384 MEMB     278      POPC     H3R      HAL2     0.900000E-01   1.00800           0
     33385 MEMB     278      POPC     H3S      HAL2     0.900000E-01   1.00800           0
     33386 MEMB     278      POPC     C24      CTL2    -0.180000       12.0110           0
     33387 MEMB     278      POPC     H4R      HAL2     0.900000E-01   1.00800           0
     33388 MEMB     278      POPC     H4S      HAL2     0.900000E-01   1.00800           0
     33389 MEMB     278      POPC     C25      CTL2    -0.180000       12.0110           0
     33390 MEMB     278      POPC     H5R      HAL2     0.900000E-01   1.00800           0
     33391 MEMB     278      POPC     H5S      HAL2     0.900000E-01   1.00800           0
     33392 MEMB     278      POPC     C26      CTL2    -0.180000       12.0110           0
     33393 MEMB     278      POPC     H6R      HAL2     0.900000E-01   1.00800           0
     33394 MEMB     278      POPC     H6S      HAL2     0.900000E-01   1.00800           0
     33395 MEMB     278      POPC     C27      CTL2    -0.180000       12.0110           0
     33396 MEMB     278      POPC     H7R      HAL2     0.900000E-01   1.00800           0
     33397 MEMB     278      POPC     H7S      HAL2     0.900000E-01   1.00800           0
     33398 MEMB     278      POPC     C28      CTL2    -0.180000       12.0110           0
     33399 MEMB     278      POPC     H8R      HAL2     0.900000E-01   1.00800           0
     33400 MEMB     278      POPC     H8S      HAL2     0.900000E-01   1.00800           0
     33401 MEMB     278      POPC     C29      CEL1    -0.150000       12.0110           0
     33402 MEMB     278      POPC     H91      HEL1     0.150000       1.00800           0
     33403 MEMB     278      POPC     C210     CEL1    -0.150000       12.0110           0
     33404 MEMB     278      POPC     H101     HEL1     0.150000       1.00800           0
     33405 MEMB     278      POPC     C211     CTL2    -0.180000       12.0110           0
     33406 MEMB     278      POPC     H11R     HAL2     0.900000E-01   1.00800           0
     33407 MEMB     278      POPC     H11S     HAL2     0.900000E-01   1.00800           0
     33408 MEMB     278      POPC     C212     CTL2    -0.180000       12.0110           0
     33409 MEMB     278      POPC     H12R     HAL2     0.900000E-01   1.00800           0
     33410 MEMB     278      POPC     H12S     HAL2     0.900000E-01   1.00800           0
     33411 MEMB     278      POPC     C213     CTL2    -0.180000       12.0110           0
     33412 MEMB     278      POPC     H13R     HAL2     0.900000E-01   1.00800           0
     33413 MEMB     278      POPC     H13S     HAL2     0.900000E-01   1.00800           0
     33414 MEMB     278      POPC     C214     CTL2    -0.180000       12.0110           0
     33415 MEMB     278      POPC     H14R     HAL2     0.900000E-01   1.00800           0
     33416 MEMB     278      POPC     H14S     HAL2     0.900000E-01   1.00800           0
     33417 MEMB     278      POPC     C215     CTL2    -0.180000       12.0110           0
     33418 MEMB     278      POPC     H15R     HAL2     0.900000E-01   1.00800           0
     33419 MEMB     278      POPC     H15S     HAL2     0.900000E-01   1.00800           0
     33420 MEMB     278      POPC     C216     CTL2    -0.180000       12.0110           0
     33421 MEMB     278      POPC     H16R     HAL2     0.900000E-01   1.00800           0
     33422 MEMB     278      POPC     H16S     HAL2     0.900000E-01   1.00800           0
     33423 MEMB     278      POPC     C217     CTL2    -0.180000       12.0110           0
     33424 MEMB     278      POPC     H17R     HAL2     0.900000E-01   1.00800           0
     33425 MEMB     278      POPC     H17S     HAL2     0.900000E-01   1.00800           0
     33426 MEMB     278      POPC     C218     CTL3    -0.270000       12.0110           0
     33427 MEMB     278      POPC     H18R     HAL3     0.900000E-01   1.00800           0
     33428 MEMB     278      POPC     H18S     HAL3     0.900000E-01   1.00800           0
     33429 MEMB     278      POPC     H18T     HAL3     0.900000E-01   1.00800           0
     33430 MEMB     278      POPC     C33      CTL2    -0.180000       12.0110           0
     33431 MEMB     278      POPC     H3X      HAL2     0.900000E-01   1.00800           0
     33432 MEMB     278      POPC     H3Y      HAL2     0.900000E-01   1.00800           0
     33433 MEMB     278      POPC     C34      CTL2    -0.180000       12.0110           0
     33434 MEMB     278      POPC     H4X      HAL2     0.900000E-01   1.00800           0
     33435 MEMB     278      POPC     H4Y      HAL2     0.900000E-01   1.00800           0
     33436 MEMB     278      POPC     C35      CTL2    -0.180000       12.0110           0
     33437 MEMB     278      POPC     H5X      HAL2     0.900000E-01   1.00800           0
     33438 MEMB     278      POPC     H5Y      HAL2     0.900000E-01   1.00800           0
     33439 MEMB     278      POPC     C36      CTL2    -0.180000       12.0110           0
     33440 MEMB     278      POPC     H6X      HAL2     0.900000E-01   1.00800           0
     33441 MEMB     278      POPC     H6Y      HAL2     0.900000E-01   1.00800           0
     33442 MEMB     278      POPC     C37      CTL2    -0.180000       12.0110           0
     33443 MEMB     278      POPC     H7X      HAL2     0.900000E-01   1.00800           0
     33444 MEMB     278      POPC     H7Y      HAL2     0.900000E-01   1.00800           0
     33445 MEMB     278      POPC     C38      CTL2    -0.180000       12.0110           0
     33446 MEMB     278      POPC     H8X      HAL2     0.900000E-01   1.00800           0
     33447 MEMB     278      POPC     H8Y      HAL2     0.900000E-01   1.00800           0
     33448 MEMB     278      POPC     C39      CTL2    -0.180000       12.0110           0
     33449 MEMB     278      POPC     H9X      HAL2     0.900000E-01   1.00800           0
     33450 MEMB     278      POPC     H9Y      HAL2     0.900000E-01   1.00800           0
     33451 MEMB     278      POPC     C310     CTL2    -0.180000       12.0110           0
     33452 MEMB     278      POPC     H10X     HAL2     0.900000E-01   1.00800           0
     33453 MEMB     278      POPC     H10Y     HAL2     0.900000E-01   1.00800           0
     33454 MEMB     278      POPC     C311     CTL2    -0.180000       12.0110           0
     33455 MEMB     278      POPC     H11X     HAL2     0.900000E-01   1.00800           0
     33456 MEMB     278      POPC     H11Y     HAL2     0.900000E-01   1.00800           0
     33457 MEMB     278      POPC     C312     CTL2    -0.180000       12.0110           0
     33458 MEMB     278      POPC     H12X     HAL2     0.900000E-01   1.00800           0
     33459 MEMB     278      POPC     H12Y     HAL2     0.900000E-01   1.00800           0
     33460 MEMB     278      POPC     C313     CTL2    -0.180000       12.0110           0
     33461 MEMB     278      POPC     H13X     HAL2     0.900000E-01   1.00800           0
     33462 MEMB     278      POPC     H13Y     HAL2     0.900000E-01   1.00800           0
     33463 MEMB     278      POPC     C314     CTL2    -0.180000       12.0110           0
     33464 MEMB     278      POPC     H14X     HAL2     0.900000E-01   1.00800           0
     33465 MEMB     278      POPC     H14Y     HAL2     0.900000E-01   1.00800           0
     33466 MEMB     278      POPC     C315     CTL2    -0.180000       12.0110           0
     33467 MEMB     278      POPC     H15X     HAL2     0.900000E-01   1.00800           0
     33468 MEMB     278      POPC     H15Y     HAL2     0.900000E-01   1.00800           0
     33469 MEMB     278      POPC     C316     CTL3    -0.270000       12.0110           0
     33470 MEMB     278      POPC     H16X     HAL3     0.900000E-01   1.00800           0
     33471 MEMB     278      POPC     H16Y     HAL3     0.900000E-01   1.00800           0
     33472 MEMB     278      POPC     H16Z     HAL3     0.900000E-01   1.00800           0
     33473 MEMB     279      POPC     N        NTL     -0.600000       14.0070           0
     33474 MEMB     279      POPC     C12      CTL2    -0.100000       12.0110           0
     33475 MEMB     279      POPC     H12A     HL       0.250000       1.00800           0
     33476 MEMB     279      POPC     H12B     HL       0.250000       1.00800           0
     33477 MEMB     279      POPC     C13      CTL5    -0.350000       12.0110           0
     33478 MEMB     279      POPC     H13A     HL       0.250000       1.00800           0
     33479 MEMB     279      POPC     H13B     HL       0.250000       1.00800           0
     33480 MEMB     279      POPC     H13C     HL       0.250000       1.00800           0
     33481 MEMB     279      POPC     C14      CTL5    -0.350000       12.0110           0
     33482 MEMB     279      POPC     H14A     HL       0.250000       1.00800           0
     33483 MEMB     279      POPC     H14B     HL       0.250000       1.00800           0
     33484 MEMB     279      POPC     H14C     HL       0.250000       1.00800           0
     33485 MEMB     279      POPC     C15      CTL5    -0.350000       12.0110           0
     33486 MEMB     279      POPC     H15A     HL       0.250000       1.00800           0
     33487 MEMB     279      POPC     H15B     HL       0.250000       1.00800           0
     33488 MEMB     279      POPC     H15C     HL       0.250000       1.00800           0
     33489 MEMB     279      POPC     C11      CTL2    -0.800000E-01   12.0110           0
     33490 MEMB     279      POPC     H11A     HAL2     0.900000E-01   1.00800           0
     33491 MEMB     279      POPC     H11B     HAL2     0.900000E-01   1.00800           0
     33492 MEMB     279      POPC     P        PL        1.50000       30.9740           0
     33493 MEMB     279      POPC     O13      O2L     -0.780000       15.9994           0
     33494 MEMB     279      POPC     O14      O2L     -0.780000       15.9994           0
     33495 MEMB     279      POPC     O12      OSLP    -0.570000       15.9994           0
     33496 MEMB     279      POPC     O11      OSLP    -0.570000       15.9994           0
     33497 MEMB     279      POPC     C1       CTL2    -0.800000E-01   12.0110           0
     33498 MEMB     279      POPC     HA       HAL2     0.900000E-01   1.00800           0
     33499 MEMB     279      POPC     HB       HAL2     0.900000E-01   1.00800           0
     33500 MEMB     279      POPC     C2       CTL1     0.170000       12.0110           0
     33501 MEMB     279      POPC     HS       HAL1     0.900000E-01   1.00800           0
     33502 MEMB     279      POPC     O21      OSL     -0.490000       15.9994           0
     33503 MEMB     279      POPC     C21      CL       0.900000       12.0110           0
     33504 MEMB     279      POPC     O22      OBL     -0.630000       15.9994           0
     33505 MEMB     279      POPC     C22      CTL2    -0.220000       12.0110           0
     33506 MEMB     279      POPC     H2R      HAL2     0.900000E-01   1.00800           0
     33507 MEMB     279      POPC     H2S      HAL2     0.900000E-01   1.00800           0
     33508 MEMB     279      POPC     C3       CTL2     0.800000E-01   12.0110           0
     33509 MEMB     279      POPC     HX       HAL2     0.900000E-01   1.00800           0
     33510 MEMB     279      POPC     HY       HAL2     0.900000E-01   1.00800           0
     33511 MEMB     279      POPC     O31      OSL     -0.490000       15.9994           0
     33512 MEMB     279      POPC     C31      CL       0.900000       12.0110           0
     33513 MEMB     279      POPC     O32      OBL     -0.630000       15.9994           0
     33514 MEMB     279      POPC     C32      CTL2    -0.220000       12.0110           0
     33515 MEMB     279      POPC     H2X      HAL2     0.900000E-01   1.00800           0
     33516 MEMB     279      POPC     H2Y      HAL2     0.900000E-01   1.00800           0
     33517 MEMB     279      POPC     C23      CTL2    -0.180000       12.0110           0
     33518 MEMB     279      POPC     H3R      HAL2     0.900000E-01   1.00800           0
     33519 MEMB     279      POPC     H3S      HAL2     0.900000E-01   1.00800           0
     33520 MEMB     279      POPC     C24      CTL2    -0.180000       12.0110           0
     33521 MEMB     279      POPC     H4R      HAL2     0.900000E-01   1.00800           0
     33522 MEMB     279      POPC     H4S      HAL2     0.900000E-01   1.00800           0
     33523 MEMB     279      POPC     C25      CTL2    -0.180000       12.0110           0
     33524 MEMB     279      POPC     H5R      HAL2     0.900000E-01   1.00800           0
     33525 MEMB     279      POPC     H5S      HAL2     0.900000E-01   1.00800           0
     33526 MEMB     279      POPC     C26      CTL2    -0.180000       12.0110           0
     33527 MEMB     279      POPC     H6R      HAL2     0.900000E-01   1.00800           0
     33528 MEMB     279      POPC     H6S      HAL2     0.900000E-01   1.00800           0
     33529 MEMB     279      POPC     C27      CTL2    -0.180000       12.0110           0
     33530 MEMB     279      POPC     H7R      HAL2     0.900000E-01   1.00800           0
     33531 MEMB     279      POPC     H7S      HAL2     0.900000E-01   1.00800           0
     33532 MEMB     279      POPC     C28      CTL2    -0.180000       12.0110           0
     33533 MEMB     279      POPC     H8R      HAL2     0.900000E-01   1.00800           0
     33534 MEMB     279      POPC     H8S      HAL2     0.900000E-01   1.00800           0
     33535 MEMB     279      POPC     C29      CEL1    -0.150000       12.0110           0
     33536 MEMB     279      POPC     H91      HEL1     0.150000       1.00800           0
     33537 MEMB     279      POPC     C210     CEL1    -0.150000       12.0110           0
     33538 MEMB     279      POPC     H101     HEL1     0.150000       1.00800           0
     33539 MEMB     279      POPC     C211     CTL2    -0.180000       12.0110           0
     33540 MEMB     279      POPC     H11R     HAL2     0.900000E-01   1.00800           0
     33541 MEMB     279      POPC     H11S     HAL2     0.900000E-01   1.00800           0
     33542 MEMB     279      POPC     C212     CTL2    -0.180000       12.0110           0
     33543 MEMB     279      POPC     H12R     HAL2     0.900000E-01   1.00800           0
     33544 MEMB     279      POPC     H12S     HAL2     0.900000E-01   1.00800           0
     33545 MEMB     279      POPC     C213     CTL2    -0.180000       12.0110           0
     33546 MEMB     279      POPC     H13R     HAL2     0.900000E-01   1.00800           0
     33547 MEMB     279      POPC     H13S     HAL2     0.900000E-01   1.00800           0
     33548 MEMB     279      POPC     C214     CTL2    -0.180000       12.0110           0
     33549 MEMB     279      POPC     H14R     HAL2     0.900000E-01   1.00800           0
     33550 MEMB     279      POPC     H14S     HAL2     0.900000E-01   1.00800           0
     33551 MEMB     279      POPC     C215     CTL2    -0.180000       12.0110           0
     33552 MEMB     279      POPC     H15R     HAL2     0.900000E-01   1.00800           0
     33553 MEMB     279      POPC     H15S     HAL2     0.900000E-01   1.00800           0
     33554 MEMB     279      POPC     C216     CTL2    -0.180000       12.0110           0
     33555 MEMB     279      POPC     H16R     HAL2     0.900000E-01   1.00800           0
     33556 MEMB     279      POPC     H16S     HAL2     0.900000E-01   1.00800           0
     33557 MEMB     279      POPC     C217     CTL2    -0.180000       12.0110           0
     33558 MEMB     279      POPC     H17R     HAL2     0.900000E-01   1.00800           0
     33559 MEMB     279      POPC     H17S     HAL2     0.900000E-01   1.00800           0
     33560 MEMB     279      POPC     C218     CTL3    -0.270000       12.0110           0
     33561 MEMB     279      POPC     H18R     HAL3     0.900000E-01   1.00800           0
     33562 MEMB     279      POPC     H18S     HAL3     0.900000E-01   1.00800           0
     33563 MEMB     279      POPC     H18T     HAL3     0.900000E-01   1.00800           0
     33564 MEMB     279      POPC     C33      CTL2    -0.180000       12.0110           0
     33565 MEMB     279      POPC     H3X      HAL2     0.900000E-01   1.00800           0
     33566 MEMB     279      POPC     H3Y      HAL2     0.900000E-01   1.00800           0
     33567 MEMB     279      POPC     C34      CTL2    -0.180000       12.0110           0
     33568 MEMB     279      POPC     H4X      HAL2     0.900000E-01   1.00800           0
     33569 MEMB     279      POPC     H4Y      HAL2     0.900000E-01   1.00800           0
     33570 MEMB     279      POPC     C35      CTL2    -0.180000       12.0110           0
     33571 MEMB     279      POPC     H5X      HAL2     0.900000E-01   1.00800           0
     33572 MEMB     279      POPC     H5Y      HAL2     0.900000E-01   1.00800           0
     33573 MEMB     279      POPC     C36      CTL2    -0.180000       12.0110           0
     33574 MEMB     279      POPC     H6X      HAL2     0.900000E-01   1.00800           0
     33575 MEMB     279      POPC     H6Y      HAL2     0.900000E-01   1.00800           0
     33576 MEMB     279      POPC     C37      CTL2    -0.180000       12.0110           0
     33577 MEMB     279      POPC     H7X      HAL2     0.900000E-01   1.00800           0
     33578 MEMB     279      POPC     H7Y      HAL2     0.900000E-01   1.00800           0
     33579 MEMB     279      POPC     C38      CTL2    -0.180000       12.0110           0
     33580 MEMB     279      POPC     H8X      HAL2     0.900000E-01   1.00800           0
     33581 MEMB     279      POPC     H8Y      HAL2     0.900000E-01   1.00800           0
     33582 MEMB     279      POPC     C39      CTL2    -0.180000       12.0110           0
     33583 MEMB     279      POPC     H9X      HAL2     0.900000E-01   1.00800           0
     33584 MEMB     279      POPC     H9Y      HAL2     0.900000E-01   1.00800           0
     33585 MEMB     279      POPC     C310     CTL2    -0.180000       12.0110           0
     33586 MEMB     279      POPC     H10X     HAL2     0.900000E-01   1.00800           0
     33587 MEMB     279      POPC     H10Y     HAL2     0.900000E-01   1.00800           0
     33588 MEMB     279      POPC     C311     CTL2    -0.180000       12.0110           0
     33589 MEMB     279      POPC     H11X     HAL2     0.900000E-01   1.00800           0
     33590 MEMB     279      POPC     H11Y     HAL2     0.900000E-01   1.00800           0
     33591 MEMB     279      POPC     C312     CTL2    -0.180000       12.0110           0
     33592 MEMB     279      POPC     H12X     HAL2     0.900000E-01   1.00800           0
     33593 MEMB     279      POPC     H12Y     HAL2     0.900000E-01   1.00800           0
     33594 MEMB     279      POPC     C313     CTL2    -0.180000       12.0110           0
     33595 MEMB     279      POPC     H13X     HAL2     0.900000E-01   1.00800           0
     33596 MEMB     279      POPC     H13Y     HAL2     0.900000E-01   1.00800           0
     33597 MEMB     279      POPC     C314     CTL2    -0.180000       12.0110           0
     33598 MEMB     279      POPC     H14X     HAL2     0.900000E-01   1.00800           0
     33599 MEMB     279      POPC     H14Y     HAL2     0.900000E-01   1.00800           0
     33600 MEMB     279      POPC     C315     CTL2    -0.180000       12.0110           0
     33601 MEMB     279      POPC     H15X     HAL2     0.900000E-01   1.00800           0
     33602 MEMB     279      POPC     H15Y     HAL2     0.900000E-01   1.00800           0
     33603 MEMB     279      POPC     C316     CTL3    -0.270000       12.0110           0
     33604 MEMB     279      POPC     H16X     HAL3     0.900000E-01   1.00800           0
     33605 MEMB     279      POPC     H16Y     HAL3     0.900000E-01   1.00800           0
     33606 MEMB     279      POPC     H16Z     HAL3     0.900000E-01   1.00800           0
     33607 MEMB     280      POPC     N        NTL     -0.600000       14.0070           0
     33608 MEMB     280      POPC     C12      CTL2    -0.100000       12.0110           0
     33609 MEMB     280      POPC     H12A     HL       0.250000       1.00800           0
     33610 MEMB     280      POPC     H12B     HL       0.250000       1.00800           0
     33611 MEMB     280      POPC     C13      CTL5    -0.350000       12.0110           0
     33612 MEMB     280      POPC     H13A     HL       0.250000       1.00800           0
     33613 MEMB     280      POPC     H13B     HL       0.250000       1.00800           0
     33614 MEMB     280      POPC     H13C     HL       0.250000       1.00800           0
     33615 MEMB     280      POPC     C14      CTL5    -0.350000       12.0110           0
     33616 MEMB     280      POPC     H14A     HL       0.250000       1.00800           0
     33617 MEMB     280      POPC     H14B     HL       0.250000       1.00800           0
     33618 MEMB     280      POPC     H14C     HL       0.250000       1.00800           0
     33619 MEMB     280      POPC     C15      CTL5    -0.350000       12.0110           0
     33620 MEMB     280      POPC     H15A     HL       0.250000       1.00800           0
     33621 MEMB     280      POPC     H15B     HL       0.250000       1.00800           0
     33622 MEMB     280      POPC     H15C     HL       0.250000       1.00800           0
     33623 MEMB     280      POPC     C11      CTL2    -0.800000E-01   12.0110           0
     33624 MEMB     280      POPC     H11A     HAL2     0.900000E-01   1.00800           0
     33625 MEMB     280      POPC     H11B     HAL2     0.900000E-01   1.00800           0
     33626 MEMB     280      POPC     P        PL        1.50000       30.9740           0
     33627 MEMB     280      POPC     O13      O2L     -0.780000       15.9994           0
     33628 MEMB     280      POPC     O14      O2L     -0.780000       15.9994           0
     33629 MEMB     280      POPC     O12      OSLP    -0.570000       15.9994           0
     33630 MEMB     280      POPC     O11      OSLP    -0.570000       15.9994           0
     33631 MEMB     280      POPC     C1       CTL2    -0.800000E-01   12.0110           0
     33632 MEMB     280      POPC     HA       HAL2     0.900000E-01   1.00800           0
     33633 MEMB     280      POPC     HB       HAL2     0.900000E-01   1.00800           0
     33634 MEMB     280      POPC     C2       CTL1     0.170000       12.0110           0
     33635 MEMB     280      POPC     HS       HAL1     0.900000E-01   1.00800           0
     33636 MEMB     280      POPC     O21      OSL     -0.490000       15.9994           0
     33637 MEMB     280      POPC     C21      CL       0.900000       12.0110           0
     33638 MEMB     280      POPC     O22      OBL     -0.630000       15.9994           0
     33639 MEMB     280      POPC     C22      CTL2    -0.220000       12.0110           0
     33640 MEMB     280      POPC     H2R      HAL2     0.900000E-01   1.00800           0
     33641 MEMB     280      POPC     H2S      HAL2     0.900000E-01   1.00800           0
     33642 MEMB     280      POPC     C3       CTL2     0.800000E-01   12.0110           0
     33643 MEMB     280      POPC     HX       HAL2     0.900000E-01   1.00800           0
     33644 MEMB     280      POPC     HY       HAL2     0.900000E-01   1.00800           0
     33645 MEMB     280      POPC     O31      OSL     -0.490000       15.9994           0
     33646 MEMB     280      POPC     C31      CL       0.900000       12.0110           0
     33647 MEMB     280      POPC     O32      OBL     -0.630000       15.9994           0
     33648 MEMB     280      POPC     C32      CTL2    -0.220000       12.0110           0
     33649 MEMB     280      POPC     H2X      HAL2     0.900000E-01   1.00800           0
     33650 MEMB     280      POPC     H2Y      HAL2     0.900000E-01   1.00800           0
     33651 MEMB     280      POPC     C23      CTL2    -0.180000       12.0110           0
     33652 MEMB     280      POPC     H3R      HAL2     0.900000E-01   1.00800           0
     33653 MEMB     280      POPC     H3S      HAL2     0.900000E-01   1.00800           0
     33654 MEMB     280      POPC     C24      CTL2    -0.180000       12.0110           0
     33655 MEMB     280      POPC     H4R      HAL2     0.900000E-01   1.00800           0
     33656 MEMB     280      POPC     H4S      HAL2     0.900000E-01   1.00800           0
     33657 MEMB     280      POPC     C25      CTL2    -0.180000       12.0110           0
     33658 MEMB     280      POPC     H5R      HAL2     0.900000E-01   1.00800           0
     33659 MEMB     280      POPC     H5S      HAL2     0.900000E-01   1.00800           0
     33660 MEMB     280      POPC     C26      CTL2    -0.180000       12.0110           0
     33661 MEMB     280      POPC     H6R      HAL2     0.900000E-01   1.00800           0
     33662 MEMB     280      POPC     H6S      HAL2     0.900000E-01   1.00800           0
     33663 MEMB     280      POPC     C27      CTL2    -0.180000       12.0110           0
     33664 MEMB     280      POPC     H7R      HAL2     0.900000E-01   1.00800           0
     33665 MEMB     280      POPC     H7S      HAL2     0.900000E-01   1.00800           0
     33666 MEMB     280      POPC     C28      CTL2    -0.180000       12.0110           0
     33667 MEMB     280      POPC     H8R      HAL2     0.900000E-01   1.00800           0
     33668 MEMB     280      POPC     H8S      HAL2     0.900000E-01   1.00800           0
     33669 MEMB     280      POPC     C29      CEL1    -0.150000       12.0110           0
     33670 MEMB     280      POPC     H91      HEL1     0.150000       1.00800           0
     33671 MEMB     280      POPC     C210     CEL1    -0.150000       12.0110           0
     33672 MEMB     280      POPC     H101     HEL1     0.150000       1.00800           0
     33673 MEMB     280      POPC     C211     CTL2    -0.180000       12.0110           0
     33674 MEMB     280      POPC     H11R     HAL2     0.900000E-01   1.00800           0
     33675 MEMB     280      POPC     H11S     HAL2     0.900000E-01   1.00800           0
     33676 MEMB     280      POPC     C212     CTL2    -0.180000       12.0110           0
     33677 MEMB     280      POPC     H12R     HAL2     0.900000E-01   1.00800           0
     33678 MEMB     280      POPC     H12S     HAL2     0.900000E-01   1.00800           0
     33679 MEMB     280      POPC     C213     CTL2    -0.180000       12.0110           0
     33680 MEMB     280      POPC     H13R     HAL2     0.900000E-01   1.00800           0
     33681 MEMB     280      POPC     H13S     HAL2     0.900000E-01   1.00800           0
     33682 MEMB     280      POPC     C214     CTL2    -0.180000       12.0110           0
     33683 MEMB     280      POPC     H14R     HAL2     0.900000E-01   1.00800           0
     33684 MEMB     280      POPC     H14S     HAL2     0.900000E-01   1.00800           0
     33685 MEMB     280      POPC     C215     CTL2    -0.180000       12.0110           0
     33686 MEMB     280      POPC     H15R     HAL2     0.900000E-01   1.00800           0
     33687 MEMB     280      POPC     H15S     HAL2     0.900000E-01   1.00800           0
     33688 MEMB     280      POPC     C216     CTL2    -0.180000       12.0110           0
     33689 MEMB     280      POPC     H16R     HAL2     0.900000E-01   1.00800           0
     33690 MEMB     280      POPC     H16S     HAL2     0.900000E-01   1.00800           0
     33691 MEMB     280      POPC     C217     CTL2    -0.180000       12.0110           0
     33692 MEMB     280      POPC     H17R     HAL2     0.900000E-01   1.00800           0
     33693 MEMB     280      POPC     H17S     HAL2     0.900000E-01   1.00800           0
     33694 MEMB     280      POPC     C218     CTL3    -0.270000       12.0110           0
     33695 MEMB     280      POPC     H18R     HAL3     0.900000E-01   1.00800           0
     33696 MEMB     280      POPC     H18S     HAL3     0.900000E-01   1.00800           0
     33697 MEMB     280      POPC     H18T     HAL3     0.900000E-01   1.00800           0
     33698 MEMB     280      POPC     C33      CTL2    -0.180000       12.0110           0
     33699 MEMB     280      POPC     H3X      HAL2     0.900000E-01   1.00800           0
     33700 MEMB     280      POPC     H3Y      HAL2     0.900000E-01   1.00800           0
     33701 MEMB     280      POPC     C34      CTL2    -0.180000       12.0110           0
     33702 MEMB     280      POPC     H4X      HAL2     0.900000E-01   1.00800           0
     33703 MEMB     280      POPC     H4Y      HAL2     0.900000E-01   1.00800           0
     33704 MEMB     280      POPC     C35      CTL2    -0.180000       12.0110           0
     33705 MEMB     280      POPC     H5X      HAL2     0.900000E-01   1.00800           0
     33706 MEMB     280      POPC     H5Y      HAL2     0.900000E-01   1.00800           0
     33707 MEMB     280      POPC     C36      CTL2    -0.180000       12.0110           0
     33708 MEMB     280      POPC     H6X      HAL2     0.900000E-01   1.00800           0
     33709 MEMB     280      POPC     H6Y      HAL2     0.900000E-01   1.00800           0
     33710 MEMB     280      POPC     C37      CTL2    -0.180000       12.0110           0
     33711 MEMB     280      POPC     H7X      HAL2     0.900000E-01   1.00800           0
     33712 MEMB     280      POPC     H7Y      HAL2     0.900000E-01   1.00800           0
     33713 MEMB     280      POPC     C38      CTL2    -0.180000       12.0110           0
     33714 MEMB     280      POPC     H8X      HAL2     0.900000E-01   1.00800           0
     33715 MEMB     280      POPC     H8Y      HAL2     0.900000E-01   1.00800           0
     33716 MEMB     280      POPC     C39      CTL2    -0.180000       12.0110           0
     33717 MEMB     280      POPC     H9X      HAL2     0.900000E-01   1.00800           0
     33718 MEMB     280      POPC     H9Y      HAL2     0.900000E-01   1.00800           0
     33719 MEMB     280      POPC     C310     CTL2    -0.180000       12.0110           0
     33720 MEMB     280      POPC     H10X     HAL2     0.900000E-01   1.00800           0
     33721 MEMB     280      POPC     H10Y     HAL2     0.900000E-01   1.00800           0
     33722 MEMB     280      POPC     C311     CTL2    -0.180000       12.0110           0
     33723 MEMB     280      POPC     H11X     HAL2     0.900000E-01   1.00800           0
     33724 MEMB     280      POPC     H11Y     HAL2     0.900000E-01   1.00800           0
     33725 MEMB     280      POPC     C312     CTL2    -0.180000       12.0110           0
     33726 MEMB     280      POPC     H12X     HAL2     0.900000E-01   1.00800           0
     33727 MEMB     280      POPC     H12Y     HAL2     0.900000E-01   1.00800           0
     33728 MEMB     280      POPC     C313     CTL2    -0.180000       12.0110           0
     33729 MEMB     280      POPC     H13X     HAL2     0.900000E-01   1.00800           0
     33730 MEMB     280      POPC     H13Y     HAL2     0.900000E-01   1.00800           0
     33731 MEMB     280      POPC     C314     CTL2    -0.180000       12.0110           0
     33732 MEMB     280      POPC     H14X     HAL2     0.900000E-01   1.00800           0
     33733 MEMB     280      POPC     H14Y     HAL2     0.900000E-01   1.00800           0
     33734 MEMB     280      POPC     C315     CTL2    -0.180000       12.0110           0
     33735 MEMB     280      POPC     H15X     HAL2     0.900000E-01   1.00800           0
     33736 MEMB     280      POPC     H15Y     HAL2     0.900000E-01   1.00800           0
     33737 MEMB     280      POPC     C316     CTL3    -0.270000       12.0110           0
     33738 MEMB     280      POPC     H16X     HAL3     0.900000E-01   1.00800           0
     33739 MEMB     280      POPC     H16Y     HAL3     0.900000E-01   1.00800           0
     33740 MEMB     280      POPC     H16Z     HAL3     0.900000E-01   1.00800           0
     33741 MEMB     281      POPC     N        NTL     -0.600000       14.0070           0
     33742 MEMB     281      POPC     C12      CTL2    -0.100000       12.0110           0
     33743 MEMB     281      POPC     H12A     HL       0.250000       1.00800           0
     33744 MEMB     281      POPC     H12B     HL       0.250000       1.00800           0
     33745 MEMB     281      POPC     C13      CTL5    -0.350000       12.0110           0
     33746 MEMB     281      POPC     H13A     HL       0.250000       1.00800           0
     33747 MEMB     281      POPC     H13B     HL       0.250000       1.00800           0
     33748 MEMB     281      POPC     H13C     HL       0.250000       1.00800           0
     33749 MEMB     281      POPC     C14      CTL5    -0.350000       12.0110           0
     33750 MEMB     281      POPC     H14A     HL       0.250000       1.00800           0
     33751 MEMB     281      POPC     H14B     HL       0.250000       1.00800           0
     33752 MEMB     281      POPC     H14C     HL       0.250000       1.00800           0
     33753 MEMB     281      POPC     C15      CTL5    -0.350000       12.0110           0
     33754 MEMB     281      POPC     H15A     HL       0.250000       1.00800           0
     33755 MEMB     281      POPC     H15B     HL       0.250000       1.00800           0
     33756 MEMB     281      POPC     H15C     HL       0.250000       1.00800           0
     33757 MEMB     281      POPC     C11      CTL2    -0.800000E-01   12.0110           0
     33758 MEMB     281      POPC     H11A     HAL2     0.900000E-01   1.00800           0
     33759 MEMB     281      POPC     H11B     HAL2     0.900000E-01   1.00800           0
     33760 MEMB     281      POPC     P        PL        1.50000       30.9740           0
     33761 MEMB     281      POPC     O13      O2L     -0.780000       15.9994           0
     33762 MEMB     281      POPC     O14      O2L     -0.780000       15.9994           0
     33763 MEMB     281      POPC     O12      OSLP    -0.570000       15.9994           0
     33764 MEMB     281      POPC     O11      OSLP    -0.570000       15.9994           0
     33765 MEMB     281      POPC     C1       CTL2    -0.800000E-01   12.0110           0
     33766 MEMB     281      POPC     HA       HAL2     0.900000E-01   1.00800           0
     33767 MEMB     281      POPC     HB       HAL2     0.900000E-01   1.00800           0
     33768 MEMB     281      POPC     C2       CTL1     0.170000       12.0110           0
     33769 MEMB     281      POPC     HS       HAL1     0.900000E-01   1.00800           0
     33770 MEMB     281      POPC     O21      OSL     -0.490000       15.9994           0
     33771 MEMB     281      POPC     C21      CL       0.900000       12.0110           0
     33772 MEMB     281      POPC     O22      OBL     -0.630000       15.9994           0
     33773 MEMB     281      POPC     C22      CTL2    -0.220000       12.0110           0
     33774 MEMB     281      POPC     H2R      HAL2     0.900000E-01   1.00800           0
     33775 MEMB     281      POPC     H2S      HAL2     0.900000E-01   1.00800           0
     33776 MEMB     281      POPC     C3       CTL2     0.800000E-01   12.0110           0
     33777 MEMB     281      POPC     HX       HAL2     0.900000E-01   1.00800           0
     33778 MEMB     281      POPC     HY       HAL2     0.900000E-01   1.00800           0
     33779 MEMB     281      POPC     O31      OSL     -0.490000       15.9994           0
     33780 MEMB     281      POPC     C31      CL       0.900000       12.0110           0
     33781 MEMB     281      POPC     O32      OBL     -0.630000       15.9994           0
     33782 MEMB     281      POPC     C32      CTL2    -0.220000       12.0110           0
     33783 MEMB     281      POPC     H2X      HAL2     0.900000E-01   1.00800           0
     33784 MEMB     281      POPC     H2Y      HAL2     0.900000E-01   1.00800           0
     33785 MEMB     281      POPC     C23      CTL2    -0.180000       12.0110           0
     33786 MEMB     281      POPC     H3R      HAL2     0.900000E-01   1.00800           0
     33787 MEMB     281      POPC     H3S      HAL2     0.900000E-01   1.00800           0
     33788 MEMB     281      POPC     C24      CTL2    -0.180000       12.0110           0
     33789 MEMB     281      POPC     H4R      HAL2     0.900000E-01   1.00800           0
     33790 MEMB     281      POPC     H4S      HAL2     0.900000E-01   1.00800           0
     33791 MEMB     281      POPC     C25      CTL2    -0.180000       12.0110           0
     33792 MEMB     281      POPC     H5R      HAL2     0.900000E-01   1.00800           0
     33793 MEMB     281      POPC     H5S      HAL2     0.900000E-01   1.00800           0
     33794 MEMB     281      POPC     C26      CTL2    -0.180000       12.0110           0
     33795 MEMB     281      POPC     H6R      HAL2     0.900000E-01   1.00800           0
     33796 MEMB     281      POPC     H6S      HAL2     0.900000E-01   1.00800           0
     33797 MEMB     281      POPC     C27      CTL2    -0.180000       12.0110           0
     33798 MEMB     281      POPC     H7R      HAL2     0.900000E-01   1.00800           0
     33799 MEMB     281      POPC     H7S      HAL2     0.900000E-01   1.00800           0
     33800 MEMB     281      POPC     C28      CTL2    -0.180000       12.0110           0
     33801 MEMB     281      POPC     H8R      HAL2     0.900000E-01   1.00800           0
     33802 MEMB     281      POPC     H8S      HAL2     0.900000E-01   1.00800           0
     33803 MEMB     281      POPC     C29      CEL1    -0.150000       12.0110           0
     33804 MEMB     281      POPC     H91      HEL1     0.150000       1.00800           0
     33805 MEMB     281      POPC     C210     CEL1    -0.150000       12.0110           0
     33806 MEMB     281      POPC     H101     HEL1     0.150000       1.00800           0
     33807 MEMB     281      POPC     C211     CTL2    -0.180000       12.0110           0
     33808 MEMB     281      POPC     H11R     HAL2     0.900000E-01   1.00800           0
     33809 MEMB     281      POPC     H11S     HAL2     0.900000E-01   1.00800           0
     33810 MEMB     281      POPC     C212     CTL2    -0.180000       12.0110           0
     33811 MEMB     281      POPC     H12R     HAL2     0.900000E-01   1.00800           0
     33812 MEMB     281      POPC     H12S     HAL2     0.900000E-01   1.00800           0
     33813 MEMB     281      POPC     C213     CTL2    -0.180000       12.0110           0
     33814 MEMB     281      POPC     H13R     HAL2     0.900000E-01   1.00800           0
     33815 MEMB     281      POPC     H13S     HAL2     0.900000E-01   1.00800           0
     33816 MEMB     281      POPC     C214     CTL2    -0.180000       12.0110           0
     33817 MEMB     281      POPC     H14R     HAL2     0.900000E-01   1.00800           0
     33818 MEMB     281      POPC     H14S     HAL2     0.900000E-01   1.00800           0
     33819 MEMB     281      POPC     C215     CTL2    -0.180000       12.0110           0
     33820 MEMB     281      POPC     H15R     HAL2     0.900000E-01   1.00800           0
     33821 MEMB     281      POPC     H15S     HAL2     0.900000E-01   1.00800           0
     33822 MEMB     281      POPC     C216     CTL2    -0.180000       12.0110           0
     33823 MEMB     281      POPC     H16R     HAL2     0.900000E-01   1.00800           0
     33824 MEMB     281      POPC     H16S     HAL2     0.900000E-01   1.00800           0
     33825 MEMB     281      POPC     C217     CTL2    -0.180000       12.0110           0
     33826 MEMB     281      POPC     H17R     HAL2     0.900000E-01   1.00800           0
     33827 MEMB     281      POPC     H17S     HAL2     0.900000E-01   1.00800           0
     33828 MEMB     281      POPC     C218     CTL3    -0.270000       12.0110           0
     33829 MEMB     281      POPC     H18R     HAL3     0.900000E-01   1.00800           0
     33830 MEMB     281      POPC     H18S     HAL3     0.900000E-01   1.00800           0
     33831 MEMB     281      POPC     H18T     HAL3     0.900000E-01   1.00800           0
     33832 MEMB     281      POPC     C33      CTL2    -0.180000       12.0110           0
     33833 MEMB     281      POPC     H3X      HAL2     0.900000E-01   1.00800           0
     33834 MEMB     281      POPC     H3Y      HAL2     0.900000E-01   1.00800           0
     33835 MEMB     281      POPC     C34      CTL2    -0.180000       12.0110           0
     33836 MEMB     281      POPC     H4X      HAL2     0.900000E-01   1.00800           0
     33837 MEMB     281      POPC     H4Y      HAL2     0.900000E-01   1.00800           0
     33838 MEMB     281      POPC     C35      CTL2    -0.180000       12.0110           0
     33839 MEMB     281      POPC     H5X      HAL2     0.900000E-01   1.00800           0
     33840 MEMB     281      POPC     H5Y      HAL2     0.900000E-01   1.00800           0
     33841 MEMB     281      POPC     C36      CTL2    -0.180000       12.0110           0
     33842 MEMB     281      POPC     H6X      HAL2     0.900000E-01   1.00800           0
     33843 MEMB     281      POPC     H6Y      HAL2     0.900000E-01   1.00800           0
     33844 MEMB     281      POPC     C37      CTL2    -0.180000       12.0110           0
     33845 MEMB     281      POPC     H7X      HAL2     0.900000E-01   1.00800           0
     33846 MEMB     281      POPC     H7Y      HAL2     0.900000E-01   1.00800           0
     33847 MEMB     281      POPC     C38      CTL2    -0.180000       12.0110           0
     33848 MEMB     281      POPC     H8X      HAL2     0.900000E-01   1.00800           0
     33849 MEMB     281      POPC     H8Y      HAL2     0.900000E-01   1.00800           0
     33850 MEMB     281      POPC     C39      CTL2    -0.180000       12.0110           0
     33851 MEMB     281      POPC     H9X      HAL2     0.900000E-01   1.00800           0
     33852 MEMB     281      POPC     H9Y      HAL2     0.900000E-01   1.00800           0
     33853 MEMB     281      POPC     C310     CTL2    -0.180000       12.0110           0
     33854 MEMB     281      POPC     H10X     HAL2     0.900000E-01   1.00800           0
     33855 MEMB     281      POPC     H10Y     HAL2     0.900000E-01   1.00800           0
     33856 MEMB     281      POPC     C311     CTL2    -0.180000       12.0110           0
     33857 MEMB     281      POPC     H11X     HAL2     0.900000E-01   1.00800           0
     33858 MEMB     281      POPC     H11Y     HAL2     0.900000E-01   1.00800           0
     33859 MEMB     281      POPC     C312     CTL2    -0.180000       12.0110           0
     33860 MEMB     281      POPC     H12X     HAL2     0.900000E-01   1.00800           0
     33861 MEMB     281      POPC     H12Y     HAL2     0.900000E-01   1.00800           0
     33862 MEMB     281      POPC     C313     CTL2    -0.180000       12.0110           0
     33863 MEMB     281      POPC     H13X     HAL2     0.900000E-01   1.00800           0
     33864 MEMB     281      POPC     H13Y     HAL2     0.900000E-01   1.00800           0
     33865 MEMB     281      POPC     C314     CTL2    -0.180000       12.0110           0
     33866 MEMB     281      POPC     H14X     HAL2     0.900000E-01   1.00800           0
     33867 MEMB     281      POPC     H14Y     HAL2     0.900000E-01   1.00800           0
     33868 MEMB     281      POPC     C315     CTL2    -0.180000       12.0110           0
     33869 MEMB     281      POPC     H15X     HAL2     0.900000E-01   1.00800           0
     33870 MEMB     281      POPC     H15Y     HAL2     0.900000E-01   1.00800           0
     33871 MEMB     281      POPC     C316     CTL3    -0.270000       12.0110           0
     33872 MEMB     281      POPC     H16X     HAL3     0.900000E-01   1.00800           0
     33873 MEMB     281      POPC     H16Y     HAL3     0.900000E-01   1.00800           0
     33874 MEMB     281      POPC     H16Z     HAL3     0.900000E-01   1.00800           0
     33875 MEMB     282      POPC     N        NTL     -0.600000       14.0070           0
     33876 MEMB     282      POPC     C12      CTL2    -0.100000       12.0110           0
     33877 MEMB     282      POPC     H12A     HL       0.250000       1.00800           0
     33878 MEMB     282      POPC     H12B     HL       0.250000       1.00800           0
     33879 MEMB     282      POPC     C13      CTL5    -0.350000       12.0110           0
     33880 MEMB     282      POPC     H13A     HL       0.250000       1.00800           0
     33881 MEMB     282      POPC     H13B     HL       0.250000       1.00800           0
     33882 MEMB     282      POPC     H13C     HL       0.250000       1.00800           0
     33883 MEMB     282      POPC     C14      CTL5    -0.350000       12.0110           0
     33884 MEMB     282      POPC     H14A     HL       0.250000       1.00800           0
     33885 MEMB     282      POPC     H14B     HL       0.250000       1.00800           0
     33886 MEMB     282      POPC     H14C     HL       0.250000       1.00800           0
     33887 MEMB     282      POPC     C15      CTL5    -0.350000       12.0110           0
     33888 MEMB     282      POPC     H15A     HL       0.250000       1.00800           0
     33889 MEMB     282      POPC     H15B     HL       0.250000       1.00800           0
     33890 MEMB     282      POPC     H15C     HL       0.250000       1.00800           0
     33891 MEMB     282      POPC     C11      CTL2    -0.800000E-01   12.0110           0
     33892 MEMB     282      POPC     H11A     HAL2     0.900000E-01   1.00800           0
     33893 MEMB     282      POPC     H11B     HAL2     0.900000E-01   1.00800           0
     33894 MEMB     282      POPC     P        PL        1.50000       30.9740           0
     33895 MEMB     282      POPC     O13      O2L     -0.780000       15.9994           0
     33896 MEMB     282      POPC     O14      O2L     -0.780000       15.9994           0
     33897 MEMB     282      POPC     O12      OSLP    -0.570000       15.9994           0
     33898 MEMB     282      POPC     O11      OSLP    -0.570000       15.9994           0
     33899 MEMB     282      POPC     C1       CTL2    -0.800000E-01   12.0110           0
     33900 MEMB     282      POPC     HA       HAL2     0.900000E-01   1.00800           0
     33901 MEMB     282      POPC     HB       HAL2     0.900000E-01   1.00800           0
     33902 MEMB     282      POPC     C2       CTL1     0.170000       12.0110           0
     33903 MEMB     282      POPC     HS       HAL1     0.900000E-01   1.00800           0
     33904 MEMB     282      POPC     O21      OSL     -0.490000       15.9994           0
     33905 MEMB     282      POPC     C21      CL       0.900000       12.0110           0
     33906 MEMB     282      POPC     O22      OBL     -0.630000       15.9994           0
     33907 MEMB     282      POPC     C22      CTL2    -0.220000       12.0110           0
     33908 MEMB     282      POPC     H2R      HAL2     0.900000E-01   1.00800           0
     33909 MEMB     282      POPC     H2S      HAL2     0.900000E-01   1.00800           0
     33910 MEMB     282      POPC     C3       CTL2     0.800000E-01   12.0110           0
     33911 MEMB     282      POPC     HX       HAL2     0.900000E-01   1.00800           0
     33912 MEMB     282      POPC     HY       HAL2     0.900000E-01   1.00800           0
     33913 MEMB     282      POPC     O31      OSL     -0.490000       15.9994           0
     33914 MEMB     282      POPC     C31      CL       0.900000       12.0110           0
     33915 MEMB     282      POPC     O32      OBL     -0.630000       15.9994           0
     33916 MEMB     282      POPC     C32      CTL2    -0.220000       12.0110           0
     33917 MEMB     282      POPC     H2X      HAL2     0.900000E-01   1.00800           0
     33918 MEMB     282      POPC     H2Y      HAL2     0.900000E-01   1.00800           0
     33919 MEMB     282      POPC     C23      CTL2    -0.180000       12.0110           0
     33920 MEMB     282      POPC     H3R      HAL2     0.900000E-01   1.00800           0
     33921 MEMB     282      POPC     H3S      HAL2     0.900000E-01   1.00800           0
     33922 MEMB     282      POPC     C24      CTL2    -0.180000       12.0110           0
     33923 MEMB     282      POPC     H4R      HAL2     0.900000E-01   1.00800           0
     33924 MEMB     282      POPC     H4S      HAL2     0.900000E-01   1.00800           0
     33925 MEMB     282      POPC     C25      CTL2    -0.180000       12.0110           0
     33926 MEMB     282      POPC     H5R      HAL2     0.900000E-01   1.00800           0
     33927 MEMB     282      POPC     H5S      HAL2     0.900000E-01   1.00800           0
     33928 MEMB     282      POPC     C26      CTL2    -0.180000       12.0110           0
     33929 MEMB     282      POPC     H6R      HAL2     0.900000E-01   1.00800           0
     33930 MEMB     282      POPC     H6S      HAL2     0.900000E-01   1.00800           0
     33931 MEMB     282      POPC     C27      CTL2    -0.180000       12.0110           0
     33932 MEMB     282      POPC     H7R      HAL2     0.900000E-01   1.00800           0
     33933 MEMB     282      POPC     H7S      HAL2     0.900000E-01   1.00800           0
     33934 MEMB     282      POPC     C28      CTL2    -0.180000       12.0110           0
     33935 MEMB     282      POPC     H8R      HAL2     0.900000E-01   1.00800           0
     33936 MEMB     282      POPC     H8S      HAL2     0.900000E-01   1.00800           0
     33937 MEMB     282      POPC     C29      CEL1    -0.150000       12.0110           0
     33938 MEMB     282      POPC     H91      HEL1     0.150000       1.00800           0
     33939 MEMB     282      POPC     C210     CEL1    -0.150000       12.0110           0
     33940 MEMB     282      POPC     H101     HEL1     0.150000       1.00800           0
     33941 MEMB     282      POPC     C211     CTL2    -0.180000       12.0110           0
     33942 MEMB     282      POPC     H11R     HAL2     0.900000E-01   1.00800           0
     33943 MEMB     282      POPC     H11S     HAL2     0.900000E-01   1.00800           0
     33944 MEMB     282      POPC     C212     CTL2    -0.180000       12.0110           0
     33945 MEMB     282      POPC     H12R     HAL2     0.900000E-01   1.00800           0
     33946 MEMB     282      POPC     H12S     HAL2     0.900000E-01   1.00800           0
     33947 MEMB     282      POPC     C213     CTL2    -0.180000       12.0110           0
     33948 MEMB     282      POPC     H13R     HAL2     0.900000E-01   1.00800           0
     33949 MEMB     282      POPC     H13S     HAL2     0.900000E-01   1.00800           0
     33950 MEMB     282      POPC     C214     CTL2    -0.180000       12.0110           0
     33951 MEMB     282      POPC     H14R     HAL2     0.900000E-01   1.00800           0
     33952 MEMB     282      POPC     H14S     HAL2     0.900000E-01   1.00800           0
     33953 MEMB     282      POPC     C215     CTL2    -0.180000       12.0110           0
     33954 MEMB     282      POPC     H15R     HAL2     0.900000E-01   1.00800           0
     33955 MEMB     282      POPC     H15S     HAL2     0.900000E-01   1.00800           0
     33956 MEMB     282      POPC     C216     CTL2    -0.180000       12.0110           0
     33957 MEMB     282      POPC     H16R     HAL2     0.900000E-01   1.00800           0
     33958 MEMB     282      POPC     H16S     HAL2     0.900000E-01   1.00800           0
     33959 MEMB     282      POPC     C217     CTL2    -0.180000       12.0110           0
     33960 MEMB     282      POPC     H17R     HAL2     0.900000E-01   1.00800           0
     33961 MEMB     282      POPC     H17S     HAL2     0.900000E-01   1.00800           0
     33962 MEMB     282      POPC     C218     CTL3    -0.270000       12.0110           0
     33963 MEMB     282      POPC     H18R     HAL3     0.900000E-01   1.00800           0
     33964 MEMB     282      POPC     H18S     HAL3     0.900000E-01   1.00800           0
     33965 MEMB     282      POPC     H18T     HAL3     0.900000E-01   1.00800           0
     33966 MEMB     282      POPC     C33      CTL2    -0.180000       12.0110           0
     33967 MEMB     282      POPC     H3X      HAL2     0.900000E-01   1.00800           0
     33968 MEMB     282      POPC     H3Y      HAL2     0.900000E-01   1.00800           0
     33969 MEMB     282      POPC     C34      CTL2    -0.180000       12.0110           0
     33970 MEMB     282      POPC     H4X      HAL2     0.900000E-01   1.00800           0
     33971 MEMB     282      POPC     H4Y      HAL2     0.900000E-01   1.00800           0
     33972 MEMB     282      POPC     C35      CTL2    -0.180000       12.0110           0
     33973 MEMB     282      POPC     H5X      HAL2     0.900000E-01   1.00800           0
     33974 MEMB     282      POPC     H5Y      HAL2     0.900000E-01   1.00800           0
     33975 MEMB     282      POPC     C36      CTL2    -0.180000       12.0110           0
     33976 MEMB     282      POPC     H6X      HAL2     0.900000E-01   1.00800           0
     33977 MEMB     282      POPC     H6Y      HAL2     0.900000E-01   1.00800           0
     33978 MEMB     282      POPC     C37      CTL2    -0.180000       12.0110           0
     33979 MEMB     282      POPC     H7X      HAL2     0.900000E-01   1.00800           0
     33980 MEMB     282      POPC     H7Y      HAL2     0.900000E-01   1.00800           0
     33981 MEMB     282      POPC     C38      CTL2    -0.180000       12.0110           0
     33982 MEMB     282      POPC     H8X      HAL2     0.900000E-01   1.00800           0
     33983 MEMB     282      POPC     H8Y      HAL2     0.900000E-01   1.00800           0
     33984 MEMB     282      POPC     C39      CTL2    -0.180000       12.0110           0
     33985 MEMB     282      POPC     H9X      HAL2     0.900000E-01   1.00800           0
     33986 MEMB     282      POPC     H9Y      HAL2     0.900000E-01   1.00800           0
     33987 MEMB     282      POPC     C310     CTL2    -0.180000       12.0110           0
     33988 MEMB     282      POPC     H10X     HAL2     0.900000E-01   1.00800           0
     33989 MEMB     282      POPC     H10Y     HAL2     0.900000E-01   1.00800           0
     33990 MEMB     282      POPC     C311     CTL2    -0.180000       12.0110           0
     33991 MEMB     282      POPC     H11X     HAL2     0.900000E-01   1.00800           0
     33992 MEMB     282      POPC     H11Y     HAL2     0.900000E-01   1.00800           0
     33993 MEMB     282      POPC     C312     CTL2    -0.180000       12.0110           0
     33994 MEMB     282      POPC     H12X     HAL2     0.900000E-01   1.00800           0
     33995 MEMB     282      POPC     H12Y     HAL2     0.900000E-01   1.00800           0
     33996 MEMB     282      POPC     C313     CTL2    -0.180000       12.0110           0
     33997 MEMB     282      POPC     H13X     HAL2     0.900000E-01   1.00800           0
     33998 MEMB     282      POPC     H13Y     HAL2     0.900000E-01   1.00800           0
     33999 MEMB     282      POPC     C314     CTL2    -0.180000       12.0110           0
     34000 MEMB     282      POPC     H14X     HAL2     0.900000E-01   1.00800           0
     34001 MEMB     282      POPC     H14Y     HAL2     0.900000E-01   1.00800           0
     34002 MEMB     282      POPC     C315     CTL2    -0.180000       12.0110           0
     34003 MEMB     282      POPC     H15X     HAL2     0.900000E-01   1.00800           0
     34004 MEMB     282      POPC     H15Y     HAL2     0.900000E-01   1.00800           0
     34005 MEMB     282      POPC     C316     CTL3    -0.270000       12.0110           0
     34006 MEMB     282      POPC     H16X     HAL3     0.900000E-01   1.00800           0
     34007 MEMB     282      POPC     H16Y     HAL3     0.900000E-01   1.00800           0
     34008 MEMB     282      POPC     H16Z     HAL3     0.900000E-01   1.00800           0
     34009 MEMB     283      POPC     N        NTL     -0.600000       14.0070           0
     34010 MEMB     283      POPC     C12      CTL2    -0.100000       12.0110           0
     34011 MEMB     283      POPC     H12A     HL       0.250000       1.00800           0
     34012 MEMB     283      POPC     H12B     HL       0.250000       1.00800           0
     34013 MEMB     283      POPC     C13      CTL5    -0.350000       12.0110           0
     34014 MEMB     283      POPC     H13A     HL       0.250000       1.00800           0
     34015 MEMB     283      POPC     H13B     HL       0.250000       1.00800           0
     34016 MEMB     283      POPC     H13C     HL       0.250000       1.00800           0
     34017 MEMB     283      POPC     C14      CTL5    -0.350000       12.0110           0
     34018 MEMB     283      POPC     H14A     HL       0.250000       1.00800           0
     34019 MEMB     283      POPC     H14B     HL       0.250000       1.00800           0
     34020 MEMB     283      POPC     H14C     HL       0.250000       1.00800           0
     34021 MEMB     283      POPC     C15      CTL5    -0.350000       12.0110           0
     34022 MEMB     283      POPC     H15A     HL       0.250000       1.00800           0
     34023 MEMB     283      POPC     H15B     HL       0.250000       1.00800           0
     34024 MEMB     283      POPC     H15C     HL       0.250000       1.00800           0
     34025 MEMB     283      POPC     C11      CTL2    -0.800000E-01   12.0110           0
     34026 MEMB     283      POPC     H11A     HAL2     0.900000E-01   1.00800           0
     34027 MEMB     283      POPC     H11B     HAL2     0.900000E-01   1.00800           0
     34028 MEMB     283      POPC     P        PL        1.50000       30.9740           0
     34029 MEMB     283      POPC     O13      O2L     -0.780000       15.9994           0
     34030 MEMB     283      POPC     O14      O2L     -0.780000       15.9994           0
     34031 MEMB     283      POPC     O12      OSLP    -0.570000       15.9994           0
     34032 MEMB     283      POPC     O11      OSLP    -0.570000       15.9994           0
     34033 MEMB     283      POPC     C1       CTL2    -0.800000E-01   12.0110           0
     34034 MEMB     283      POPC     HA       HAL2     0.900000E-01   1.00800           0
     34035 MEMB     283      POPC     HB       HAL2     0.900000E-01   1.00800           0
     34036 MEMB     283      POPC     C2       CTL1     0.170000       12.0110           0
     34037 MEMB     283      POPC     HS       HAL1     0.900000E-01   1.00800           0
     34038 MEMB     283      POPC     O21      OSL     -0.490000       15.9994           0
     34039 MEMB     283      POPC     C21      CL       0.900000       12.0110           0
     34040 MEMB     283      POPC     O22      OBL     -0.630000       15.9994           0
     34041 MEMB     283      POPC     C22      CTL2    -0.220000       12.0110           0
     34042 MEMB     283      POPC     H2R      HAL2     0.900000E-01   1.00800           0
     34043 MEMB     283      POPC     H2S      HAL2     0.900000E-01   1.00800           0
     34044 MEMB     283      POPC     C3       CTL2     0.800000E-01   12.0110           0
     34045 MEMB     283      POPC     HX       HAL2     0.900000E-01   1.00800           0
     34046 MEMB     283      POPC     HY       HAL2     0.900000E-01   1.00800           0
     34047 MEMB     283      POPC     O31      OSL     -0.490000       15.9994           0
     34048 MEMB     283      POPC     C31      CL       0.900000       12.0110           0
     34049 MEMB     283      POPC     O32      OBL     -0.630000       15.9994           0
     34050 MEMB     283      POPC     C32      CTL2    -0.220000       12.0110           0
     34051 MEMB     283      POPC     H2X      HAL2     0.900000E-01   1.00800           0
     34052 MEMB     283      POPC     H2Y      HAL2     0.900000E-01   1.00800           0
     34053 MEMB     283      POPC     C23      CTL2    -0.180000       12.0110           0
     34054 MEMB     283      POPC     H3R      HAL2     0.900000E-01   1.00800           0
     34055 MEMB     283      POPC     H3S      HAL2     0.900000E-01   1.00800           0
     34056 MEMB     283      POPC     C24      CTL2    -0.180000       12.0110           0
     34057 MEMB     283      POPC     H4R      HAL2     0.900000E-01   1.00800           0
     34058 MEMB     283      POPC     H4S      HAL2     0.900000E-01   1.00800           0
     34059 MEMB     283      POPC     C25      CTL2    -0.180000       12.0110           0
     34060 MEMB     283      POPC     H5R      HAL2     0.900000E-01   1.00800           0
     34061 MEMB     283      POPC     H5S      HAL2     0.900000E-01   1.00800           0
     34062 MEMB     283      POPC     C26      CTL2    -0.180000       12.0110           0
     34063 MEMB     283      POPC     H6R      HAL2     0.900000E-01   1.00800           0
     34064 MEMB     283      POPC     H6S      HAL2     0.900000E-01   1.00800           0
     34065 MEMB     283      POPC     C27      CTL2    -0.180000       12.0110           0
     34066 MEMB     283      POPC     H7R      HAL2     0.900000E-01   1.00800           0
     34067 MEMB     283      POPC     H7S      HAL2     0.900000E-01   1.00800           0
     34068 MEMB     283      POPC     C28      CTL2    -0.180000       12.0110           0
     34069 MEMB     283      POPC     H8R      HAL2     0.900000E-01   1.00800           0
     34070 MEMB     283      POPC     H8S      HAL2     0.900000E-01   1.00800           0
     34071 MEMB     283      POPC     C29      CEL1    -0.150000       12.0110           0
     34072 MEMB     283      POPC     H91      HEL1     0.150000       1.00800           0
     34073 MEMB     283      POPC     C210     CEL1    -0.150000       12.0110           0
     34074 MEMB     283      POPC     H101     HEL1     0.150000       1.00800           0
     34075 MEMB     283      POPC     C211     CTL2    -0.180000       12.0110           0
     34076 MEMB     283      POPC     H11R     HAL2     0.900000E-01   1.00800           0
     34077 MEMB     283      POPC     H11S     HAL2     0.900000E-01   1.00800           0
     34078 MEMB     283      POPC     C212     CTL2    -0.180000       12.0110           0
     34079 MEMB     283      POPC     H12R     HAL2     0.900000E-01   1.00800           0
     34080 MEMB     283      POPC     H12S     HAL2     0.900000E-01   1.00800           0
     34081 MEMB     283      POPC     C213     CTL2    -0.180000       12.0110           0
     34082 MEMB     283      POPC     H13R     HAL2     0.900000E-01   1.00800           0
     34083 MEMB     283      POPC     H13S     HAL2     0.900000E-01   1.00800           0
     34084 MEMB     283      POPC     C214     CTL2    -0.180000       12.0110           0
     34085 MEMB     283      POPC     H14R     HAL2     0.900000E-01   1.00800           0
     34086 MEMB     283      POPC     H14S     HAL2     0.900000E-01   1.00800           0
     34087 MEMB     283      POPC     C215     CTL2    -0.180000       12.0110           0
     34088 MEMB     283      POPC     H15R     HAL2     0.900000E-01   1.00800           0
     34089 MEMB     283      POPC     H15S     HAL2     0.900000E-01   1.00800           0
     34090 MEMB     283      POPC     C216     CTL2    -0.180000       12.0110           0
     34091 MEMB     283      POPC     H16R     HAL2     0.900000E-01   1.00800           0
     34092 MEMB     283      POPC     H16S     HAL2     0.900000E-01   1.00800           0
     34093 MEMB     283      POPC     C217     CTL2    -0.180000       12.0110           0
     34094 MEMB     283      POPC     H17R     HAL2     0.900000E-01   1.00800           0
     34095 MEMB     283      POPC     H17S     HAL2     0.900000E-01   1.00800           0
     34096 MEMB     283      POPC     C218     CTL3    -0.270000       12.0110           0
     34097 MEMB     283      POPC     H18R     HAL3     0.900000E-01   1.00800           0
     34098 MEMB     283      POPC     H18S     HAL3     0.900000E-01   1.00800           0
     34099 MEMB     283      POPC     H18T     HAL3     0.900000E-01   1.00800           0
     34100 MEMB     283      POPC     C33      CTL2    -0.180000       12.0110           0
     34101 MEMB     283      POPC     H3X      HAL2     0.900000E-01   1.00800           0
     34102 MEMB     283      POPC     H3Y      HAL2     0.900000E-01   1.00800           0
     34103 MEMB     283      POPC     C34      CTL2    -0.180000       12.0110           0
     34104 MEMB     283      POPC     H4X      HAL2     0.900000E-01   1.00800           0
     34105 MEMB     283      POPC     H4Y      HAL2     0.900000E-01   1.00800           0
     34106 MEMB     283      POPC     C35      CTL2    -0.180000       12.0110           0
     34107 MEMB     283      POPC     H5X      HAL2     0.900000E-01   1.00800           0
     34108 MEMB     283      POPC     H5Y      HAL2     0.900000E-01   1.00800           0
     34109 MEMB     283      POPC     C36      CTL2    -0.180000       12.0110           0
     34110 MEMB     283      POPC     H6X      HAL2     0.900000E-01   1.00800           0
     34111 MEMB     283      POPC     H6Y      HAL2     0.900000E-01   1.00800           0
     34112 MEMB     283      POPC     C37      CTL2    -0.180000       12.0110           0
     34113 MEMB     283      POPC     H7X      HAL2     0.900000E-01   1.00800           0
     34114 MEMB     283      POPC     H7Y      HAL2     0.900000E-01   1.00800           0
     34115 MEMB     283      POPC     C38      CTL2    -0.180000       12.0110           0
     34116 MEMB     283      POPC     H8X      HAL2     0.900000E-01   1.00800           0
     34117 MEMB     283      POPC     H8Y      HAL2     0.900000E-01   1.00800           0
     34118 MEMB     283      POPC     C39      CTL2    -0.180000       12.0110           0
     34119 MEMB     283      POPC     H9X      HAL2     0.900000E-01   1.00800           0
     34120 MEMB     283      POPC     H9Y      HAL2     0.900000E-01   1.00800           0
     34121 MEMB     283      POPC     C310     CTL2    -0.180000       12.0110           0
     34122 MEMB     283      POPC     H10X     HAL2     0.900000E-01   1.00800           0
     34123 MEMB     283      POPC     H10Y     HAL2     0.900000E-01   1.00800           0
     34124 MEMB     283      POPC     C311     CTL2    -0.180000       12.0110           0
     34125 MEMB     283      POPC     H11X     HAL2     0.900000E-01   1.00800           0
     34126 MEMB     283      POPC     H11Y     HAL2     0.900000E-01   1.00800           0
     34127 MEMB     283      POPC     C312     CTL2    -0.180000       12.0110           0
     34128 MEMB     283      POPC     H12X     HAL2     0.900000E-01   1.00800           0
     34129 MEMB     283      POPC     H12Y     HAL2     0.900000E-01   1.00800           0
     34130 MEMB     283      POPC     C313     CTL2    -0.180000       12.0110           0
     34131 MEMB     283      POPC     H13X     HAL2     0.900000E-01   1.00800           0
     34132 MEMB     283      POPC     H13Y     HAL2     0.900000E-01   1.00800           0
     34133 MEMB     283      POPC     C314     CTL2    -0.180000       12.0110           0
     34134 MEMB     283      POPC     H14X     HAL2     0.900000E-01   1.00800           0
     34135 MEMB     283      POPC     H14Y     HAL2     0.900000E-01   1.00800           0
     34136 MEMB     283      POPC     C315     CTL2    -0.180000       12.0110           0
     34137 MEMB     283      POPC     H15X     HAL2     0.900000E-01   1.00800           0
     34138 MEMB     283      POPC     H15Y     HAL2     0.900000E-01   1.00800           0
     34139 MEMB     283      POPC     C316     CTL3    -0.270000       12.0110           0
     34140 MEMB     283      POPC     H16X     HAL3     0.900000E-01   1.00800           0
     34141 MEMB     283      POPC     H16Y     HAL3     0.900000E-01   1.00800           0
     34142 MEMB     283      POPC     H16Z     HAL3     0.900000E-01   1.00800           0
     34143 MEMB     284      POPC     N        NTL     -0.600000       14.0070           0
     34144 MEMB     284      POPC     C12      CTL2    -0.100000       12.0110           0
     34145 MEMB     284      POPC     H12A     HL       0.250000       1.00800           0
     34146 MEMB     284      POPC     H12B     HL       0.250000       1.00800           0
     34147 MEMB     284      POPC     C13      CTL5    -0.350000       12.0110           0
     34148 MEMB     284      POPC     H13A     HL       0.250000       1.00800           0
     34149 MEMB     284      POPC     H13B     HL       0.250000       1.00800           0
     34150 MEMB     284      POPC     H13C     HL       0.250000       1.00800           0
     34151 MEMB     284      POPC     C14      CTL5    -0.350000       12.0110           0
     34152 MEMB     284      POPC     H14A     HL       0.250000       1.00800           0
     34153 MEMB     284      POPC     H14B     HL       0.250000       1.00800           0
     34154 MEMB     284      POPC     H14C     HL       0.250000       1.00800           0
     34155 MEMB     284      POPC     C15      CTL5    -0.350000       12.0110           0
     34156 MEMB     284      POPC     H15A     HL       0.250000       1.00800           0
     34157 MEMB     284      POPC     H15B     HL       0.250000       1.00800           0
     34158 MEMB     284      POPC     H15C     HL       0.250000       1.00800           0
     34159 MEMB     284      POPC     C11      CTL2    -0.800000E-01   12.0110           0
     34160 MEMB     284      POPC     H11A     HAL2     0.900000E-01   1.00800           0
     34161 MEMB     284      POPC     H11B     HAL2     0.900000E-01   1.00800           0
     34162 MEMB     284      POPC     P        PL        1.50000       30.9740           0
     34163 MEMB     284      POPC     O13      O2L     -0.780000       15.9994           0
     34164 MEMB     284      POPC     O14      O2L     -0.780000       15.9994           0
     34165 MEMB     284      POPC     O12      OSLP    -0.570000       15.9994           0
     34166 MEMB     284      POPC     O11      OSLP    -0.570000       15.9994           0
     34167 MEMB     284      POPC     C1       CTL2    -0.800000E-01   12.0110           0
     34168 MEMB     284      POPC     HA       HAL2     0.900000E-01   1.00800           0
     34169 MEMB     284      POPC     HB       HAL2     0.900000E-01   1.00800           0
     34170 MEMB     284      POPC     C2       CTL1     0.170000       12.0110           0
     34171 MEMB     284      POPC     HS       HAL1     0.900000E-01   1.00800           0
     34172 MEMB     284      POPC     O21      OSL     -0.490000       15.9994           0
     34173 MEMB     284      POPC     C21      CL       0.900000       12.0110           0
     34174 MEMB     284      POPC     O22      OBL     -0.630000       15.9994           0
     34175 MEMB     284      POPC     C22      CTL2    -0.220000       12.0110           0
     34176 MEMB     284      POPC     H2R      HAL2     0.900000E-01   1.00800           0
     34177 MEMB     284      POPC     H2S      HAL2     0.900000E-01   1.00800           0
     34178 MEMB     284      POPC     C3       CTL2     0.800000E-01   12.0110           0
     34179 MEMB     284      POPC     HX       HAL2     0.900000E-01   1.00800           0
     34180 MEMB     284      POPC     HY       HAL2     0.900000E-01   1.00800           0
     34181 MEMB     284      POPC     O31      OSL     -0.490000       15.9994           0
     34182 MEMB     284      POPC     C31      CL       0.900000       12.0110           0
     34183 MEMB     284      POPC     O32      OBL     -0.630000       15.9994           0
     34184 MEMB     284      POPC     C32      CTL2    -0.220000       12.0110           0
     34185 MEMB     284      POPC     H2X      HAL2     0.900000E-01   1.00800           0
     34186 MEMB     284      POPC     H2Y      HAL2     0.900000E-01   1.00800           0
     34187 MEMB     284      POPC     C23      CTL2    -0.180000       12.0110           0
     34188 MEMB     284      POPC     H3R      HAL2     0.900000E-01   1.00800           0
     34189 MEMB     284      POPC     H3S      HAL2     0.900000E-01   1.00800           0
     34190 MEMB     284      POPC     C24      CTL2    -0.180000       12.0110           0
     34191 MEMB     284      POPC     H4R      HAL2     0.900000E-01   1.00800           0
     34192 MEMB     284      POPC     H4S      HAL2     0.900000E-01   1.00800           0
     34193 MEMB     284      POPC     C25      CTL2    -0.180000       12.0110           0
     34194 MEMB     284      POPC     H5R      HAL2     0.900000E-01   1.00800           0
     34195 MEMB     284      POPC     H5S      HAL2     0.900000E-01   1.00800           0
     34196 MEMB     284      POPC     C26      CTL2    -0.180000       12.0110           0
     34197 MEMB     284      POPC     H6R      HAL2     0.900000E-01   1.00800           0
     34198 MEMB     284      POPC     H6S      HAL2     0.900000E-01   1.00800           0
     34199 MEMB     284      POPC     C27      CTL2    -0.180000       12.0110           0
     34200 MEMB     284      POPC     H7R      HAL2     0.900000E-01   1.00800           0
     34201 MEMB     284      POPC     H7S      HAL2     0.900000E-01   1.00800           0
     34202 MEMB     284      POPC     C28      CTL2    -0.180000       12.0110           0
     34203 MEMB     284      POPC     H8R      HAL2     0.900000E-01   1.00800           0
     34204 MEMB     284      POPC     H8S      HAL2     0.900000E-01   1.00800           0
     34205 MEMB     284      POPC     C29      CEL1    -0.150000       12.0110           0
     34206 MEMB     284      POPC     H91      HEL1     0.150000       1.00800           0
     34207 MEMB     284      POPC     C210     CEL1    -0.150000       12.0110           0
     34208 MEMB     284      POPC     H101     HEL1     0.150000       1.00800           0
     34209 MEMB     284      POPC     C211     CTL2    -0.180000       12.0110           0
     34210 MEMB     284      POPC     H11R     HAL2     0.900000E-01   1.00800           0
     34211 MEMB     284      POPC     H11S     HAL2     0.900000E-01   1.00800           0
     34212 MEMB     284      POPC     C212     CTL2    -0.180000       12.0110           0
     34213 MEMB     284      POPC     H12R     HAL2     0.900000E-01   1.00800           0
     34214 MEMB     284      POPC     H12S     HAL2     0.900000E-01   1.00800           0
     34215 MEMB     284      POPC     C213     CTL2    -0.180000       12.0110           0
     34216 MEMB     284      POPC     H13R     HAL2     0.900000E-01   1.00800           0
     34217 MEMB     284      POPC     H13S     HAL2     0.900000E-01   1.00800           0
     34218 MEMB     284      POPC     C214     CTL2    -0.180000       12.0110           0
     34219 MEMB     284      POPC     H14R     HAL2     0.900000E-01   1.00800           0
     34220 MEMB     284      POPC     H14S     HAL2     0.900000E-01   1.00800           0
     34221 MEMB     284      POPC     C215     CTL2    -0.180000       12.0110           0
     34222 MEMB     284      POPC     H15R     HAL2     0.900000E-01   1.00800           0
     34223 MEMB     284      POPC     H15S     HAL2     0.900000E-01   1.00800           0
     34224 MEMB     284      POPC     C216     CTL2    -0.180000       12.0110           0
     34225 MEMB     284      POPC     H16R     HAL2     0.900000E-01   1.00800           0
     34226 MEMB     284      POPC     H16S     HAL2     0.900000E-01   1.00800           0
     34227 MEMB     284      POPC     C217     CTL2    -0.180000       12.0110           0
     34228 MEMB     284      POPC     H17R     HAL2     0.900000E-01   1.00800           0
     34229 MEMB     284      POPC     H17S     HAL2     0.900000E-01   1.00800           0
     34230 MEMB     284      POPC     C218     CTL3    -0.270000       12.0110           0
     34231 MEMB     284      POPC     H18R     HAL3     0.900000E-01   1.00800           0
     34232 MEMB     284      POPC     H18S     HAL3     0.900000E-01   1.00800           0
     34233 MEMB     284      POPC     H18T     HAL3     0.900000E-01   1.00800           0
     34234 MEMB     284      POPC     C33      CTL2    -0.180000       12.0110           0
     34235 MEMB     284      POPC     H3X      HAL2     0.900000E-01   1.00800           0
     34236 MEMB     284      POPC     H3Y      HAL2     0.900000E-01   1.00800           0
     34237 MEMB     284      POPC     C34      CTL2    -0.180000       12.0110           0
     34238 MEMB     284      POPC     H4X      HAL2     0.900000E-01   1.00800           0
     34239 MEMB     284      POPC     H4Y      HAL2     0.900000E-01   1.00800           0
     34240 MEMB     284      POPC     C35      CTL2    -0.180000       12.0110           0
     34241 MEMB     284      POPC     H5X      HAL2     0.900000E-01   1.00800           0
     34242 MEMB     284      POPC     H5Y      HAL2     0.900000E-01   1.00800           0
     34243 MEMB     284      POPC     C36      CTL2    -0.180000       12.0110           0
     34244 MEMB     284      POPC     H6X      HAL2     0.900000E-01   1.00800           0
     34245 MEMB     284      POPC     H6Y      HAL2     0.900000E-01   1.00800           0
     34246 MEMB     284      POPC     C37      CTL2    -0.180000       12.0110           0
     34247 MEMB     284      POPC     H7X      HAL2     0.900000E-01   1.00800           0
     34248 MEMB     284      POPC     H7Y      HAL2     0.900000E-01   1.00800           0
     34249 MEMB     284      POPC     C38      CTL2    -0.180000       12.0110           0
     34250 MEMB     284      POPC     H8X      HAL2     0.900000E-01   1.00800           0
     34251 MEMB     284      POPC     H8Y      HAL2     0.900000E-01   1.00800           0
     34252 MEMB     284      POPC     C39      CTL2    -0.180000       12.0110           0
     34253 MEMB     284      POPC     H9X      HAL2     0.900000E-01   1.00800           0
     34254 MEMB     284      POPC     H9Y      HAL2     0.900000E-01   1.00800           0
     34255 MEMB     284      POPC     C310     CTL2    -0.180000       12.0110           0
     34256 MEMB     284      POPC     H10X     HAL2     0.900000E-01   1.00800           0
     34257 MEMB     284      POPC     H10Y     HAL2     0.900000E-01   1.00800           0
     34258 MEMB     284      POPC     C311     CTL2    -0.180000       12.0110           0
     34259 MEMB     284      POPC     H11X     HAL2     0.900000E-01   1.00800           0
     34260 MEMB     284      POPC     H11Y     HAL2     0.900000E-01   1.00800           0
     34261 MEMB     284      POPC     C312     CTL2    -0.180000       12.0110           0
     34262 MEMB     284      POPC     H12X     HAL2     0.900000E-01   1.00800           0
     34263 MEMB     284      POPC     H12Y     HAL2     0.900000E-01   1.00800           0
     34264 MEMB     284      POPC     C313     CTL2    -0.180000       12.0110           0
     34265 MEMB     284      POPC     H13X     HAL2     0.900000E-01   1.00800           0
     34266 MEMB     284      POPC     H13Y     HAL2     0.900000E-01   1.00800           0
     34267 MEMB     284      POPC     C314     CTL2    -0.180000       12.0110           0
     34268 MEMB     284      POPC     H14X     HAL2     0.900000E-01   1.00800           0
     34269 MEMB     284      POPC     H14Y     HAL2     0.900000E-01   1.00800           0
     34270 MEMB     284      POPC     C315     CTL2    -0.180000       12.0110           0
     34271 MEMB     284      POPC     H15X     HAL2     0.900000E-01   1.00800           0
     34272 MEMB     284      POPC     H15Y     HAL2     0.900000E-01   1.00800           0
     34273 MEMB     284      POPC     C316     CTL3    -0.270000       12.0110           0
     34274 MEMB     284      POPC     H16X     HAL3     0.900000E-01   1.00800           0
     34275 MEMB     284      POPC     H16Y     HAL3     0.900000E-01   1.00800           0
     34276 MEMB     284      POPC     H16Z     HAL3     0.900000E-01   1.00800           0
     34277 MEMB     285      POPC     N        NTL     -0.600000       14.0070           0
     34278 MEMB     285      POPC     C12      CTL2    -0.100000       12.0110           0
     34279 MEMB     285      POPC     H12A     HL       0.250000       1.00800           0
     34280 MEMB     285      POPC     H12B     HL       0.250000       1.00800           0
     34281 MEMB     285      POPC     C13      CTL5    -0.350000       12.0110           0
     34282 MEMB     285      POPC     H13A     HL       0.250000       1.00800           0
     34283 MEMB     285      POPC     H13B     HL       0.250000       1.00800           0
     34284 MEMB     285      POPC     H13C     HL       0.250000       1.00800           0
     34285 MEMB     285      POPC     C14      CTL5    -0.350000       12.0110           0
     34286 MEMB     285      POPC     H14A     HL       0.250000       1.00800           0
     34287 MEMB     285      POPC     H14B     HL       0.250000       1.00800           0
     34288 MEMB     285      POPC     H14C     HL       0.250000       1.00800           0
     34289 MEMB     285      POPC     C15      CTL5    -0.350000       12.0110           0
     34290 MEMB     285      POPC     H15A     HL       0.250000       1.00800           0
     34291 MEMB     285      POPC     H15B     HL       0.250000       1.00800           0
     34292 MEMB     285      POPC     H15C     HL       0.250000       1.00800           0
     34293 MEMB     285      POPC     C11      CTL2    -0.800000E-01   12.0110           0
     34294 MEMB     285      POPC     H11A     HAL2     0.900000E-01   1.00800           0
     34295 MEMB     285      POPC     H11B     HAL2     0.900000E-01   1.00800           0
     34296 MEMB     285      POPC     P        PL        1.50000       30.9740           0
     34297 MEMB     285      POPC     O13      O2L     -0.780000       15.9994           0
     34298 MEMB     285      POPC     O14      O2L     -0.780000       15.9994           0
     34299 MEMB     285      POPC     O12      OSLP    -0.570000       15.9994           0
     34300 MEMB     285      POPC     O11      OSLP    -0.570000       15.9994           0
     34301 MEMB     285      POPC     C1       CTL2    -0.800000E-01   12.0110           0
     34302 MEMB     285      POPC     HA       HAL2     0.900000E-01   1.00800           0
     34303 MEMB     285      POPC     HB       HAL2     0.900000E-01   1.00800           0
     34304 MEMB     285      POPC     C2       CTL1     0.170000       12.0110           0
     34305 MEMB     285      POPC     HS       HAL1     0.900000E-01   1.00800           0
     34306 MEMB     285      POPC     O21      OSL     -0.490000       15.9994           0
     34307 MEMB     285      POPC     C21      CL       0.900000       12.0110           0
     34308 MEMB     285      POPC     O22      OBL     -0.630000       15.9994           0
     34309 MEMB     285      POPC     C22      CTL2    -0.220000       12.0110           0
     34310 MEMB     285      POPC     H2R      HAL2     0.900000E-01   1.00800           0
     34311 MEMB     285      POPC     H2S      HAL2     0.900000E-01   1.00800           0
     34312 MEMB     285      POPC     C3       CTL2     0.800000E-01   12.0110           0
     34313 MEMB     285      POPC     HX       HAL2     0.900000E-01   1.00800           0
     34314 MEMB     285      POPC     HY       HAL2     0.900000E-01   1.00800           0
     34315 MEMB     285      POPC     O31      OSL     -0.490000       15.9994           0
     34316 MEMB     285      POPC     C31      CL       0.900000       12.0110           0
     34317 MEMB     285      POPC     O32      OBL     -0.630000       15.9994           0
     34318 MEMB     285      POPC     C32      CTL2    -0.220000       12.0110           0
     34319 MEMB     285      POPC     H2X      HAL2     0.900000E-01   1.00800           0
     34320 MEMB     285      POPC     H2Y      HAL2     0.900000E-01   1.00800           0
     34321 MEMB     285      POPC     C23      CTL2    -0.180000       12.0110           0
     34322 MEMB     285      POPC     H3R      HAL2     0.900000E-01   1.00800           0
     34323 MEMB     285      POPC     H3S      HAL2     0.900000E-01   1.00800           0
     34324 MEMB     285      POPC     C24      CTL2    -0.180000       12.0110           0
     34325 MEMB     285      POPC     H4R      HAL2     0.900000E-01   1.00800           0
     34326 MEMB     285      POPC     H4S      HAL2     0.900000E-01   1.00800           0
     34327 MEMB     285      POPC     C25      CTL2    -0.180000       12.0110           0
     34328 MEMB     285      POPC     H5R      HAL2     0.900000E-01   1.00800           0
     34329 MEMB     285      POPC     H5S      HAL2     0.900000E-01   1.00800           0
     34330 MEMB     285      POPC     C26      CTL2    -0.180000       12.0110           0
     34331 MEMB     285      POPC     H6R      HAL2     0.900000E-01   1.00800           0
     34332 MEMB     285      POPC     H6S      HAL2     0.900000E-01   1.00800           0
     34333 MEMB     285      POPC     C27      CTL2    -0.180000       12.0110           0
     34334 MEMB     285      POPC     H7R      HAL2     0.900000E-01   1.00800           0
     34335 MEMB     285      POPC     H7S      HAL2     0.900000E-01   1.00800           0
     34336 MEMB     285      POPC     C28      CTL2    -0.180000       12.0110           0
     34337 MEMB     285      POPC     H8R      HAL2     0.900000E-01   1.00800           0
     34338 MEMB     285      POPC     H8S      HAL2     0.900000E-01   1.00800           0
     34339 MEMB     285      POPC     C29      CEL1    -0.150000       12.0110           0
     34340 MEMB     285      POPC     H91      HEL1     0.150000       1.00800           0
     34341 MEMB     285      POPC     C210     CEL1    -0.150000       12.0110           0
     34342 MEMB     285      POPC     H101     HEL1     0.150000       1.00800           0
     34343 MEMB     285      POPC     C211     CTL2    -0.180000       12.0110           0
     34344 MEMB     285      POPC     H11R     HAL2     0.900000E-01   1.00800           0
     34345 MEMB     285      POPC     H11S     HAL2     0.900000E-01   1.00800           0
     34346 MEMB     285      POPC     C212     CTL2    -0.180000       12.0110           0
     34347 MEMB     285      POPC     H12R     HAL2     0.900000E-01   1.00800           0
     34348 MEMB     285      POPC     H12S     HAL2     0.900000E-01   1.00800           0
     34349 MEMB     285      POPC     C213     CTL2    -0.180000       12.0110           0
     34350 MEMB     285      POPC     H13R     HAL2     0.900000E-01   1.00800           0
     34351 MEMB     285      POPC     H13S     HAL2     0.900000E-01   1.00800           0
     34352 MEMB     285      POPC     C214     CTL2    -0.180000       12.0110           0
     34353 MEMB     285      POPC     H14R     HAL2     0.900000E-01   1.00800           0
     34354 MEMB     285      POPC     H14S     HAL2     0.900000E-01   1.00800           0
     34355 MEMB     285      POPC     C215     CTL2    -0.180000       12.0110           0
     34356 MEMB     285      POPC     H15R     HAL2     0.900000E-01   1.00800           0
     34357 MEMB     285      POPC     H15S     HAL2     0.900000E-01   1.00800           0
     34358 MEMB     285      POPC     C216     CTL2    -0.180000       12.0110           0
     34359 MEMB     285      POPC     H16R     HAL2     0.900000E-01   1.00800           0
     34360 MEMB     285      POPC     H16S     HAL2     0.900000E-01   1.00800           0
     34361 MEMB     285      POPC     C217     CTL2    -0.180000       12.0110           0
     34362 MEMB     285      POPC     H17R     HAL2     0.900000E-01   1.00800           0
     34363 MEMB     285      POPC     H17S     HAL2     0.900000E-01   1.00800           0
     34364 MEMB     285      POPC     C218     CTL3    -0.270000       12.0110           0
     34365 MEMB     285      POPC     H18R     HAL3     0.900000E-01   1.00800           0
     34366 MEMB     285      POPC     H18S     HAL3     0.900000E-01   1.00800           0
     34367 MEMB     285      POPC     H18T     HAL3     0.900000E-01   1.00800           0
     34368 MEMB     285      POPC     C33      CTL2    -0.180000       12.0110           0
     34369 MEMB     285      POPC     H3X      HAL2     0.900000E-01   1.00800           0
     34370 MEMB     285      POPC     H3Y      HAL2     0.900000E-01   1.00800           0
     34371 MEMB     285      POPC     C34      CTL2    -0.180000       12.0110           0
     34372 MEMB     285      POPC     H4X      HAL2     0.900000E-01   1.00800           0
     34373 MEMB     285      POPC     H4Y      HAL2     0.900000E-01   1.00800           0
     34374 MEMB     285      POPC     C35      CTL2    -0.180000       12.0110           0
     34375 MEMB     285      POPC     H5X      HAL2     0.900000E-01   1.00800           0
     34376 MEMB     285      POPC     H5Y      HAL2     0.900000E-01   1.00800           0
     34377 MEMB     285      POPC     C36      CTL2    -0.180000       12.0110           0
     34378 MEMB     285      POPC     H6X      HAL2     0.900000E-01   1.00800           0
     34379 MEMB     285      POPC     H6Y      HAL2     0.900000E-01   1.00800           0
     34380 MEMB     285      POPC     C37      CTL2    -0.180000       12.0110           0
     34381 MEMB     285      POPC     H7X      HAL2     0.900000E-01   1.00800           0
     34382 MEMB     285      POPC     H7Y      HAL2     0.900000E-01   1.00800           0
     34383 MEMB     285      POPC     C38      CTL2    -0.180000       12.0110           0
     34384 MEMB     285      POPC     H8X      HAL2     0.900000E-01   1.00800           0
     34385 MEMB     285      POPC     H8Y      HAL2     0.900000E-01   1.00800           0
     34386 MEMB     285      POPC     C39      CTL2    -0.180000       12.0110           0
     34387 MEMB     285      POPC     H9X      HAL2     0.900000E-01   1.00800           0
     34388 MEMB     285      POPC     H9Y      HAL2     0.900000E-01   1.00800           0
     34389 MEMB     285      POPC     C310     CTL2    -0.180000       12.0110           0
     34390 MEMB     285      POPC     H10X     HAL2     0.900000E-01   1.00800           0
     34391 MEMB     285      POPC     H10Y     HAL2     0.900000E-01   1.00800           0
     34392 MEMB     285      POPC     C311     CTL2    -0.180000       12.0110           0
     34393 MEMB     285      POPC     H11X     HAL2     0.900000E-01   1.00800           0
     34394 MEMB     285      POPC     H11Y     HAL2     0.900000E-01   1.00800           0
     34395 MEMB     285      POPC     C312     CTL2    -0.180000       12.0110           0
     34396 MEMB     285      POPC     H12X     HAL2     0.900000E-01   1.00800           0
     34397 MEMB     285      POPC     H12Y     HAL2     0.900000E-01   1.00800           0
     34398 MEMB     285      POPC     C313     CTL2    -0.180000       12.0110           0
     34399 MEMB     285      POPC     H13X     HAL2     0.900000E-01   1.00800           0
     34400 MEMB     285      POPC     H13Y     HAL2     0.900000E-01   1.00800           0
     34401 MEMB     285      POPC     C314     CTL2    -0.180000       12.0110           0
     34402 MEMB     285      POPC     H14X     HAL2     0.900000E-01   1.00800           0
     34403 MEMB     285      POPC     H14Y     HAL2     0.900000E-01   1.00800           0
     34404 MEMB     285      POPC     C315     CTL2    -0.180000       12.0110           0
     34405 MEMB     285      POPC     H15X     HAL2     0.900000E-01   1.00800           0
     34406 MEMB     285      POPC     H15Y     HAL2     0.900000E-01   1.00800           0
     34407 MEMB     285      POPC     C316     CTL3    -0.270000       12.0110           0
     34408 MEMB     285      POPC     H16X     HAL3     0.900000E-01   1.00800           0
     34409 MEMB     285      POPC     H16Y     HAL3     0.900000E-01   1.00800           0
     34410 MEMB     285      POPC     H16Z     HAL3     0.900000E-01   1.00800           0
     34411 MEMB     286      POPC     N        NTL     -0.600000       14.0070           0
     34412 MEMB     286      POPC     C12      CTL2    -0.100000       12.0110           0
     34413 MEMB     286      POPC     H12A     HL       0.250000       1.00800           0
     34414 MEMB     286      POPC     H12B     HL       0.250000       1.00800           0
     34415 MEMB     286      POPC     C13      CTL5    -0.350000       12.0110           0
     34416 MEMB     286      POPC     H13A     HL       0.250000       1.00800           0
     34417 MEMB     286      POPC     H13B     HL       0.250000       1.00800           0
     34418 MEMB     286      POPC     H13C     HL       0.250000       1.00800           0
     34419 MEMB     286      POPC     C14      CTL5    -0.350000       12.0110           0
     34420 MEMB     286      POPC     H14A     HL       0.250000       1.00800           0
     34421 MEMB     286      POPC     H14B     HL       0.250000       1.00800           0
     34422 MEMB     286      POPC     H14C     HL       0.250000       1.00800           0
     34423 MEMB     286      POPC     C15      CTL5    -0.350000       12.0110           0
     34424 MEMB     286      POPC     H15A     HL       0.250000       1.00800           0
     34425 MEMB     286      POPC     H15B     HL       0.250000       1.00800           0
     34426 MEMB     286      POPC     H15C     HL       0.250000       1.00800           0
     34427 MEMB     286      POPC     C11      CTL2    -0.800000E-01   12.0110           0
     34428 MEMB     286      POPC     H11A     HAL2     0.900000E-01   1.00800           0
     34429 MEMB     286      POPC     H11B     HAL2     0.900000E-01   1.00800           0
     34430 MEMB     286      POPC     P        PL        1.50000       30.9740           0
     34431 MEMB     286      POPC     O13      O2L     -0.780000       15.9994           0
     34432 MEMB     286      POPC     O14      O2L     -0.780000       15.9994           0
     34433 MEMB     286      POPC     O12      OSLP    -0.570000       15.9994           0
     34434 MEMB     286      POPC     O11      OSLP    -0.570000       15.9994           0
     34435 MEMB     286      POPC     C1       CTL2    -0.800000E-01   12.0110           0
     34436 MEMB     286      POPC     HA       HAL2     0.900000E-01   1.00800           0
     34437 MEMB     286      POPC     HB       HAL2     0.900000E-01   1.00800           0
     34438 MEMB     286      POPC     C2       CTL1     0.170000       12.0110           0
     34439 MEMB     286      POPC     HS       HAL1     0.900000E-01   1.00800           0
     34440 MEMB     286      POPC     O21      OSL     -0.490000       15.9994           0
     34441 MEMB     286      POPC     C21      CL       0.900000       12.0110           0
     34442 MEMB     286      POPC     O22      OBL     -0.630000       15.9994           0
     34443 MEMB     286      POPC     C22      CTL2    -0.220000       12.0110           0
     34444 MEMB     286      POPC     H2R      HAL2     0.900000E-01   1.00800           0
     34445 MEMB     286      POPC     H2S      HAL2     0.900000E-01   1.00800           0
     34446 MEMB     286      POPC     C3       CTL2     0.800000E-01   12.0110           0
     34447 MEMB     286      POPC     HX       HAL2     0.900000E-01   1.00800           0
     34448 MEMB     286      POPC     HY       HAL2     0.900000E-01   1.00800           0
     34449 MEMB     286      POPC     O31      OSL     -0.490000       15.9994           0
     34450 MEMB     286      POPC     C31      CL       0.900000       12.0110           0
     34451 MEMB     286      POPC     O32      OBL     -0.630000       15.9994           0
     34452 MEMB     286      POPC     C32      CTL2    -0.220000       12.0110           0
     34453 MEMB     286      POPC     H2X      HAL2     0.900000E-01   1.00800           0
     34454 MEMB     286      POPC     H2Y      HAL2     0.900000E-01   1.00800           0
     34455 MEMB     286      POPC     C23      CTL2    -0.180000       12.0110           0
     34456 MEMB     286      POPC     H3R      HAL2     0.900000E-01   1.00800           0
     34457 MEMB     286      POPC     H3S      HAL2     0.900000E-01   1.00800           0
     34458 MEMB     286      POPC     C24      CTL2    -0.180000       12.0110           0
     34459 MEMB     286      POPC     H4R      HAL2     0.900000E-01   1.00800           0
     34460 MEMB     286      POPC     H4S      HAL2     0.900000E-01   1.00800           0
     34461 MEMB     286      POPC     C25      CTL2    -0.180000       12.0110           0
     34462 MEMB     286      POPC     H5R      HAL2     0.900000E-01   1.00800           0
     34463 MEMB     286      POPC     H5S      HAL2     0.900000E-01   1.00800           0
     34464 MEMB     286      POPC     C26      CTL2    -0.180000       12.0110           0
     34465 MEMB     286      POPC     H6R      HAL2     0.900000E-01   1.00800           0
     34466 MEMB     286      POPC     H6S      HAL2     0.900000E-01   1.00800           0
     34467 MEMB     286      POPC     C27      CTL2    -0.180000       12.0110           0
     34468 MEMB     286      POPC     H7R      HAL2     0.900000E-01   1.00800           0
     34469 MEMB     286      POPC     H7S      HAL2     0.900000E-01   1.00800           0
     34470 MEMB     286      POPC     C28      CTL2    -0.180000       12.0110           0
     34471 MEMB     286      POPC     H8R      HAL2     0.900000E-01   1.00800           0
     34472 MEMB     286      POPC     H8S      HAL2     0.900000E-01   1.00800           0
     34473 MEMB     286      POPC     C29      CEL1    -0.150000       12.0110           0
     34474 MEMB     286      POPC     H91      HEL1     0.150000       1.00800           0
     34475 MEMB     286      POPC     C210     CEL1    -0.150000       12.0110           0
     34476 MEMB     286      POPC     H101     HEL1     0.150000       1.00800           0
     34477 MEMB     286      POPC     C211     CTL2    -0.180000       12.0110           0
     34478 MEMB     286      POPC     H11R     HAL2     0.900000E-01   1.00800           0
     34479 MEMB     286      POPC     H11S     HAL2     0.900000E-01   1.00800           0
     34480 MEMB     286      POPC     C212     CTL2    -0.180000       12.0110           0
     34481 MEMB     286      POPC     H12R     HAL2     0.900000E-01   1.00800           0
     34482 MEMB     286      POPC     H12S     HAL2     0.900000E-01   1.00800           0
     34483 MEMB     286      POPC     C213     CTL2    -0.180000       12.0110           0
     34484 MEMB     286      POPC     H13R     HAL2     0.900000E-01   1.00800           0
     34485 MEMB     286      POPC     H13S     HAL2     0.900000E-01   1.00800           0
     34486 MEMB     286      POPC     C214     CTL2    -0.180000       12.0110           0
     34487 MEMB     286      POPC     H14R     HAL2     0.900000E-01   1.00800           0
     34488 MEMB     286      POPC     H14S     HAL2     0.900000E-01   1.00800           0
     34489 MEMB     286      POPC     C215     CTL2    -0.180000       12.0110           0
     34490 MEMB     286      POPC     H15R     HAL2     0.900000E-01   1.00800           0
     34491 MEMB     286      POPC     H15S     HAL2     0.900000E-01   1.00800           0
     34492 MEMB     286      POPC     C216     CTL2    -0.180000       12.0110           0
     34493 MEMB     286      POPC     H16R     HAL2     0.900000E-01   1.00800           0
     34494 MEMB     286      POPC     H16S     HAL2     0.900000E-01   1.00800           0
     34495 MEMB     286      POPC     C217     CTL2    -0.180000       12.0110           0
     34496 MEMB     286      POPC     H17R     HAL2     0.900000E-01   1.00800           0
     34497 MEMB     286      POPC     H17S     HAL2     0.900000E-01   1.00800           0
     34498 MEMB     286      POPC     C218     CTL3    -0.270000       12.0110           0
     34499 MEMB     286      POPC     H18R     HAL3     0.900000E-01   1.00800           0
     34500 MEMB     286      POPC     H18S     HAL3     0.900000E-01   1.00800           0
     34501 MEMB     286      POPC     H18T     HAL3     0.900000E-01   1.00800           0
     34502 MEMB     286      POPC     C33      CTL2    -0.180000       12.0110           0
     34503 MEMB     286      POPC     H3X      HAL2     0.900000E-01   1.00800           0
     34504 MEMB     286      POPC     H3Y      HAL2     0.900000E-01   1.00800           0
     34505 MEMB     286      POPC     C34      CTL2    -0.180000       12.0110           0
     34506 MEMB     286      POPC     H4X      HAL2     0.900000E-01   1.00800           0
     34507 MEMB     286      POPC     H4Y      HAL2     0.900000E-01   1.00800           0
     34508 MEMB     286      POPC     C35      CTL2    -0.180000       12.0110           0
     34509 MEMB     286      POPC     H5X      HAL2     0.900000E-01   1.00800           0
     34510 MEMB     286      POPC     H5Y      HAL2     0.900000E-01   1.00800           0
     34511 MEMB     286      POPC     C36      CTL2    -0.180000       12.0110           0
     34512 MEMB     286      POPC     H6X      HAL2     0.900000E-01   1.00800           0
     34513 MEMB     286      POPC     H6Y      HAL2     0.900000E-01   1.00800           0
     34514 MEMB     286      POPC     C37      CTL2    -0.180000       12.0110           0
     34515 MEMB     286      POPC     H7X      HAL2     0.900000E-01   1.00800           0
     34516 MEMB     286      POPC     H7Y      HAL2     0.900000E-01   1.00800           0
     34517 MEMB     286      POPC     C38      CTL2    -0.180000       12.0110           0
     34518 MEMB     286      POPC     H8X      HAL2     0.900000E-01   1.00800           0
     34519 MEMB     286      POPC     H8Y      HAL2     0.900000E-01   1.00800           0
     34520 MEMB     286      POPC     C39      CTL2    -0.180000       12.0110           0
     34521 MEMB     286      POPC     H9X      HAL2     0.900000E-01   1.00800           0
     34522 MEMB     286      POPC     H9Y      HAL2     0.900000E-01   1.00800           0
     34523 MEMB     286      POPC     C310     CTL2    -0.180000       12.0110           0
     34524 MEMB     286      POPC     H10X     HAL2     0.900000E-01   1.00800           0
     34525 MEMB     286      POPC     H10Y     HAL2     0.900000E-01   1.00800           0
     34526 MEMB     286      POPC     C311     CTL2    -0.180000       12.0110           0
     34527 MEMB     286      POPC     H11X     HAL2     0.900000E-01   1.00800           0
     34528 MEMB     286      POPC     H11Y     HAL2     0.900000E-01   1.00800           0
     34529 MEMB     286      POPC     C312     CTL2    -0.180000       12.0110           0
     34530 MEMB     286      POPC     H12X     HAL2     0.900000E-01   1.00800           0
     34531 MEMB     286      POPC     H12Y     HAL2     0.900000E-01   1.00800           0
     34532 MEMB     286      POPC     C313     CTL2    -0.180000       12.0110           0
     34533 MEMB     286      POPC     H13X     HAL2     0.900000E-01   1.00800           0
     34534 MEMB     286      POPC     H13Y     HAL2     0.900000E-01   1.00800           0
     34535 MEMB     286      POPC     C314     CTL2    -0.180000       12.0110           0
     34536 MEMB     286      POPC     H14X     HAL2     0.900000E-01   1.00800           0
     34537 MEMB     286      POPC     H14Y     HAL2     0.900000E-01   1.00800           0
     34538 MEMB     286      POPC     C315     CTL2    -0.180000       12.0110           0
     34539 MEMB     286      POPC     H15X     HAL2     0.900000E-01   1.00800           0
     34540 MEMB     286      POPC     H15Y     HAL2     0.900000E-01   1.00800           0
     34541 MEMB     286      POPC     C316     CTL3    -0.270000       12.0110           0
     34542 MEMB     286      POPC     H16X     HAL3     0.900000E-01   1.00800           0
     34543 MEMB     286      POPC     H16Y     HAL3     0.900000E-01   1.00800           0
     34544 MEMB     286      POPC     H16Z     HAL3     0.900000E-01   1.00800           0
     34545 MEMB     287      POPC     N        NTL     -0.600000       14.0070           0
     34546 MEMB     287      POPC     C12      CTL2    -0.100000       12.0110           0
     34547 MEMB     287      POPC     H12A     HL       0.250000       1.00800           0
     34548 MEMB     287      POPC     H12B     HL       0.250000       1.00800           0
     34549 MEMB     287      POPC     C13      CTL5    -0.350000       12.0110           0
     34550 MEMB     287      POPC     H13A     HL       0.250000       1.00800           0
     34551 MEMB     287      POPC     H13B     HL       0.250000       1.00800           0
     34552 MEMB     287      POPC     H13C     HL       0.250000       1.00800           0
     34553 MEMB     287      POPC     C14      CTL5    -0.350000       12.0110           0
     34554 MEMB     287      POPC     H14A     HL       0.250000       1.00800           0
     34555 MEMB     287      POPC     H14B     HL       0.250000       1.00800           0
     34556 MEMB     287      POPC     H14C     HL       0.250000       1.00800           0
     34557 MEMB     287      POPC     C15      CTL5    -0.350000       12.0110           0
     34558 MEMB     287      POPC     H15A     HL       0.250000       1.00800           0
     34559 MEMB     287      POPC     H15B     HL       0.250000       1.00800           0
     34560 MEMB     287      POPC     H15C     HL       0.250000       1.00800           0
     34561 MEMB     287      POPC     C11      CTL2    -0.800000E-01   12.0110           0
     34562 MEMB     287      POPC     H11A     HAL2     0.900000E-01   1.00800           0
     34563 MEMB     287      POPC     H11B     HAL2     0.900000E-01   1.00800           0
     34564 MEMB     287      POPC     P        PL        1.50000       30.9740           0
     34565 MEMB     287      POPC     O13      O2L     -0.780000       15.9994           0
     34566 MEMB     287      POPC     O14      O2L     -0.780000       15.9994           0
     34567 MEMB     287      POPC     O12      OSLP    -0.570000       15.9994           0
     34568 MEMB     287      POPC     O11      OSLP    -0.570000       15.9994           0
     34569 MEMB     287      POPC     C1       CTL2    -0.800000E-01   12.0110           0
     34570 MEMB     287      POPC     HA       HAL2     0.900000E-01   1.00800           0
     34571 MEMB     287      POPC     HB       HAL2     0.900000E-01   1.00800           0
     34572 MEMB     287      POPC     C2       CTL1     0.170000       12.0110           0
     34573 MEMB     287      POPC     HS       HAL1     0.900000E-01   1.00800           0
     34574 MEMB     287      POPC     O21      OSL     -0.490000       15.9994           0
     34575 MEMB     287      POPC     C21      CL       0.900000       12.0110           0
     34576 MEMB     287      POPC     O22      OBL     -0.630000       15.9994           0
     34577 MEMB     287      POPC     C22      CTL2    -0.220000       12.0110           0
     34578 MEMB     287      POPC     H2R      HAL2     0.900000E-01   1.00800           0
     34579 MEMB     287      POPC     H2S      HAL2     0.900000E-01   1.00800           0
     34580 MEMB     287      POPC     C3       CTL2     0.800000E-01   12.0110           0
     34581 MEMB     287      POPC     HX       HAL2     0.900000E-01   1.00800           0
     34582 MEMB     287      POPC     HY       HAL2     0.900000E-01   1.00800           0
     34583 MEMB     287      POPC     O31      OSL     -0.490000       15.9994           0
     34584 MEMB     287      POPC     C31      CL       0.900000       12.0110           0
     34585 MEMB     287      POPC     O32      OBL     -0.630000       15.9994           0
     34586 MEMB     287      POPC     C32      CTL2    -0.220000       12.0110           0
     34587 MEMB     287      POPC     H2X      HAL2     0.900000E-01   1.00800           0
     34588 MEMB     287      POPC     H2Y      HAL2     0.900000E-01   1.00800           0
     34589 MEMB     287      POPC     C23      CTL2    -0.180000       12.0110           0
     34590 MEMB     287      POPC     H3R      HAL2     0.900000E-01   1.00800           0
     34591 MEMB     287      POPC     H3S      HAL2     0.900000E-01   1.00800           0
     34592 MEMB     287      POPC     C24      CTL2    -0.180000       12.0110           0
     34593 MEMB     287      POPC     H4R      HAL2     0.900000E-01   1.00800           0
     34594 MEMB     287      POPC     H4S      HAL2     0.900000E-01   1.00800           0
     34595 MEMB     287      POPC     C25      CTL2    -0.180000       12.0110           0
     34596 MEMB     287      POPC     H5R      HAL2     0.900000E-01   1.00800           0
     34597 MEMB     287      POPC     H5S      HAL2     0.900000E-01   1.00800           0
     34598 MEMB     287      POPC     C26      CTL2    -0.180000       12.0110           0
     34599 MEMB     287      POPC     H6R      HAL2     0.900000E-01   1.00800           0
     34600 MEMB     287      POPC     H6S      HAL2     0.900000E-01   1.00800           0
     34601 MEMB     287      POPC     C27      CTL2    -0.180000       12.0110           0
     34602 MEMB     287      POPC     H7R      HAL2     0.900000E-01   1.00800           0
     34603 MEMB     287      POPC     H7S      HAL2     0.900000E-01   1.00800           0
     34604 MEMB     287      POPC     C28      CTL2    -0.180000       12.0110           0
     34605 MEMB     287      POPC     H8R      HAL2     0.900000E-01   1.00800           0
     34606 MEMB     287      POPC     H8S      HAL2     0.900000E-01   1.00800           0
     34607 MEMB     287      POPC     C29      CEL1    -0.150000       12.0110           0
     34608 MEMB     287      POPC     H91      HEL1     0.150000       1.00800           0
     34609 MEMB     287      POPC     C210     CEL1    -0.150000       12.0110           0
     34610 MEMB     287      POPC     H101     HEL1     0.150000       1.00800           0
     34611 MEMB     287      POPC     C211     CTL2    -0.180000       12.0110           0
     34612 MEMB     287      POPC     H11R     HAL2     0.900000E-01   1.00800           0
     34613 MEMB     287      POPC     H11S     HAL2     0.900000E-01   1.00800           0
     34614 MEMB     287      POPC     C212     CTL2    -0.180000       12.0110           0
     34615 MEMB     287      POPC     H12R     HAL2     0.900000E-01   1.00800           0
     34616 MEMB     287      POPC     H12S     HAL2     0.900000E-01   1.00800           0
     34617 MEMB     287      POPC     C213     CTL2    -0.180000       12.0110           0
     34618 MEMB     287      POPC     H13R     HAL2     0.900000E-01   1.00800           0
     34619 MEMB     287      POPC     H13S     HAL2     0.900000E-01   1.00800           0
     34620 MEMB     287      POPC     C214     CTL2    -0.180000       12.0110           0
     34621 MEMB     287      POPC     H14R     HAL2     0.900000E-01   1.00800           0
     34622 MEMB     287      POPC     H14S     HAL2     0.900000E-01   1.00800           0
     34623 MEMB     287      POPC     C215     CTL2    -0.180000       12.0110           0
     34624 MEMB     287      POPC     H15R     HAL2     0.900000E-01   1.00800           0
     34625 MEMB     287      POPC     H15S     HAL2     0.900000E-01   1.00800           0
     34626 MEMB     287      POPC     C216     CTL2    -0.180000       12.0110           0
     34627 MEMB     287      POPC     H16R     HAL2     0.900000E-01   1.00800           0
     34628 MEMB     287      POPC     H16S     HAL2     0.900000E-01   1.00800           0
     34629 MEMB     287      POPC     C217     CTL2    -0.180000       12.0110           0
     34630 MEMB     287      POPC     H17R     HAL2     0.900000E-01   1.00800           0
     34631 MEMB     287      POPC     H17S     HAL2     0.900000E-01   1.00800           0
     34632 MEMB     287      POPC     C218     CTL3    -0.270000       12.0110           0
     34633 MEMB     287      POPC     H18R     HAL3     0.900000E-01   1.00800           0
     34634 MEMB     287      POPC     H18S     HAL3     0.900000E-01   1.00800           0
     34635 MEMB     287      POPC     H18T     HAL3     0.900000E-01   1.00800           0
     34636 MEMB     287      POPC     C33      CTL2    -0.180000       12.0110           0
     34637 MEMB     287      POPC     H3X      HAL2     0.900000E-01   1.00800           0
     34638 MEMB     287      POPC     H3Y      HAL2     0.900000E-01   1.00800           0
     34639 MEMB     287      POPC     C34      CTL2    -0.180000       12.0110           0
     34640 MEMB     287      POPC     H4X      HAL2     0.900000E-01   1.00800           0
     34641 MEMB     287      POPC     H4Y      HAL2     0.900000E-01   1.00800           0
     34642 MEMB     287      POPC     C35      CTL2    -0.180000       12.0110           0
     34643 MEMB     287      POPC     H5X      HAL2     0.900000E-01   1.00800           0
     34644 MEMB     287      POPC     H5Y      HAL2     0.900000E-01   1.00800           0
     34645 MEMB     287      POPC     C36      CTL2    -0.180000       12.0110           0
     34646 MEMB     287      POPC     H6X      HAL2     0.900000E-01   1.00800           0
     34647 MEMB     287      POPC     H6Y      HAL2     0.900000E-01   1.00800           0
     34648 MEMB     287      POPC     C37      CTL2    -0.180000       12.0110           0
     34649 MEMB     287      POPC     H7X      HAL2     0.900000E-01   1.00800           0
     34650 MEMB     287      POPC     H7Y      HAL2     0.900000E-01   1.00800           0
     34651 MEMB     287      POPC     C38      CTL2    -0.180000       12.0110           0
     34652 MEMB     287      POPC     H8X      HAL2     0.900000E-01   1.00800           0
     34653 MEMB     287      POPC     H8Y      HAL2     0.900000E-01   1.00800           0
     34654 MEMB     287      POPC     C39      CTL2    -0.180000       12.0110           0
     34655 MEMB     287      POPC     H9X      HAL2     0.900000E-01   1.00800           0
     34656 MEMB     287      POPC     H9Y      HAL2     0.900000E-01   1.00800           0
     34657 MEMB     287      POPC     C310     CTL2    -0.180000       12.0110           0
     34658 MEMB     287      POPC     H10X     HAL2     0.900000E-01   1.00800           0
     34659 MEMB     287      POPC     H10Y     HAL2     0.900000E-01   1.00800           0
     34660 MEMB     287      POPC     C311     CTL2    -0.180000       12.0110           0
     34661 MEMB     287      POPC     H11X     HAL2     0.900000E-01   1.00800           0
     34662 MEMB     287      POPC     H11Y     HAL2     0.900000E-01   1.00800           0
     34663 MEMB     287      POPC     C312     CTL2    -0.180000       12.0110           0
     34664 MEMB     287      POPC     H12X     HAL2     0.900000E-01   1.00800           0
     34665 MEMB     287      POPC     H12Y     HAL2     0.900000E-01   1.00800           0
     34666 MEMB     287      POPC     C313     CTL2    -0.180000       12.0110           0
     34667 MEMB     287      POPC     H13X     HAL2     0.900000E-01   1.00800           0
     34668 MEMB     287      POPC     H13Y     HAL2     0.900000E-01   1.00800           0
     34669 MEMB     287      POPC     C314     CTL2    -0.180000       12.0110           0
     34670 MEMB     287      POPC     H14X     HAL2     0.900000E-01   1.00800           0
     34671 MEMB     287      POPC     H14Y     HAL2     0.900000E-01   1.00800           0
     34672 MEMB     287      POPC     C315     CTL2    -0.180000       12.0110           0
     34673 MEMB     287      POPC     H15X     HAL2     0.900000E-01   1.00800           0
     34674 MEMB     287      POPC     H15Y     HAL2     0.900000E-01   1.00800           0
     34675 MEMB     287      POPC     C316     CTL3    -0.270000       12.0110           0
     34676 MEMB     287      POPC     H16X     HAL3     0.900000E-01   1.00800           0
     34677 MEMB     287      POPC     H16Y     HAL3     0.900000E-01   1.00800           0
     34678 MEMB     287      POPC     H16Z     HAL3     0.900000E-01   1.00800           0
     34679 MEMB     288      POPC     N        NTL     -0.600000       14.0070           0
     34680 MEMB     288      POPC     C12      CTL2    -0.100000       12.0110           0
     34681 MEMB     288      POPC     H12A     HL       0.250000       1.00800           0
     34682 MEMB     288      POPC     H12B     HL       0.250000       1.00800           0
     34683 MEMB     288      POPC     C13      CTL5    -0.350000       12.0110           0
     34684 MEMB     288      POPC     H13A     HL       0.250000       1.00800           0
     34685 MEMB     288      POPC     H13B     HL       0.250000       1.00800           0
     34686 MEMB     288      POPC     H13C     HL       0.250000       1.00800           0
     34687 MEMB     288      POPC     C14      CTL5    -0.350000       12.0110           0
     34688 MEMB     288      POPC     H14A     HL       0.250000       1.00800           0
     34689 MEMB     288      POPC     H14B     HL       0.250000       1.00800           0
     34690 MEMB     288      POPC     H14C     HL       0.250000       1.00800           0
     34691 MEMB     288      POPC     C15      CTL5    -0.350000       12.0110           0
     34692 MEMB     288      POPC     H15A     HL       0.250000       1.00800           0
     34693 MEMB     288      POPC     H15B     HL       0.250000       1.00800           0
     34694 MEMB     288      POPC     H15C     HL       0.250000       1.00800           0
     34695 MEMB     288      POPC     C11      CTL2    -0.800000E-01   12.0110           0
     34696 MEMB     288      POPC     H11A     HAL2     0.900000E-01   1.00800           0
     34697 MEMB     288      POPC     H11B     HAL2     0.900000E-01   1.00800           0
     34698 MEMB     288      POPC     P        PL        1.50000       30.9740           0
     34699 MEMB     288      POPC     O13      O2L     -0.780000       15.9994           0
     34700 MEMB     288      POPC     O14      O2L     -0.780000       15.9994           0
     34701 MEMB     288      POPC     O12      OSLP    -0.570000       15.9994           0
     34702 MEMB     288      POPC     O11      OSLP    -0.570000       15.9994           0
     34703 MEMB     288      POPC     C1       CTL2    -0.800000E-01   12.0110           0
     34704 MEMB     288      POPC     HA       HAL2     0.900000E-01   1.00800           0
     34705 MEMB     288      POPC     HB       HAL2     0.900000E-01   1.00800           0
     34706 MEMB     288      POPC     C2       CTL1     0.170000       12.0110           0
     34707 MEMB     288      POPC     HS       HAL1     0.900000E-01   1.00800           0
     34708 MEMB     288      POPC     O21      OSL     -0.490000       15.9994           0
     34709 MEMB     288      POPC     C21      CL       0.900000       12.0110           0
     34710 MEMB     288      POPC     O22      OBL     -0.630000       15.9994           0
     34711 MEMB     288      POPC     C22      CTL2    -0.220000       12.0110           0
     34712 MEMB     288      POPC     H2R      HAL2     0.900000E-01   1.00800           0
     34713 MEMB     288      POPC     H2S      HAL2     0.900000E-01   1.00800           0
     34714 MEMB     288      POPC     C3       CTL2     0.800000E-01   12.0110           0
     34715 MEMB     288      POPC     HX       HAL2     0.900000E-01   1.00800           0
     34716 MEMB     288      POPC     HY       HAL2     0.900000E-01   1.00800           0
     34717 MEMB     288      POPC     O31      OSL     -0.490000       15.9994           0
     34718 MEMB     288      POPC     C31      CL       0.900000       12.0110           0
     34719 MEMB     288      POPC     O32      OBL     -0.630000       15.9994           0
     34720 MEMB     288      POPC     C32      CTL2    -0.220000       12.0110           0
     34721 MEMB     288      POPC     H2X      HAL2     0.900000E-01   1.00800           0
     34722 MEMB     288      POPC     H2Y      HAL2     0.900000E-01   1.00800           0
     34723 MEMB     288      POPC     C23      CTL2    -0.180000       12.0110           0
     34724 MEMB     288      POPC     H3R      HAL2     0.900000E-01   1.00800           0
     34725 MEMB     288      POPC     H3S      HAL2     0.900000E-01   1.00800           0
     34726 MEMB     288      POPC     C24      CTL2    -0.180000       12.0110           0
     34727 MEMB     288      POPC     H4R      HAL2     0.900000E-01   1.00800           0
     34728 MEMB     288      POPC     H4S      HAL2     0.900000E-01   1.00800           0
     34729 MEMB     288      POPC     C25      CTL2    -0.180000       12.0110           0
     34730 MEMB     288      POPC     H5R      HAL2     0.900000E-01   1.00800           0
     34731 MEMB     288      POPC     H5S      HAL2     0.900000E-01   1.00800           0
     34732 MEMB     288      POPC     C26      CTL2    -0.180000       12.0110           0
     34733 MEMB     288      POPC     H6R      HAL2     0.900000E-01   1.00800           0
     34734 MEMB     288      POPC     H6S      HAL2     0.900000E-01   1.00800           0
     34735 MEMB     288      POPC     C27      CTL2    -0.180000       12.0110           0
     34736 MEMB     288      POPC     H7R      HAL2     0.900000E-01   1.00800           0
     34737 MEMB     288      POPC     H7S      HAL2     0.900000E-01   1.00800           0
     34738 MEMB     288      POPC     C28      CTL2    -0.180000       12.0110           0
     34739 MEMB     288      POPC     H8R      HAL2     0.900000E-01   1.00800           0
     34740 MEMB     288      POPC     H8S      HAL2     0.900000E-01   1.00800           0
     34741 MEMB     288      POPC     C29      CEL1    -0.150000       12.0110           0
     34742 MEMB     288      POPC     H91      HEL1     0.150000       1.00800           0
     34743 MEMB     288      POPC     C210     CEL1    -0.150000       12.0110           0
     34744 MEMB     288      POPC     H101     HEL1     0.150000       1.00800           0
     34745 MEMB     288      POPC     C211     CTL2    -0.180000       12.0110           0
     34746 MEMB     288      POPC     H11R     HAL2     0.900000E-01   1.00800           0
     34747 MEMB     288      POPC     H11S     HAL2     0.900000E-01   1.00800           0
     34748 MEMB     288      POPC     C212     CTL2    -0.180000       12.0110           0
     34749 MEMB     288      POPC     H12R     HAL2     0.900000E-01   1.00800           0
     34750 MEMB     288      POPC     H12S     HAL2     0.900000E-01   1.00800           0
     34751 MEMB     288      POPC     C213     CTL2    -0.180000       12.0110           0
     34752 MEMB     288      POPC     H13R     HAL2     0.900000E-01   1.00800           0
     34753 MEMB     288      POPC     H13S     HAL2     0.900000E-01   1.00800           0
     34754 MEMB     288      POPC     C214     CTL2    -0.180000       12.0110           0
     34755 MEMB     288      POPC     H14R     HAL2     0.900000E-01   1.00800           0
     34756 MEMB     288      POPC     H14S     HAL2     0.900000E-01   1.00800           0
     34757 MEMB     288      POPC     C215     CTL2    -0.180000       12.0110           0
     34758 MEMB     288      POPC     H15R     HAL2     0.900000E-01   1.00800           0
     34759 MEMB     288      POPC     H15S     HAL2     0.900000E-01   1.00800           0
     34760 MEMB     288      POPC     C216     CTL2    -0.180000       12.0110           0
     34761 MEMB     288      POPC     H16R     HAL2     0.900000E-01   1.00800           0
     34762 MEMB     288      POPC     H16S     HAL2     0.900000E-01   1.00800           0
     34763 MEMB     288      POPC     C217     CTL2    -0.180000       12.0110           0
     34764 MEMB     288      POPC     H17R     HAL2     0.900000E-01   1.00800           0
     34765 MEMB     288      POPC     H17S     HAL2     0.900000E-01   1.00800           0
     34766 MEMB     288      POPC     C218     CTL3    -0.270000       12.0110           0
     34767 MEMB     288      POPC     H18R     HAL3     0.900000E-01   1.00800           0
     34768 MEMB     288      POPC     H18S     HAL3     0.900000E-01   1.00800           0
     34769 MEMB     288      POPC     H18T     HAL3     0.900000E-01   1.00800           0
     34770 MEMB     288      POPC     C33      CTL2    -0.180000       12.0110           0
     34771 MEMB     288      POPC     H3X      HAL2     0.900000E-01   1.00800           0
     34772 MEMB     288      POPC     H3Y      HAL2     0.900000E-01   1.00800           0
     34773 MEMB     288      POPC     C34      CTL2    -0.180000       12.0110           0
     34774 MEMB     288      POPC     H4X      HAL2     0.900000E-01   1.00800           0
     34775 MEMB     288      POPC     H4Y      HAL2     0.900000E-01   1.00800           0
     34776 MEMB     288      POPC     C35      CTL2    -0.180000       12.0110           0
     34777 MEMB     288      POPC     H5X      HAL2     0.900000E-01   1.00800           0
     34778 MEMB     288      POPC     H5Y      HAL2     0.900000E-01   1.00800           0
     34779 MEMB     288      POPC     C36      CTL2    -0.180000       12.0110           0
     34780 MEMB     288      POPC     H6X      HAL2     0.900000E-01   1.00800           0
     34781 MEMB     288      POPC     H6Y      HAL2     0.900000E-01   1.00800           0
     34782 MEMB     288      POPC     C37      CTL2    -0.180000       12.0110           0
     34783 MEMB     288      POPC     H7X      HAL2     0.900000E-01   1.00800           0
     34784 MEMB     288      POPC     H7Y      HAL2     0.900000E-01   1.00800           0
     34785 MEMB     288      POPC     C38      CTL2    -0.180000       12.0110           0
     34786 MEMB     288      POPC     H8X      HAL2     0.900000E-01   1.00800           0
     34787 MEMB     288      POPC     H8Y      HAL2     0.900000E-01   1.00800           0
     34788 MEMB     288      POPC     C39      CTL2    -0.180000       12.0110           0
     34789 MEMB     288      POPC     H9X      HAL2     0.900000E-01   1.00800           0
     34790 MEMB     288      POPC     H9Y      HAL2     0.900000E-01   1.00800           0
     34791 MEMB     288      POPC     C310     CTL2    -0.180000       12.0110           0
     34792 MEMB     288      POPC     H10X     HAL2     0.900000E-01   1.00800           0
     34793 MEMB     288      POPC     H10Y     HAL2     0.900000E-01   1.00800           0
     34794 MEMB     288      POPC     C311     CTL2    -0.180000       12.0110           0
     34795 MEMB     288      POPC     H11X     HAL2     0.900000E-01   1.00800           0
     34796 MEMB     288      POPC     H11Y     HAL2     0.900000E-01   1.00800           0
     34797 MEMB     288      POPC     C312     CTL2    -0.180000       12.0110           0
     34798 MEMB     288      POPC     H12X     HAL2     0.900000E-01   1.00800           0
     34799 MEMB     288      POPC     H12Y     HAL2     0.900000E-01   1.00800           0
     34800 MEMB     288      POPC     C313     CTL2    -0.180000       12.0110           0
     34801 MEMB     288      POPC     H13X     HAL2     0.900000E-01   1.00800           0
     34802 MEMB     288      POPC     H13Y     HAL2     0.900000E-01   1.00800           0
     34803 MEMB     288      POPC     C314     CTL2    -0.180000       12.0110           0
     34804 MEMB     288      POPC     H14X     HAL2     0.900000E-01   1.00800           0
     34805 MEMB     288      POPC     H14Y     HAL2     0.900000E-01   1.00800           0
     34806 MEMB     288      POPC     C315     CTL2    -0.180000       12.0110           0
     34807 MEMB     288      POPC     H15X     HAL2     0.900000E-01   1.00800           0
     34808 MEMB     288      POPC     H15Y     HAL2     0.900000E-01   1.00800           0
     34809 MEMB     288      POPC     C316     CTL3    -0.270000       12.0110           0
     34810 MEMB     288      POPC     H16X     HAL3     0.900000E-01   1.00800           0
     34811 MEMB     288      POPC     H16Y     HAL3     0.900000E-01   1.00800           0
     34812 MEMB     288      POPC     H16Z     HAL3     0.900000E-01   1.00800           0
     34813 MEMB     289      POPC     N        NTL     -0.600000       14.0070           0
     34814 MEMB     289      POPC     C12      CTL2    -0.100000       12.0110           0
     34815 MEMB     289      POPC     H12A     HL       0.250000       1.00800           0
     34816 MEMB     289      POPC     H12B     HL       0.250000       1.00800           0
     34817 MEMB     289      POPC     C13      CTL5    -0.350000       12.0110           0
     34818 MEMB     289      POPC     H13A     HL       0.250000       1.00800           0
     34819 MEMB     289      POPC     H13B     HL       0.250000       1.00800           0
     34820 MEMB     289      POPC     H13C     HL       0.250000       1.00800           0
     34821 MEMB     289      POPC     C14      CTL5    -0.350000       12.0110           0
     34822 MEMB     289      POPC     H14A     HL       0.250000       1.00800           0
     34823 MEMB     289      POPC     H14B     HL       0.250000       1.00800           0
     34824 MEMB     289      POPC     H14C     HL       0.250000       1.00800           0
     34825 MEMB     289      POPC     C15      CTL5    -0.350000       12.0110           0
     34826 MEMB     289      POPC     H15A     HL       0.250000       1.00800           0
     34827 MEMB     289      POPC     H15B     HL       0.250000       1.00800           0
     34828 MEMB     289      POPC     H15C     HL       0.250000       1.00800           0
     34829 MEMB     289      POPC     C11      CTL2    -0.800000E-01   12.0110           0
     34830 MEMB     289      POPC     H11A     HAL2     0.900000E-01   1.00800           0
     34831 MEMB     289      POPC     H11B     HAL2     0.900000E-01   1.00800           0
     34832 MEMB     289      POPC     P        PL        1.50000       30.9740           0
     34833 MEMB     289      POPC     O13      O2L     -0.780000       15.9994           0
     34834 MEMB     289      POPC     O14      O2L     -0.780000       15.9994           0
     34835 MEMB     289      POPC     O12      OSLP    -0.570000       15.9994           0
     34836 MEMB     289      POPC     O11      OSLP    -0.570000       15.9994           0
     34837 MEMB     289      POPC     C1       CTL2    -0.800000E-01   12.0110           0
     34838 MEMB     289      POPC     HA       HAL2     0.900000E-01   1.00800           0
     34839 MEMB     289      POPC     HB       HAL2     0.900000E-01   1.00800           0
     34840 MEMB     289      POPC     C2       CTL1     0.170000       12.0110           0
     34841 MEMB     289      POPC     HS       HAL1     0.900000E-01   1.00800           0
     34842 MEMB     289      POPC     O21      OSL     -0.490000       15.9994           0
     34843 MEMB     289      POPC     C21      CL       0.900000       12.0110           0
     34844 MEMB     289      POPC     O22      OBL     -0.630000       15.9994           0
     34845 MEMB     289      POPC     C22      CTL2    -0.220000       12.0110           0
     34846 MEMB     289      POPC     H2R      HAL2     0.900000E-01   1.00800           0
     34847 MEMB     289      POPC     H2S      HAL2     0.900000E-01   1.00800           0
     34848 MEMB     289      POPC     C3       CTL2     0.800000E-01   12.0110           0
     34849 MEMB     289      POPC     HX       HAL2     0.900000E-01   1.00800           0
     34850 MEMB     289      POPC     HY       HAL2     0.900000E-01   1.00800           0
     34851 MEMB     289      POPC     O31      OSL     -0.490000       15.9994           0
     34852 MEMB     289      POPC     C31      CL       0.900000       12.0110           0
     34853 MEMB     289      POPC     O32      OBL     -0.630000       15.9994           0
     34854 MEMB     289      POPC     C32      CTL2    -0.220000       12.0110           0
     34855 MEMB     289      POPC     H2X      HAL2     0.900000E-01   1.00800           0
     34856 MEMB     289      POPC     H2Y      HAL2     0.900000E-01   1.00800           0
     34857 MEMB     289      POPC     C23      CTL2    -0.180000       12.0110           0
     34858 MEMB     289      POPC     H3R      HAL2     0.900000E-01   1.00800           0
     34859 MEMB     289      POPC     H3S      HAL2     0.900000E-01   1.00800           0
     34860 MEMB     289      POPC     C24      CTL2    -0.180000       12.0110           0
     34861 MEMB     289      POPC     H4R      HAL2     0.900000E-01   1.00800           0
     34862 MEMB     289      POPC     H4S      HAL2     0.900000E-01   1.00800           0
     34863 MEMB     289      POPC     C25      CTL2    -0.180000       12.0110           0
     34864 MEMB     289      POPC     H5R      HAL2     0.900000E-01   1.00800           0
     34865 MEMB     289      POPC     H5S      HAL2     0.900000E-01   1.00800           0
     34866 MEMB     289      POPC     C26      CTL2    -0.180000       12.0110           0
     34867 MEMB     289      POPC     H6R      HAL2     0.900000E-01   1.00800           0
     34868 MEMB     289      POPC     H6S      HAL2     0.900000E-01   1.00800           0
     34869 MEMB     289      POPC     C27      CTL2    -0.180000       12.0110           0
     34870 MEMB     289      POPC     H7R      HAL2     0.900000E-01   1.00800           0
     34871 MEMB     289      POPC     H7S      HAL2     0.900000E-01   1.00800           0
     34872 MEMB     289      POPC     C28      CTL2    -0.180000       12.0110           0
     34873 MEMB     289      POPC     H8R      HAL2     0.900000E-01   1.00800           0
     34874 MEMB     289      POPC     H8S      HAL2     0.900000E-01   1.00800           0
     34875 MEMB     289      POPC     C29      CEL1    -0.150000       12.0110           0
     34876 MEMB     289      POPC     H91      HEL1     0.150000       1.00800           0
     34877 MEMB     289      POPC     C210     CEL1    -0.150000       12.0110           0
     34878 MEMB     289      POPC     H101     HEL1     0.150000       1.00800           0
     34879 MEMB     289      POPC     C211     CTL2    -0.180000       12.0110           0
     34880 MEMB     289      POPC     H11R     HAL2     0.900000E-01   1.00800           0
     34881 MEMB     289      POPC     H11S     HAL2     0.900000E-01   1.00800           0
     34882 MEMB     289      POPC     C212     CTL2    -0.180000       12.0110           0
     34883 MEMB     289      POPC     H12R     HAL2     0.900000E-01   1.00800           0
     34884 MEMB     289      POPC     H12S     HAL2     0.900000E-01   1.00800           0
     34885 MEMB     289      POPC     C213     CTL2    -0.180000       12.0110           0
     34886 MEMB     289      POPC     H13R     HAL2     0.900000E-01   1.00800           0
     34887 MEMB     289      POPC     H13S     HAL2     0.900000E-01   1.00800           0
     34888 MEMB     289      POPC     C214     CTL2    -0.180000       12.0110           0
     34889 MEMB     289      POPC     H14R     HAL2     0.900000E-01   1.00800           0
     34890 MEMB     289      POPC     H14S     HAL2     0.900000E-01   1.00800           0
     34891 MEMB     289      POPC     C215     CTL2    -0.180000       12.0110           0
     34892 MEMB     289      POPC     H15R     HAL2     0.900000E-01   1.00800           0
     34893 MEMB     289      POPC     H15S     HAL2     0.900000E-01   1.00800           0
     34894 MEMB     289      POPC     C216     CTL2    -0.180000       12.0110           0
     34895 MEMB     289      POPC     H16R     HAL2     0.900000E-01   1.00800           0
     34896 MEMB     289      POPC     H16S     HAL2     0.900000E-01   1.00800           0
     34897 MEMB     289      POPC     C217     CTL2    -0.180000       12.0110           0
     34898 MEMB     289      POPC     H17R     HAL2     0.900000E-01   1.00800           0
     34899 MEMB     289      POPC     H17S     HAL2     0.900000E-01   1.00800           0
     34900 MEMB     289      POPC     C218     CTL3    -0.270000       12.0110           0
     34901 MEMB     289      POPC     H18R     HAL3     0.900000E-01   1.00800           0
     34902 MEMB     289      POPC     H18S     HAL3     0.900000E-01   1.00800           0
     34903 MEMB     289      POPC     H18T     HAL3     0.900000E-01   1.00800           0
     34904 MEMB     289      POPC     C33      CTL2    -0.180000       12.0110           0
     34905 MEMB     289      POPC     H3X      HAL2     0.900000E-01   1.00800           0
     34906 MEMB     289      POPC     H3Y      HAL2     0.900000E-01   1.00800           0
     34907 MEMB     289      POPC     C34      CTL2    -0.180000       12.0110           0
     34908 MEMB     289      POPC     H4X      HAL2     0.900000E-01   1.00800           0
     34909 MEMB     289      POPC     H4Y      HAL2     0.900000E-01   1.00800           0
     34910 MEMB     289      POPC     C35      CTL2    -0.180000       12.0110           0
     34911 MEMB     289      POPC     H5X      HAL2     0.900000E-01   1.00800           0
     34912 MEMB     289      POPC     H5Y      HAL2     0.900000E-01   1.00800           0
     34913 MEMB     289      POPC     C36      CTL2    -0.180000       12.0110           0
     34914 MEMB     289      POPC     H6X      HAL2     0.900000E-01   1.00800           0
     34915 MEMB     289      POPC     H6Y      HAL2     0.900000E-01   1.00800           0
     34916 MEMB     289      POPC     C37      CTL2    -0.180000       12.0110           0
     34917 MEMB     289      POPC     H7X      HAL2     0.900000E-01   1.00800           0
     34918 MEMB     289      POPC     H7Y      HAL2     0.900000E-01   1.00800           0
     34919 MEMB     289      POPC     C38      CTL2    -0.180000       12.0110           0
     34920 MEMB     289      POPC     H8X      HAL2     0.900000E-01   1.00800           0
     34921 MEMB     289      POPC     H8Y      HAL2     0.900000E-01   1.00800           0
     34922 MEMB     289      POPC     C39      CTL2    -0.180000       12.0110           0
     34923 MEMB     289      POPC     H9X      HAL2     0.900000E-01   1.00800           0
     34924 MEMB     289      POPC     H9Y      HAL2     0.900000E-01   1.00800           0
     34925 MEMB     289      POPC     C310     CTL2    -0.180000       12.0110           0
     34926 MEMB     289      POPC     H10X     HAL2     0.900000E-01   1.00800           0
     34927 MEMB     289      POPC     H10Y     HAL2     0.900000E-01   1.00800           0
     34928 MEMB     289      POPC     C311     CTL2    -0.180000       12.0110           0
     34929 MEMB     289      POPC     H11X     HAL2     0.900000E-01   1.00800           0
     34930 MEMB     289      POPC     H11Y     HAL2     0.900000E-01   1.00800           0
     34931 MEMB     289      POPC     C312     CTL2    -0.180000       12.0110           0
     34932 MEMB     289      POPC     H12X     HAL2     0.900000E-01   1.00800           0
     34933 MEMB     289      POPC     H12Y     HAL2     0.900000E-01   1.00800           0
     34934 MEMB     289      POPC     C313     CTL2    -0.180000       12.0110           0
     34935 MEMB     289      POPC     H13X     HAL2     0.900000E-01   1.00800           0
     34936 MEMB     289      POPC     H13Y     HAL2     0.900000E-01   1.00800           0
     34937 MEMB     289      POPC     C314     CTL2    -0.180000       12.0110           0
     34938 MEMB     289      POPC     H14X     HAL2     0.900000E-01   1.00800           0
     34939 MEMB     289      POPC     H14Y     HAL2     0.900000E-01   1.00800           0
     34940 MEMB     289      POPC     C315     CTL2    -0.180000       12.0110           0
     34941 MEMB     289      POPC     H15X     HAL2     0.900000E-01   1.00800           0
     34942 MEMB     289      POPC     H15Y     HAL2     0.900000E-01   1.00800           0
     34943 MEMB     289      POPC     C316     CTL3    -0.270000       12.0110           0
     34944 MEMB     289      POPC     H16X     HAL3     0.900000E-01   1.00800           0
     34945 MEMB     289      POPC     H16Y     HAL3     0.900000E-01   1.00800           0
     34946 MEMB     289      POPC     H16Z     HAL3     0.900000E-01   1.00800           0
     34947 MEMB     290      POPC     N        NTL     -0.600000       14.0070           0
     34948 MEMB     290      POPC     C12      CTL2    -0.100000       12.0110           0
     34949 MEMB     290      POPC     H12A     HL       0.250000       1.00800           0
     34950 MEMB     290      POPC     H12B     HL       0.250000       1.00800           0
     34951 MEMB     290      POPC     C13      CTL5    -0.350000       12.0110           0
     34952 MEMB     290      POPC     H13A     HL       0.250000       1.00800           0
     34953 MEMB     290      POPC     H13B     HL       0.250000       1.00800           0
     34954 MEMB     290      POPC     H13C     HL       0.250000       1.00800           0
     34955 MEMB     290      POPC     C14      CTL5    -0.350000       12.0110           0
     34956 MEMB     290      POPC     H14A     HL       0.250000       1.00800           0
     34957 MEMB     290      POPC     H14B     HL       0.250000       1.00800           0
     34958 MEMB     290      POPC     H14C     HL       0.250000       1.00800           0
     34959 MEMB     290      POPC     C15      CTL5    -0.350000       12.0110           0
     34960 MEMB     290      POPC     H15A     HL       0.250000       1.00800           0
     34961 MEMB     290      POPC     H15B     HL       0.250000       1.00800           0
     34962 MEMB     290      POPC     H15C     HL       0.250000       1.00800           0
     34963 MEMB     290      POPC     C11      CTL2    -0.800000E-01   12.0110           0
     34964 MEMB     290      POPC     H11A     HAL2     0.900000E-01   1.00800           0
     34965 MEMB     290      POPC     H11B     HAL2     0.900000E-01   1.00800           0
     34966 MEMB     290      POPC     P        PL        1.50000       30.9740           0
     34967 MEMB     290      POPC     O13      O2L     -0.780000       15.9994           0
     34968 MEMB     290      POPC     O14      O2L     -0.780000       15.9994           0
     34969 MEMB     290      POPC     O12      OSLP    -0.570000       15.9994           0
     34970 MEMB     290      POPC     O11      OSLP    -0.570000       15.9994           0
     34971 MEMB     290      POPC     C1       CTL2    -0.800000E-01   12.0110           0
     34972 MEMB     290      POPC     HA       HAL2     0.900000E-01   1.00800           0
     34973 MEMB     290      POPC     HB       HAL2     0.900000E-01   1.00800           0
     34974 MEMB     290      POPC     C2       CTL1     0.170000       12.0110           0
     34975 MEMB     290      POPC     HS       HAL1     0.900000E-01   1.00800           0
     34976 MEMB     290      POPC     O21      OSL     -0.490000       15.9994           0
     34977 MEMB     290      POPC     C21      CL       0.900000       12.0110           0
     34978 MEMB     290      POPC     O22      OBL     -0.630000       15.9994           0
     34979 MEMB     290      POPC     C22      CTL2    -0.220000       12.0110           0
     34980 MEMB     290      POPC     H2R      HAL2     0.900000E-01   1.00800           0
     34981 MEMB     290      POPC     H2S      HAL2     0.900000E-01   1.00800           0
     34982 MEMB     290      POPC     C3       CTL2     0.800000E-01   12.0110           0
     34983 MEMB     290      POPC     HX       HAL2     0.900000E-01   1.00800           0
     34984 MEMB     290      POPC     HY       HAL2     0.900000E-01   1.00800           0
     34985 MEMB     290      POPC     O31      OSL     -0.490000       15.9994           0
     34986 MEMB     290      POPC     C31      CL       0.900000       12.0110           0
     34987 MEMB     290      POPC     O32      OBL     -0.630000       15.9994           0
     34988 MEMB     290      POPC     C32      CTL2    -0.220000       12.0110           0
     34989 MEMB     290      POPC     H2X      HAL2     0.900000E-01   1.00800           0
     34990 MEMB     290      POPC     H2Y      HAL2     0.900000E-01   1.00800           0
     34991 MEMB     290      POPC     C23      CTL2    -0.180000       12.0110           0
     34992 MEMB     290      POPC     H3R      HAL2     0.900000E-01   1.00800           0
     34993 MEMB     290      POPC     H3S      HAL2     0.900000E-01   1.00800           0
     34994 MEMB     290      POPC     C24      CTL2    -0.180000       12.0110           0
     34995 MEMB     290      POPC     H4R      HAL2     0.900000E-01   1.00800           0
     34996 MEMB     290      POPC     H4S      HAL2     0.900000E-01   1.00800           0
     34997 MEMB     290      POPC     C25      CTL2    -0.180000       12.0110           0
     34998 MEMB     290      POPC     H5R      HAL2     0.900000E-01   1.00800           0
     34999 MEMB     290      POPC     H5S      HAL2     0.900000E-01   1.00800           0
     35000 MEMB     290      POPC     C26      CTL2    -0.180000       12.0110           0
     35001 MEMB     290      POPC     H6R      HAL2     0.900000E-01   1.00800           0
     35002 MEMB     290      POPC     H6S      HAL2     0.900000E-01   1.00800           0
     35003 MEMB     290      POPC     C27      CTL2    -0.180000       12.0110           0
     35004 MEMB     290      POPC     H7R      HAL2     0.900000E-01   1.00800           0
     35005 MEMB     290      POPC     H7S      HAL2     0.900000E-01   1.00800           0
     35006 MEMB     290      POPC     C28      CTL2    -0.180000       12.0110           0
     35007 MEMB     290      POPC     H8R      HAL2     0.900000E-01   1.00800           0
     35008 MEMB     290      POPC     H8S      HAL2     0.900000E-01   1.00800           0
     35009 MEMB     290      POPC     C29      CEL1    -0.150000       12.0110           0
     35010 MEMB     290      POPC     H91      HEL1     0.150000       1.00800           0
     35011 MEMB     290      POPC     C210     CEL1    -0.150000       12.0110           0
     35012 MEMB     290      POPC     H101     HEL1     0.150000       1.00800           0
     35013 MEMB     290      POPC     C211     CTL2    -0.180000       12.0110           0
     35014 MEMB     290      POPC     H11R     HAL2     0.900000E-01   1.00800           0
     35015 MEMB     290      POPC     H11S     HAL2     0.900000E-01   1.00800           0
     35016 MEMB     290      POPC     C212     CTL2    -0.180000       12.0110           0
     35017 MEMB     290      POPC     H12R     HAL2     0.900000E-01   1.00800           0
     35018 MEMB     290      POPC     H12S     HAL2     0.900000E-01   1.00800           0
     35019 MEMB     290      POPC     C213     CTL2    -0.180000       12.0110           0
     35020 MEMB     290      POPC     H13R     HAL2     0.900000E-01   1.00800           0
     35021 MEMB     290      POPC     H13S     HAL2     0.900000E-01   1.00800           0
     35022 MEMB     290      POPC     C214     CTL2    -0.180000       12.0110           0
     35023 MEMB     290      POPC     H14R     HAL2     0.900000E-01   1.00800           0
     35024 MEMB     290      POPC     H14S     HAL2     0.900000E-01   1.00800           0
     35025 MEMB     290      POPC     C215     CTL2    -0.180000       12.0110           0
     35026 MEMB     290      POPC     H15R     HAL2     0.900000E-01   1.00800           0
     35027 MEMB     290      POPC     H15S     HAL2     0.900000E-01   1.00800           0
     35028 MEMB     290      POPC     C216     CTL2    -0.180000       12.0110           0
     35029 MEMB     290      POPC     H16R     HAL2     0.900000E-01   1.00800           0
     35030 MEMB     290      POPC     H16S     HAL2     0.900000E-01   1.00800           0
     35031 MEMB     290      POPC     C217     CTL2    -0.180000       12.0110           0
     35032 MEMB     290      POPC     H17R     HAL2     0.900000E-01   1.00800           0
     35033 MEMB     290      POPC     H17S     HAL2     0.900000E-01   1.00800           0
     35034 MEMB     290      POPC     C218     CTL3    -0.270000       12.0110           0
     35035 MEMB     290      POPC     H18R     HAL3     0.900000E-01   1.00800           0
     35036 MEMB     290      POPC     H18S     HAL3     0.900000E-01   1.00800           0
     35037 MEMB     290      POPC     H18T     HAL3     0.900000E-01   1.00800           0
     35038 MEMB     290      POPC     C33      CTL2    -0.180000       12.0110           0
     35039 MEMB     290      POPC     H3X      HAL2     0.900000E-01   1.00800           0
     35040 MEMB     290      POPC     H3Y      HAL2     0.900000E-01   1.00800           0
     35041 MEMB     290      POPC     C34      CTL2    -0.180000       12.0110           0
     35042 MEMB     290      POPC     H4X      HAL2     0.900000E-01   1.00800           0
     35043 MEMB     290      POPC     H4Y      HAL2     0.900000E-01   1.00800           0
     35044 MEMB     290      POPC     C35      CTL2    -0.180000       12.0110           0
     35045 MEMB     290      POPC     H5X      HAL2     0.900000E-01   1.00800           0
     35046 MEMB     290      POPC     H5Y      HAL2     0.900000E-01   1.00800           0
     35047 MEMB     290      POPC     C36      CTL2    -0.180000       12.0110           0
     35048 MEMB     290      POPC     H6X      HAL2     0.900000E-01   1.00800           0
     35049 MEMB     290      POPC     H6Y      HAL2     0.900000E-01   1.00800           0
     35050 MEMB     290      POPC     C37      CTL2    -0.180000       12.0110           0
     35051 MEMB     290      POPC     H7X      HAL2     0.900000E-01   1.00800           0
     35052 MEMB     290      POPC     H7Y      HAL2     0.900000E-01   1.00800           0
     35053 MEMB     290      POPC     C38      CTL2    -0.180000       12.0110           0
     35054 MEMB     290      POPC     H8X      HAL2     0.900000E-01   1.00800           0
     35055 MEMB     290      POPC     H8Y      HAL2     0.900000E-01   1.00800           0
     35056 MEMB     290      POPC     C39      CTL2    -0.180000       12.0110           0
     35057 MEMB     290      POPC     H9X      HAL2     0.900000E-01   1.00800           0
     35058 MEMB     290      POPC     H9Y      HAL2     0.900000E-01   1.00800           0
     35059 MEMB     290      POPC     C310     CTL2    -0.180000       12.0110           0
     35060 MEMB     290      POPC     H10X     HAL2     0.900000E-01   1.00800           0
     35061 MEMB     290      POPC     H10Y     HAL2     0.900000E-01   1.00800           0
     35062 MEMB     290      POPC     C311     CTL2    -0.180000       12.0110           0
     35063 MEMB     290      POPC     H11X     HAL2     0.900000E-01   1.00800           0
     35064 MEMB     290      POPC     H11Y     HAL2     0.900000E-01   1.00800           0
     35065 MEMB     290      POPC     C312     CTL2    -0.180000       12.0110           0
     35066 MEMB     290      POPC     H12X     HAL2     0.900000E-01   1.00800           0
     35067 MEMB     290      POPC     H12Y     HAL2     0.900000E-01   1.00800           0
     35068 MEMB     290      POPC     C313     CTL2    -0.180000       12.0110           0
     35069 MEMB     290      POPC     H13X     HAL2     0.900000E-01   1.00800           0
     35070 MEMB     290      POPC     H13Y     HAL2     0.900000E-01   1.00800           0
     35071 MEMB     290      POPC     C314     CTL2    -0.180000       12.0110           0
     35072 MEMB     290      POPC     H14X     HAL2     0.900000E-01   1.00800           0
     35073 MEMB     290      POPC     H14Y     HAL2     0.900000E-01   1.00800           0
     35074 MEMB     290      POPC     C315     CTL2    -0.180000       12.0110           0
     35075 MEMB     290      POPC     H15X     HAL2     0.900000E-01   1.00800           0
     35076 MEMB     290      POPC     H15Y     HAL2     0.900000E-01   1.00800           0
     35077 MEMB     290      POPC     C316     CTL3    -0.270000       12.0110           0
     35078 MEMB     290      POPC     H16X     HAL3     0.900000E-01   1.00800           0
     35079 MEMB     290      POPC     H16Y     HAL3     0.900000E-01   1.00800           0
     35080 MEMB     290      POPC     H16Z     HAL3     0.900000E-01   1.00800           0
     35081 MEMB     291      POPC     N        NTL     -0.600000       14.0070           0
     35082 MEMB     291      POPC     C12      CTL2    -0.100000       12.0110           0
     35083 MEMB     291      POPC     H12A     HL       0.250000       1.00800           0
     35084 MEMB     291      POPC     H12B     HL       0.250000       1.00800           0
     35085 MEMB     291      POPC     C13      CTL5    -0.350000       12.0110           0
     35086 MEMB     291      POPC     H13A     HL       0.250000       1.00800           0
     35087 MEMB     291      POPC     H13B     HL       0.250000       1.00800           0
     35088 MEMB     291      POPC     H13C     HL       0.250000       1.00800           0
     35089 MEMB     291      POPC     C14      CTL5    -0.350000       12.0110           0
     35090 MEMB     291      POPC     H14A     HL       0.250000       1.00800           0
     35091 MEMB     291      POPC     H14B     HL       0.250000       1.00800           0
     35092 MEMB     291      POPC     H14C     HL       0.250000       1.00800           0
     35093 MEMB     291      POPC     C15      CTL5    -0.350000       12.0110           0
     35094 MEMB     291      POPC     H15A     HL       0.250000       1.00800           0
     35095 MEMB     291      POPC     H15B     HL       0.250000       1.00800           0
     35096 MEMB     291      POPC     H15C     HL       0.250000       1.00800           0
     35097 MEMB     291      POPC     C11      CTL2    -0.800000E-01   12.0110           0
     35098 MEMB     291      POPC     H11A     HAL2     0.900000E-01   1.00800           0
     35099 MEMB     291      POPC     H11B     HAL2     0.900000E-01   1.00800           0
     35100 MEMB     291      POPC     P        PL        1.50000       30.9740           0
     35101 MEMB     291      POPC     O13      O2L     -0.780000       15.9994           0
     35102 MEMB     291      POPC     O14      O2L     -0.780000       15.9994           0
     35103 MEMB     291      POPC     O12      OSLP    -0.570000       15.9994           0
     35104 MEMB     291      POPC     O11      OSLP    -0.570000       15.9994           0
     35105 MEMB     291      POPC     C1       CTL2    -0.800000E-01   12.0110           0
     35106 MEMB     291      POPC     HA       HAL2     0.900000E-01   1.00800           0
     35107 MEMB     291      POPC     HB       HAL2     0.900000E-01   1.00800           0
     35108 MEMB     291      POPC     C2       CTL1     0.170000       12.0110           0
     35109 MEMB     291      POPC     HS       HAL1     0.900000E-01   1.00800           0
     35110 MEMB     291      POPC     O21      OSL     -0.490000       15.9994           0
     35111 MEMB     291      POPC     C21      CL       0.900000       12.0110           0
     35112 MEMB     291      POPC     O22      OBL     -0.630000       15.9994           0
     35113 MEMB     291      POPC     C22      CTL2    -0.220000       12.0110           0
     35114 MEMB     291      POPC     H2R      HAL2     0.900000E-01   1.00800           0
     35115 MEMB     291      POPC     H2S      HAL2     0.900000E-01   1.00800           0
     35116 MEMB     291      POPC     C3       CTL2     0.800000E-01   12.0110           0
     35117 MEMB     291      POPC     HX       HAL2     0.900000E-01   1.00800           0
     35118 MEMB     291      POPC     HY       HAL2     0.900000E-01   1.00800           0
     35119 MEMB     291      POPC     O31      OSL     -0.490000       15.9994           0
     35120 MEMB     291      POPC     C31      CL       0.900000       12.0110           0
     35121 MEMB     291      POPC     O32      OBL     -0.630000       15.9994           0
     35122 MEMB     291      POPC     C32      CTL2    -0.220000       12.0110           0
     35123 MEMB     291      POPC     H2X      HAL2     0.900000E-01   1.00800           0
     35124 MEMB     291      POPC     H2Y      HAL2     0.900000E-01   1.00800           0
     35125 MEMB     291      POPC     C23      CTL2    -0.180000       12.0110           0
     35126 MEMB     291      POPC     H3R      HAL2     0.900000E-01   1.00800           0
     35127 MEMB     291      POPC     H3S      HAL2     0.900000E-01   1.00800           0
     35128 MEMB     291      POPC     C24      CTL2    -0.180000       12.0110           0
     35129 MEMB     291      POPC     H4R      HAL2     0.900000E-01   1.00800           0
     35130 MEMB     291      POPC     H4S      HAL2     0.900000E-01   1.00800           0
     35131 MEMB     291      POPC     C25      CTL2    -0.180000       12.0110           0
     35132 MEMB     291      POPC     H5R      HAL2     0.900000E-01   1.00800           0
     35133 MEMB     291      POPC     H5S      HAL2     0.900000E-01   1.00800           0
     35134 MEMB     291      POPC     C26      CTL2    -0.180000       12.0110           0
     35135 MEMB     291      POPC     H6R      HAL2     0.900000E-01   1.00800           0
     35136 MEMB     291      POPC     H6S      HAL2     0.900000E-01   1.00800           0
     35137 MEMB     291      POPC     C27      CTL2    -0.180000       12.0110           0
     35138 MEMB     291      POPC     H7R      HAL2     0.900000E-01   1.00800           0
     35139 MEMB     291      POPC     H7S      HAL2     0.900000E-01   1.00800           0
     35140 MEMB     291      POPC     C28      CTL2    -0.180000       12.0110           0
     35141 MEMB     291      POPC     H8R      HAL2     0.900000E-01   1.00800           0
     35142 MEMB     291      POPC     H8S      HAL2     0.900000E-01   1.00800           0
     35143 MEMB     291      POPC     C29      CEL1    -0.150000       12.0110           0
     35144 MEMB     291      POPC     H91      HEL1     0.150000       1.00800           0
     35145 MEMB     291      POPC     C210     CEL1    -0.150000       12.0110           0
     35146 MEMB     291      POPC     H101     HEL1     0.150000       1.00800           0
     35147 MEMB     291      POPC     C211     CTL2    -0.180000       12.0110           0
     35148 MEMB     291      POPC     H11R     HAL2     0.900000E-01   1.00800           0
     35149 MEMB     291      POPC     H11S     HAL2     0.900000E-01   1.00800           0
     35150 MEMB     291      POPC     C212     CTL2    -0.180000       12.0110           0
     35151 MEMB     291      POPC     H12R     HAL2     0.900000E-01   1.00800           0
     35152 MEMB     291      POPC     H12S     HAL2     0.900000E-01   1.00800           0
     35153 MEMB     291      POPC     C213     CTL2    -0.180000       12.0110           0
     35154 MEMB     291      POPC     H13R     HAL2     0.900000E-01   1.00800           0
     35155 MEMB     291      POPC     H13S     HAL2     0.900000E-01   1.00800           0
     35156 MEMB     291      POPC     C214     CTL2    -0.180000       12.0110           0
     35157 MEMB     291      POPC     H14R     HAL2     0.900000E-01   1.00800           0
     35158 MEMB     291      POPC     H14S     HAL2     0.900000E-01   1.00800           0
     35159 MEMB     291      POPC     C215     CTL2    -0.180000       12.0110           0
     35160 MEMB     291      POPC     H15R     HAL2     0.900000E-01   1.00800           0
     35161 MEMB     291      POPC     H15S     HAL2     0.900000E-01   1.00800           0
     35162 MEMB     291      POPC     C216     CTL2    -0.180000       12.0110           0
     35163 MEMB     291      POPC     H16R     HAL2     0.900000E-01   1.00800           0
     35164 MEMB     291      POPC     H16S     HAL2     0.900000E-01   1.00800           0
     35165 MEMB     291      POPC     C217     CTL2    -0.180000       12.0110           0
     35166 MEMB     291      POPC     H17R     HAL2     0.900000E-01   1.00800           0
     35167 MEMB     291      POPC     H17S     HAL2     0.900000E-01   1.00800           0
     35168 MEMB     291      POPC     C218     CTL3    -0.270000       12.0110           0
     35169 MEMB     291      POPC     H18R     HAL3     0.900000E-01   1.00800           0
     35170 MEMB     291      POPC     H18S     HAL3     0.900000E-01   1.00800           0
     35171 MEMB     291      POPC     H18T     HAL3     0.900000E-01   1.00800           0
     35172 MEMB     291      POPC     C33      CTL2    -0.180000       12.0110           0
     35173 MEMB     291      POPC     H3X      HAL2     0.900000E-01   1.00800           0
     35174 MEMB     291      POPC     H3Y      HAL2     0.900000E-01   1.00800           0
     35175 MEMB     291      POPC     C34      CTL2    -0.180000       12.0110           0
     35176 MEMB     291      POPC     H4X      HAL2     0.900000E-01   1.00800           0
     35177 MEMB     291      POPC     H4Y      HAL2     0.900000E-01   1.00800           0
     35178 MEMB     291      POPC     C35      CTL2    -0.180000       12.0110           0
     35179 MEMB     291      POPC     H5X      HAL2     0.900000E-01   1.00800           0
     35180 MEMB     291      POPC     H5Y      HAL2     0.900000E-01   1.00800           0
     35181 MEMB     291      POPC     C36      CTL2    -0.180000       12.0110           0
     35182 MEMB     291      POPC     H6X      HAL2     0.900000E-01   1.00800           0
     35183 MEMB     291      POPC     H6Y      HAL2     0.900000E-01   1.00800           0
     35184 MEMB     291      POPC     C37      CTL2    -0.180000       12.0110           0
     35185 MEMB     291      POPC     H7X      HAL2     0.900000E-01   1.00800           0
     35186 MEMB     291      POPC     H7Y      HAL2     0.900000E-01   1.00800           0
     35187 MEMB     291      POPC     C38      CTL2    -0.180000       12.0110           0
     35188 MEMB     291      POPC     H8X      HAL2     0.900000E-01   1.00800           0
     35189 MEMB     291      POPC     H8Y      HAL2     0.900000E-01   1.00800           0
     35190 MEMB     291      POPC     C39      CTL2    -0.180000       12.0110           0
     35191 MEMB     291      POPC     H9X      HAL2     0.900000E-01   1.00800           0
     35192 MEMB     291      POPC     H9Y      HAL2     0.900000E-01   1.00800           0
     35193 MEMB     291      POPC     C310     CTL2    -0.180000       12.0110           0
     35194 MEMB     291      POPC     H10X     HAL2     0.900000E-01   1.00800           0
     35195 MEMB     291      POPC     H10Y     HAL2     0.900000E-01   1.00800           0
     35196 MEMB     291      POPC     C311     CTL2    -0.180000       12.0110           0
     35197 MEMB     291      POPC     H11X     HAL2     0.900000E-01   1.00800           0
     35198 MEMB     291      POPC     H11Y     HAL2     0.900000E-01   1.00800           0
     35199 MEMB     291      POPC     C312     CTL2    -0.180000       12.0110           0
     35200 MEMB     291      POPC     H12X     HAL2     0.900000E-01   1.00800           0
     35201 MEMB     291      POPC     H12Y     HAL2     0.900000E-01   1.00800           0
     35202 MEMB     291      POPC     C313     CTL2    -0.180000       12.0110           0
     35203 MEMB     291      POPC     H13X     HAL2     0.900000E-01   1.00800           0
     35204 MEMB     291      POPC     H13Y     HAL2     0.900000E-01   1.00800           0
     35205 MEMB     291      POPC     C314     CTL2    -0.180000       12.0110           0
     35206 MEMB     291      POPC     H14X     HAL2     0.900000E-01   1.00800           0
     35207 MEMB     291      POPC     H14Y     HAL2     0.900000E-01   1.00800           0
     35208 MEMB     291      POPC     C315     CTL2    -0.180000       12.0110           0
     35209 MEMB     291      POPC     H15X     HAL2     0.900000E-01   1.00800           0
     35210 MEMB     291      POPC     H15Y     HAL2     0.900000E-01   1.00800           0
     35211 MEMB     291      POPC     C316     CTL3    -0.270000       12.0110           0
     35212 MEMB     291      POPC     H16X     HAL3     0.900000E-01   1.00800           0
     35213 MEMB     291      POPC     H16Y     HAL3     0.900000E-01   1.00800           0
     35214 MEMB     291      POPC     H16Z     HAL3     0.900000E-01   1.00800           0
     35215 MEMB     292      POPC     N        NTL     -0.600000       14.0070           0
     35216 MEMB     292      POPC     C12      CTL2    -0.100000       12.0110           0
     35217 MEMB     292      POPC     H12A     HL       0.250000       1.00800           0
     35218 MEMB     292      POPC     H12B     HL       0.250000       1.00800           0
     35219 MEMB     292      POPC     C13      CTL5    -0.350000       12.0110           0
     35220 MEMB     292      POPC     H13A     HL       0.250000       1.00800           0
     35221 MEMB     292      POPC     H13B     HL       0.250000       1.00800           0
     35222 MEMB     292      POPC     H13C     HL       0.250000       1.00800           0
     35223 MEMB     292      POPC     C14      CTL5    -0.350000       12.0110           0
     35224 MEMB     292      POPC     H14A     HL       0.250000       1.00800           0
     35225 MEMB     292      POPC     H14B     HL       0.250000       1.00800           0
     35226 MEMB     292      POPC     H14C     HL       0.250000       1.00800           0
     35227 MEMB     292      POPC     C15      CTL5    -0.350000       12.0110           0
     35228 MEMB     292      POPC     H15A     HL       0.250000       1.00800           0
     35229 MEMB     292      POPC     H15B     HL       0.250000       1.00800           0
     35230 MEMB     292      POPC     H15C     HL       0.250000       1.00800           0
     35231 MEMB     292      POPC     C11      CTL2    -0.800000E-01   12.0110           0
     35232 MEMB     292      POPC     H11A     HAL2     0.900000E-01   1.00800           0
     35233 MEMB     292      POPC     H11B     HAL2     0.900000E-01   1.00800           0
     35234 MEMB     292      POPC     P        PL        1.50000       30.9740           0
     35235 MEMB     292      POPC     O13      O2L     -0.780000       15.9994           0
     35236 MEMB     292      POPC     O14      O2L     -0.780000       15.9994           0
     35237 MEMB     292      POPC     O12      OSLP    -0.570000       15.9994           0
     35238 MEMB     292      POPC     O11      OSLP    -0.570000       15.9994           0
     35239 MEMB     292      POPC     C1       CTL2    -0.800000E-01   12.0110           0
     35240 MEMB     292      POPC     HA       HAL2     0.900000E-01   1.00800           0
     35241 MEMB     292      POPC     HB       HAL2     0.900000E-01   1.00800           0
     35242 MEMB     292      POPC     C2       CTL1     0.170000       12.0110           0
     35243 MEMB     292      POPC     HS       HAL1     0.900000E-01   1.00800           0
     35244 MEMB     292      POPC     O21      OSL     -0.490000       15.9994           0
     35245 MEMB     292      POPC     C21      CL       0.900000       12.0110           0
     35246 MEMB     292      POPC     O22      OBL     -0.630000       15.9994           0
     35247 MEMB     292      POPC     C22      CTL2    -0.220000       12.0110           0
     35248 MEMB     292      POPC     H2R      HAL2     0.900000E-01   1.00800           0
     35249 MEMB     292      POPC     H2S      HAL2     0.900000E-01   1.00800           0
     35250 MEMB     292      POPC     C3       CTL2     0.800000E-01   12.0110           0
     35251 MEMB     292      POPC     HX       HAL2     0.900000E-01   1.00800           0
     35252 MEMB     292      POPC     HY       HAL2     0.900000E-01   1.00800           0
     35253 MEMB     292      POPC     O31      OSL     -0.490000       15.9994           0
     35254 MEMB     292      POPC     C31      CL       0.900000       12.0110           0
     35255 MEMB     292      POPC     O32      OBL     -0.630000       15.9994           0
     35256 MEMB     292      POPC     C32      CTL2    -0.220000       12.0110           0
     35257 MEMB     292      POPC     H2X      HAL2     0.900000E-01   1.00800           0
     35258 MEMB     292      POPC     H2Y      HAL2     0.900000E-01   1.00800           0
     35259 MEMB     292      POPC     C23      CTL2    -0.180000       12.0110           0
     35260 MEMB     292      POPC     H3R      HAL2     0.900000E-01   1.00800           0
     35261 MEMB     292      POPC     H3S      HAL2     0.900000E-01   1.00800           0
     35262 MEMB     292      POPC     C24      CTL2    -0.180000       12.0110           0
     35263 MEMB     292      POPC     H4R      HAL2     0.900000E-01   1.00800           0
     35264 MEMB     292      POPC     H4S      HAL2     0.900000E-01   1.00800           0
     35265 MEMB     292      POPC     C25      CTL2    -0.180000       12.0110           0
     35266 MEMB     292      POPC     H5R      HAL2     0.900000E-01   1.00800           0
     35267 MEMB     292      POPC     H5S      HAL2     0.900000E-01   1.00800           0
     35268 MEMB     292      POPC     C26      CTL2    -0.180000       12.0110           0
     35269 MEMB     292      POPC     H6R      HAL2     0.900000E-01   1.00800           0
     35270 MEMB     292      POPC     H6S      HAL2     0.900000E-01   1.00800           0
     35271 MEMB     292      POPC     C27      CTL2    -0.180000       12.0110           0
     35272 MEMB     292      POPC     H7R      HAL2     0.900000E-01   1.00800           0
     35273 MEMB     292      POPC     H7S      HAL2     0.900000E-01   1.00800           0
     35274 MEMB     292      POPC     C28      CTL2    -0.180000       12.0110           0
     35275 MEMB     292      POPC     H8R      HAL2     0.900000E-01   1.00800           0
     35276 MEMB     292      POPC     H8S      HAL2     0.900000E-01   1.00800           0
     35277 MEMB     292      POPC     C29      CEL1    -0.150000       12.0110           0
     35278 MEMB     292      POPC     H91      HEL1     0.150000       1.00800           0
     35279 MEMB     292      POPC     C210     CEL1    -0.150000       12.0110           0
     35280 MEMB     292      POPC     H101     HEL1     0.150000       1.00800           0
     35281 MEMB     292      POPC     C211     CTL2    -0.180000       12.0110           0
     35282 MEMB     292      POPC     H11R     HAL2     0.900000E-01   1.00800           0
     35283 MEMB     292      POPC     H11S     HAL2     0.900000E-01   1.00800           0
     35284 MEMB     292      POPC     C212     CTL2    -0.180000       12.0110           0
     35285 MEMB     292      POPC     H12R     HAL2     0.900000E-01   1.00800           0
     35286 MEMB     292      POPC     H12S     HAL2     0.900000E-01   1.00800           0
     35287 MEMB     292      POPC     C213     CTL2    -0.180000       12.0110           0
     35288 MEMB     292      POPC     H13R     HAL2     0.900000E-01   1.00800           0
     35289 MEMB     292      POPC     H13S     HAL2     0.900000E-01   1.00800           0
     35290 MEMB     292      POPC     C214     CTL2    -0.180000       12.0110           0
     35291 MEMB     292      POPC     H14R     HAL2     0.900000E-01   1.00800           0
     35292 MEMB     292      POPC     H14S     HAL2     0.900000E-01   1.00800           0
     35293 MEMB     292      POPC     C215     CTL2    -0.180000       12.0110           0
     35294 MEMB     292      POPC     H15R     HAL2     0.900000E-01   1.00800           0
     35295 MEMB     292      POPC     H15S     HAL2     0.900000E-01   1.00800           0
     35296 MEMB     292      POPC     C216     CTL2    -0.180000       12.0110           0
     35297 MEMB     292      POPC     H16R     HAL2     0.900000E-01   1.00800           0
     35298 MEMB     292      POPC     H16S     HAL2     0.900000E-01   1.00800           0
     35299 MEMB     292      POPC     C217     CTL2    -0.180000       12.0110           0
     35300 MEMB     292      POPC     H17R     HAL2     0.900000E-01   1.00800           0
     35301 MEMB     292      POPC     H17S     HAL2     0.900000E-01   1.00800           0
     35302 MEMB     292      POPC     C218     CTL3    -0.270000       12.0110           0
     35303 MEMB     292      POPC     H18R     HAL3     0.900000E-01   1.00800           0
     35304 MEMB     292      POPC     H18S     HAL3     0.900000E-01   1.00800           0
     35305 MEMB     292      POPC     H18T     HAL3     0.900000E-01   1.00800           0
     35306 MEMB     292      POPC     C33      CTL2    -0.180000       12.0110           0
     35307 MEMB     292      POPC     H3X      HAL2     0.900000E-01   1.00800           0
     35308 MEMB     292      POPC     H3Y      HAL2     0.900000E-01   1.00800           0
     35309 MEMB     292      POPC     C34      CTL2    -0.180000       12.0110           0
     35310 MEMB     292      POPC     H4X      HAL2     0.900000E-01   1.00800           0
     35311 MEMB     292      POPC     H4Y      HAL2     0.900000E-01   1.00800           0
     35312 MEMB     292      POPC     C35      CTL2    -0.180000       12.0110           0
     35313 MEMB     292      POPC     H5X      HAL2     0.900000E-01   1.00800           0
     35314 MEMB     292      POPC     H5Y      HAL2     0.900000E-01   1.00800           0
     35315 MEMB     292      POPC     C36      CTL2    -0.180000       12.0110           0
     35316 MEMB     292      POPC     H6X      HAL2     0.900000E-01   1.00800           0
     35317 MEMB     292      POPC     H6Y      HAL2     0.900000E-01   1.00800           0
     35318 MEMB     292      POPC     C37      CTL2    -0.180000       12.0110           0
     35319 MEMB     292      POPC     H7X      HAL2     0.900000E-01   1.00800           0
     35320 MEMB     292      POPC     H7Y      HAL2     0.900000E-01   1.00800           0
     35321 MEMB     292      POPC     C38      CTL2    -0.180000       12.0110           0
     35322 MEMB     292      POPC     H8X      HAL2     0.900000E-01   1.00800           0
     35323 MEMB     292      POPC     H8Y      HAL2     0.900000E-01   1.00800           0
     35324 MEMB     292      POPC     C39      CTL2    -0.180000       12.0110           0
     35325 MEMB     292      POPC     H9X      HAL2     0.900000E-01   1.00800           0
     35326 MEMB     292      POPC     H9Y      HAL2     0.900000E-01   1.00800           0
     35327 MEMB     292      POPC     C310     CTL2    -0.180000       12.0110           0
     35328 MEMB     292      POPC     H10X     HAL2     0.900000E-01   1.00800           0
     35329 MEMB     292      POPC     H10Y     HAL2     0.900000E-01   1.00800           0
     35330 MEMB     292      POPC     C311     CTL2    -0.180000       12.0110           0
     35331 MEMB     292      POPC     H11X     HAL2     0.900000E-01   1.00800           0
     35332 MEMB     292      POPC     H11Y     HAL2     0.900000E-01   1.00800           0
     35333 MEMB     292      POPC     C312     CTL2    -0.180000       12.0110           0
     35334 MEMB     292      POPC     H12X     HAL2     0.900000E-01   1.00800           0
     35335 MEMB     292      POPC     H12Y     HAL2     0.900000E-01   1.00800           0
     35336 MEMB     292      POPC     C313     CTL2    -0.180000       12.0110           0
     35337 MEMB     292      POPC     H13X     HAL2     0.900000E-01   1.00800           0
     35338 MEMB     292      POPC     H13Y     HAL2     0.900000E-01   1.00800           0
     35339 MEMB     292      POPC     C314     CTL2    -0.180000       12.0110           0
     35340 MEMB     292      POPC     H14X     HAL2     0.900000E-01   1.00800           0
     35341 MEMB     292      POPC     H14Y     HAL2     0.900000E-01   1.00800           0
     35342 MEMB     292      POPC     C315     CTL2    -0.180000       12.0110           0
     35343 MEMB     292      POPC     H15X     HAL2     0.900000E-01   1.00800           0
     35344 MEMB     292      POPC     H15Y     HAL2     0.900000E-01   1.00800           0
     35345 MEMB     292      POPC     C316     CTL3    -0.270000       12.0110           0
     35346 MEMB     292      POPC     H16X     HAL3     0.900000E-01   1.00800           0
     35347 MEMB     292      POPC     H16Y     HAL3     0.900000E-01   1.00800           0
     35348 MEMB     292      POPC     H16Z     HAL3     0.900000E-01   1.00800           0
     35349 MEMB     293      POPC     N        NTL     -0.600000       14.0070           0
     35350 MEMB     293      POPC     C12      CTL2    -0.100000       12.0110           0
     35351 MEMB     293      POPC     H12A     HL       0.250000       1.00800           0
     35352 MEMB     293      POPC     H12B     HL       0.250000       1.00800           0
     35353 MEMB     293      POPC     C13      CTL5    -0.350000       12.0110           0
     35354 MEMB     293      POPC     H13A     HL       0.250000       1.00800           0
     35355 MEMB     293      POPC     H13B     HL       0.250000       1.00800           0
     35356 MEMB     293      POPC     H13C     HL       0.250000       1.00800           0
     35357 MEMB     293      POPC     C14      CTL5    -0.350000       12.0110           0
     35358 MEMB     293      POPC     H14A     HL       0.250000       1.00800           0
     35359 MEMB     293      POPC     H14B     HL       0.250000       1.00800           0
     35360 MEMB     293      POPC     H14C     HL       0.250000       1.00800           0
     35361 MEMB     293      POPC     C15      CTL5    -0.350000       12.0110           0
     35362 MEMB     293      POPC     H15A     HL       0.250000       1.00800           0
     35363 MEMB     293      POPC     H15B     HL       0.250000       1.00800           0
     35364 MEMB     293      POPC     H15C     HL       0.250000       1.00800           0
     35365 MEMB     293      POPC     C11      CTL2    -0.800000E-01   12.0110           0
     35366 MEMB     293      POPC     H11A     HAL2     0.900000E-01   1.00800           0
     35367 MEMB     293      POPC     H11B     HAL2     0.900000E-01   1.00800           0
     35368 MEMB     293      POPC     P        PL        1.50000       30.9740           0
     35369 MEMB     293      POPC     O13      O2L     -0.780000       15.9994           0
     35370 MEMB     293      POPC     O14      O2L     -0.780000       15.9994           0
     35371 MEMB     293      POPC     O12      OSLP    -0.570000       15.9994           0
     35372 MEMB     293      POPC     O11      OSLP    -0.570000       15.9994           0
     35373 MEMB     293      POPC     C1       CTL2    -0.800000E-01   12.0110           0
     35374 MEMB     293      POPC     HA       HAL2     0.900000E-01   1.00800           0
     35375 MEMB     293      POPC     HB       HAL2     0.900000E-01   1.00800           0
     35376 MEMB     293      POPC     C2       CTL1     0.170000       12.0110           0
     35377 MEMB     293      POPC     HS       HAL1     0.900000E-01   1.00800           0
     35378 MEMB     293      POPC     O21      OSL     -0.490000       15.9994           0
     35379 MEMB     293      POPC     C21      CL       0.900000       12.0110           0
     35380 MEMB     293      POPC     O22      OBL     -0.630000       15.9994           0
     35381 MEMB     293      POPC     C22      CTL2    -0.220000       12.0110           0
     35382 MEMB     293      POPC     H2R      HAL2     0.900000E-01   1.00800           0
     35383 MEMB     293      POPC     H2S      HAL2     0.900000E-01   1.00800           0
     35384 MEMB     293      POPC     C3       CTL2     0.800000E-01   12.0110           0
     35385 MEMB     293      POPC     HX       HAL2     0.900000E-01   1.00800           0
     35386 MEMB     293      POPC     HY       HAL2     0.900000E-01   1.00800           0
     35387 MEMB     293      POPC     O31      OSL     -0.490000       15.9994           0
     35388 MEMB     293      POPC     C31      CL       0.900000       12.0110           0
     35389 MEMB     293      POPC     O32      OBL     -0.630000       15.9994           0
     35390 MEMB     293      POPC     C32      CTL2    -0.220000       12.0110           0
     35391 MEMB     293      POPC     H2X      HAL2     0.900000E-01   1.00800           0
     35392 MEMB     293      POPC     H2Y      HAL2     0.900000E-01   1.00800           0
     35393 MEMB     293      POPC     C23      CTL2    -0.180000       12.0110           0
     35394 MEMB     293      POPC     H3R      HAL2     0.900000E-01   1.00800           0
     35395 MEMB     293      POPC     H3S      HAL2     0.900000E-01   1.00800           0
     35396 MEMB     293      POPC     C24      CTL2    -0.180000       12.0110           0
     35397 MEMB     293      POPC     H4R      HAL2     0.900000E-01   1.00800           0
     35398 MEMB     293      POPC     H4S      HAL2     0.900000E-01   1.00800           0
     35399 MEMB     293      POPC     C25      CTL2    -0.180000       12.0110           0
     35400 MEMB     293      POPC     H5R      HAL2     0.900000E-01   1.00800           0
     35401 MEMB     293      POPC     H5S      HAL2     0.900000E-01   1.00800           0
     35402 MEMB     293      POPC     C26      CTL2    -0.180000       12.0110           0
     35403 MEMB     293      POPC     H6R      HAL2     0.900000E-01   1.00800           0
     35404 MEMB     293      POPC     H6S      HAL2     0.900000E-01   1.00800           0
     35405 MEMB     293      POPC     C27      CTL2    -0.180000       12.0110           0
     35406 MEMB     293      POPC     H7R      HAL2     0.900000E-01   1.00800           0
     35407 MEMB     293      POPC     H7S      HAL2     0.900000E-01   1.00800           0
     35408 MEMB     293      POPC     C28      CTL2    -0.180000       12.0110           0
     35409 MEMB     293      POPC     H8R      HAL2     0.900000E-01   1.00800           0
     35410 MEMB     293      POPC     H8S      HAL2     0.900000E-01   1.00800           0
     35411 MEMB     293      POPC     C29      CEL1    -0.150000       12.0110           0
     35412 MEMB     293      POPC     H91      HEL1     0.150000       1.00800           0
     35413 MEMB     293      POPC     C210     CEL1    -0.150000       12.0110           0
     35414 MEMB     293      POPC     H101     HEL1     0.150000       1.00800           0
     35415 MEMB     293      POPC     C211     CTL2    -0.180000       12.0110           0
     35416 MEMB     293      POPC     H11R     HAL2     0.900000E-01   1.00800           0
     35417 MEMB     293      POPC     H11S     HAL2     0.900000E-01   1.00800           0
     35418 MEMB     293      POPC     C212     CTL2    -0.180000       12.0110           0
     35419 MEMB     293      POPC     H12R     HAL2     0.900000E-01   1.00800           0
     35420 MEMB     293      POPC     H12S     HAL2     0.900000E-01   1.00800           0
     35421 MEMB     293      POPC     C213     CTL2    -0.180000       12.0110           0
     35422 MEMB     293      POPC     H13R     HAL2     0.900000E-01   1.00800           0
     35423 MEMB     293      POPC     H13S     HAL2     0.900000E-01   1.00800           0
     35424 MEMB     293      POPC     C214     CTL2    -0.180000       12.0110           0
     35425 MEMB     293      POPC     H14R     HAL2     0.900000E-01   1.00800           0
     35426 MEMB     293      POPC     H14S     HAL2     0.900000E-01   1.00800           0
     35427 MEMB     293      POPC     C215     CTL2    -0.180000       12.0110           0
     35428 MEMB     293      POPC     H15R     HAL2     0.900000E-01   1.00800           0
     35429 MEMB     293      POPC     H15S     HAL2     0.900000E-01   1.00800           0
     35430 MEMB     293      POPC     C216     CTL2    -0.180000       12.0110           0
     35431 MEMB     293      POPC     H16R     HAL2     0.900000E-01   1.00800           0
     35432 MEMB     293      POPC     H16S     HAL2     0.900000E-01   1.00800           0
     35433 MEMB     293      POPC     C217     CTL2    -0.180000       12.0110           0
     35434 MEMB     293      POPC     H17R     HAL2     0.900000E-01   1.00800           0
     35435 MEMB     293      POPC     H17S     HAL2     0.900000E-01   1.00800           0
     35436 MEMB     293      POPC     C218     CTL3    -0.270000       12.0110           0
     35437 MEMB     293      POPC     H18R     HAL3     0.900000E-01   1.00800           0
     35438 MEMB     293      POPC     H18S     HAL3     0.900000E-01   1.00800           0
     35439 MEMB     293      POPC     H18T     HAL3     0.900000E-01   1.00800           0
     35440 MEMB     293      POPC     C33      CTL2    -0.180000       12.0110           0
     35441 MEMB     293      POPC     H3X      HAL2     0.900000E-01   1.00800           0
     35442 MEMB     293      POPC     H3Y      HAL2     0.900000E-01   1.00800           0
     35443 MEMB     293      POPC     C34      CTL2    -0.180000       12.0110           0
     35444 MEMB     293      POPC     H4X      HAL2     0.900000E-01   1.00800           0
     35445 MEMB     293      POPC     H4Y      HAL2     0.900000E-01   1.00800           0
     35446 MEMB     293      POPC     C35      CTL2    -0.180000       12.0110           0
     35447 MEMB     293      POPC     H5X      HAL2     0.900000E-01   1.00800           0
     35448 MEMB     293      POPC     H5Y      HAL2     0.900000E-01   1.00800           0
     35449 MEMB     293      POPC     C36      CTL2    -0.180000       12.0110           0
     35450 MEMB     293      POPC     H6X      HAL2     0.900000E-01   1.00800           0
     35451 MEMB     293      POPC     H6Y      HAL2     0.900000E-01   1.00800           0
     35452 MEMB     293      POPC     C37      CTL2    -0.180000       12.0110           0
     35453 MEMB     293      POPC     H7X      HAL2     0.900000E-01   1.00800           0
     35454 MEMB     293      POPC     H7Y      HAL2     0.900000E-01   1.00800           0
     35455 MEMB     293      POPC     C38      CTL2    -0.180000       12.0110           0
     35456 MEMB     293      POPC     H8X      HAL2     0.900000E-01   1.00800           0
     35457 MEMB     293      POPC     H8Y      HAL2     0.900000E-01   1.00800           0
     35458 MEMB     293      POPC     C39      CTL2    -0.180000       12.0110           0
     35459 MEMB     293      POPC     H9X      HAL2     0.900000E-01   1.00800           0
     35460 MEMB     293      POPC     H9Y      HAL2     0.900000E-01   1.00800           0
     35461 MEMB     293      POPC     C310     CTL2    -0.180000       12.0110           0
     35462 MEMB     293      POPC     H10X     HAL2     0.900000E-01   1.00800           0
     35463 MEMB     293      POPC     H10Y     HAL2     0.900000E-01   1.00800           0
     35464 MEMB     293      POPC     C311     CTL2    -0.180000       12.0110           0
     35465 MEMB     293      POPC     H11X     HAL2     0.900000E-01   1.00800           0
     35466 MEMB     293      POPC     H11Y     HAL2     0.900000E-01   1.00800           0
     35467 MEMB     293      POPC     C312     CTL2    -0.180000       12.0110           0
     35468 MEMB     293      POPC     H12X     HAL2     0.900000E-01   1.00800           0
     35469 MEMB     293      POPC     H12Y     HAL2     0.900000E-01   1.00800           0
     35470 MEMB     293      POPC     C313     CTL2    -0.180000       12.0110           0
     35471 MEMB     293      POPC     H13X     HAL2     0.900000E-01   1.00800           0
     35472 MEMB     293      POPC     H13Y     HAL2     0.900000E-01   1.00800           0
     35473 MEMB     293      POPC     C314     CTL2    -0.180000       12.0110           0
     35474 MEMB     293      POPC     H14X     HAL2     0.900000E-01   1.00800           0
     35475 MEMB     293      POPC     H14Y     HAL2     0.900000E-01   1.00800           0
     35476 MEMB     293      POPC     C315     CTL2    -0.180000       12.0110           0
     35477 MEMB     293      POPC     H15X     HAL2     0.900000E-01   1.00800           0
     35478 MEMB     293      POPC     H15Y     HAL2     0.900000E-01   1.00800           0
     35479 MEMB     293      POPC     C316     CTL3    -0.270000       12.0110           0
     35480 MEMB     293      POPC     H16X     HAL3     0.900000E-01   1.00800           0
     35481 MEMB     293      POPC     H16Y     HAL3     0.900000E-01   1.00800           0
     35482 MEMB     293      POPC     H16Z     HAL3     0.900000E-01   1.00800           0
     35483 MEMB     294      POPC     N        NTL     -0.600000       14.0070           0
     35484 MEMB     294      POPC     C12      CTL2    -0.100000       12.0110           0
     35485 MEMB     294      POPC     H12A     HL       0.250000       1.00800           0
     35486 MEMB     294      POPC     H12B     HL       0.250000       1.00800           0
     35487 MEMB     294      POPC     C13      CTL5    -0.350000       12.0110           0
     35488 MEMB     294      POPC     H13A     HL       0.250000       1.00800           0
     35489 MEMB     294      POPC     H13B     HL       0.250000       1.00800           0
     35490 MEMB     294      POPC     H13C     HL       0.250000       1.00800           0
     35491 MEMB     294      POPC     C14      CTL5    -0.350000       12.0110           0
     35492 MEMB     294      POPC     H14A     HL       0.250000       1.00800           0
     35493 MEMB     294      POPC     H14B     HL       0.250000       1.00800           0
     35494 MEMB     294      POPC     H14C     HL       0.250000       1.00800           0
     35495 MEMB     294      POPC     C15      CTL5    -0.350000       12.0110           0
     35496 MEMB     294      POPC     H15A     HL       0.250000       1.00800           0
     35497 MEMB     294      POPC     H15B     HL       0.250000       1.00800           0
     35498 MEMB     294      POPC     H15C     HL       0.250000       1.00800           0
     35499 MEMB     294      POPC     C11      CTL2    -0.800000E-01   12.0110           0
     35500 MEMB     294      POPC     H11A     HAL2     0.900000E-01   1.00800           0
     35501 MEMB     294      POPC     H11B     HAL2     0.900000E-01   1.00800           0
     35502 MEMB     294      POPC     P        PL        1.50000       30.9740           0
     35503 MEMB     294      POPC     O13      O2L     -0.780000       15.9994           0
     35504 MEMB     294      POPC     O14      O2L     -0.780000       15.9994           0
     35505 MEMB     294      POPC     O12      OSLP    -0.570000       15.9994           0
     35506 MEMB     294      POPC     O11      OSLP    -0.570000       15.9994           0
     35507 MEMB     294      POPC     C1       CTL2    -0.800000E-01   12.0110           0
     35508 MEMB     294      POPC     HA       HAL2     0.900000E-01   1.00800           0
     35509 MEMB     294      POPC     HB       HAL2     0.900000E-01   1.00800           0
     35510 MEMB     294      POPC     C2       CTL1     0.170000       12.0110           0
     35511 MEMB     294      POPC     HS       HAL1     0.900000E-01   1.00800           0
     35512 MEMB     294      POPC     O21      OSL     -0.490000       15.9994           0
     35513 MEMB     294      POPC     C21      CL       0.900000       12.0110           0
     35514 MEMB     294      POPC     O22      OBL     -0.630000       15.9994           0
     35515 MEMB     294      POPC     C22      CTL2    -0.220000       12.0110           0
     35516 MEMB     294      POPC     H2R      HAL2     0.900000E-01   1.00800           0
     35517 MEMB     294      POPC     H2S      HAL2     0.900000E-01   1.00800           0
     35518 MEMB     294      POPC     C3       CTL2     0.800000E-01   12.0110           0
     35519 MEMB     294      POPC     HX       HAL2     0.900000E-01   1.00800           0
     35520 MEMB     294      POPC     HY       HAL2     0.900000E-01   1.00800           0
     35521 MEMB     294      POPC     O31      OSL     -0.490000       15.9994           0
     35522 MEMB     294      POPC     C31      CL       0.900000       12.0110           0
     35523 MEMB     294      POPC     O32      OBL     -0.630000       15.9994           0
     35524 MEMB     294      POPC     C32      CTL2    -0.220000       12.0110           0
     35525 MEMB     294      POPC     H2X      HAL2     0.900000E-01   1.00800           0
     35526 MEMB     294      POPC     H2Y      HAL2     0.900000E-01   1.00800           0
     35527 MEMB     294      POPC     C23      CTL2    -0.180000       12.0110           0
     35528 MEMB     294      POPC     H3R      HAL2     0.900000E-01   1.00800           0
     35529 MEMB     294      POPC     H3S      HAL2     0.900000E-01   1.00800           0
     35530 MEMB     294      POPC     C24      CTL2    -0.180000       12.0110           0
     35531 MEMB     294      POPC     H4R      HAL2     0.900000E-01   1.00800           0
     35532 MEMB     294      POPC     H4S      HAL2     0.900000E-01   1.00800           0
     35533 MEMB     294      POPC     C25      CTL2    -0.180000       12.0110           0
     35534 MEMB     294      POPC     H5R      HAL2     0.900000E-01   1.00800           0
     35535 MEMB     294      POPC     H5S      HAL2     0.900000E-01   1.00800           0
     35536 MEMB     294      POPC     C26      CTL2    -0.180000       12.0110           0
     35537 MEMB     294      POPC     H6R      HAL2     0.900000E-01   1.00800           0
     35538 MEMB     294      POPC     H6S      HAL2     0.900000E-01   1.00800           0
     35539 MEMB     294      POPC     C27      CTL2    -0.180000       12.0110           0
     35540 MEMB     294      POPC     H7R      HAL2     0.900000E-01   1.00800           0
     35541 MEMB     294      POPC     H7S      HAL2     0.900000E-01   1.00800           0
     35542 MEMB     294      POPC     C28      CTL2    -0.180000       12.0110           0
     35543 MEMB     294      POPC     H8R      HAL2     0.900000E-01   1.00800           0
     35544 MEMB     294      POPC     H8S      HAL2     0.900000E-01   1.00800           0
     35545 MEMB     294      POPC     C29      CEL1    -0.150000       12.0110           0
     35546 MEMB     294      POPC     H91      HEL1     0.150000       1.00800           0
     35547 MEMB     294      POPC     C210     CEL1    -0.150000       12.0110           0
     35548 MEMB     294      POPC     H101     HEL1     0.150000       1.00800           0
     35549 MEMB     294      POPC     C211     CTL2    -0.180000       12.0110           0
     35550 MEMB     294      POPC     H11R     HAL2     0.900000E-01   1.00800           0
     35551 MEMB     294      POPC     H11S     HAL2     0.900000E-01   1.00800           0
     35552 MEMB     294      POPC     C212     CTL2    -0.180000       12.0110           0
     35553 MEMB     294      POPC     H12R     HAL2     0.900000E-01   1.00800           0
     35554 MEMB     294      POPC     H12S     HAL2     0.900000E-01   1.00800           0
     35555 MEMB     294      POPC     C213     CTL2    -0.180000       12.0110           0
     35556 MEMB     294      POPC     H13R     HAL2     0.900000E-01   1.00800           0
     35557 MEMB     294      POPC     H13S     HAL2     0.900000E-01   1.00800           0
     35558 MEMB     294      POPC     C214     CTL2    -0.180000       12.0110           0
     35559 MEMB     294      POPC     H14R     HAL2     0.900000E-01   1.00800           0
     35560 MEMB     294      POPC     H14S     HAL2     0.900000E-01   1.00800           0
     35561 MEMB     294      POPC     C215     CTL2    -0.180000       12.0110           0
     35562 MEMB     294      POPC     H15R     HAL2     0.900000E-01   1.00800           0
     35563 MEMB     294      POPC     H15S     HAL2     0.900000E-01   1.00800           0
     35564 MEMB     294      POPC     C216     CTL2    -0.180000       12.0110           0
     35565 MEMB     294      POPC     H16R     HAL2     0.900000E-01   1.00800           0
     35566 MEMB     294      POPC     H16S     HAL2     0.900000E-01   1.00800           0
     35567 MEMB     294      POPC     C217     CTL2    -0.180000       12.0110           0
     35568 MEMB     294      POPC     H17R     HAL2     0.900000E-01   1.00800           0
     35569 MEMB     294      POPC     H17S     HAL2     0.900000E-01   1.00800           0
     35570 MEMB     294      POPC     C218     CTL3    -0.270000       12.0110           0
     35571 MEMB     294      POPC     H18R     HAL3     0.900000E-01   1.00800           0
     35572 MEMB     294      POPC     H18S     HAL3     0.900000E-01   1.00800           0
     35573 MEMB     294      POPC     H18T     HAL3     0.900000E-01   1.00800           0
     35574 MEMB     294      POPC     C33      CTL2    -0.180000       12.0110           0
     35575 MEMB     294      POPC     H3X      HAL2     0.900000E-01   1.00800           0
     35576 MEMB     294      POPC     H3Y      HAL2     0.900000E-01   1.00800           0
     35577 MEMB     294      POPC     C34      CTL2    -0.180000       12.0110           0
     35578 MEMB     294      POPC     H4X      HAL2     0.900000E-01   1.00800           0
     35579 MEMB     294      POPC     H4Y      HAL2     0.900000E-01   1.00800           0
     35580 MEMB     294      POPC     C35      CTL2    -0.180000       12.0110           0
     35581 MEMB     294      POPC     H5X      HAL2     0.900000E-01   1.00800           0
     35582 MEMB     294      POPC     H5Y      HAL2     0.900000E-01   1.00800           0
     35583 MEMB     294      POPC     C36      CTL2    -0.180000       12.0110           0
     35584 MEMB     294      POPC     H6X      HAL2     0.900000E-01   1.00800           0
     35585 MEMB     294      POPC     H6Y      HAL2     0.900000E-01   1.00800           0
     35586 MEMB     294      POPC     C37      CTL2    -0.180000       12.0110           0
     35587 MEMB     294      POPC     H7X      HAL2     0.900000E-01   1.00800           0
     35588 MEMB     294      POPC     H7Y      HAL2     0.900000E-01   1.00800           0
     35589 MEMB     294      POPC     C38      CTL2    -0.180000       12.0110           0
     35590 MEMB     294      POPC     H8X      HAL2     0.900000E-01   1.00800           0
     35591 MEMB     294      POPC     H8Y      HAL2     0.900000E-01   1.00800           0
     35592 MEMB     294      POPC     C39      CTL2    -0.180000       12.0110           0
     35593 MEMB     294      POPC     H9X      HAL2     0.900000E-01   1.00800           0
     35594 MEMB     294      POPC     H9Y      HAL2     0.900000E-01   1.00800           0
     35595 MEMB     294      POPC     C310     CTL2    -0.180000       12.0110           0
     35596 MEMB     294      POPC     H10X     HAL2     0.900000E-01   1.00800           0
     35597 MEMB     294      POPC     H10Y     HAL2     0.900000E-01   1.00800           0
     35598 MEMB     294      POPC     C311     CTL2    -0.180000       12.0110           0
     35599 MEMB     294      POPC     H11X     HAL2     0.900000E-01   1.00800           0
     35600 MEMB     294      POPC     H11Y     HAL2     0.900000E-01   1.00800           0
     35601 MEMB     294      POPC     C312     CTL2    -0.180000       12.0110           0
     35602 MEMB     294      POPC     H12X     HAL2     0.900000E-01   1.00800           0
     35603 MEMB     294      POPC     H12Y     HAL2     0.900000E-01   1.00800           0
     35604 MEMB     294      POPC     C313     CTL2    -0.180000       12.0110           0
     35605 MEMB     294      POPC     H13X     HAL2     0.900000E-01   1.00800           0
     35606 MEMB     294      POPC     H13Y     HAL2     0.900000E-01   1.00800           0
     35607 MEMB     294      POPC     C314     CTL2    -0.180000       12.0110           0
     35608 MEMB     294      POPC     H14X     HAL2     0.900000E-01   1.00800           0
     35609 MEMB     294      POPC     H14Y     HAL2     0.900000E-01   1.00800           0
     35610 MEMB     294      POPC     C315     CTL2    -0.180000       12.0110           0
     35611 MEMB     294      POPC     H15X     HAL2     0.900000E-01   1.00800           0
     35612 MEMB     294      POPC     H15Y     HAL2     0.900000E-01   1.00800           0
     35613 MEMB     294      POPC     C316     CTL3    -0.270000       12.0110           0
     35614 MEMB     294      POPC     H16X     HAL3     0.900000E-01   1.00800           0
     35615 MEMB     294      POPC     H16Y     HAL3     0.900000E-01   1.00800           0
     35616 MEMB     294      POPC     H16Z     HAL3     0.900000E-01   1.00800           0
     35617 MEMB     295      POPC     N        NTL     -0.600000       14.0070           0
     35618 MEMB     295      POPC     C12      CTL2    -0.100000       12.0110           0
     35619 MEMB     295      POPC     H12A     HL       0.250000       1.00800           0
     35620 MEMB     295      POPC     H12B     HL       0.250000       1.00800           0
     35621 MEMB     295      POPC     C13      CTL5    -0.350000       12.0110           0
     35622 MEMB     295      POPC     H13A     HL       0.250000       1.00800           0
     35623 MEMB     295      POPC     H13B     HL       0.250000       1.00800           0
     35624 MEMB     295      POPC     H13C     HL       0.250000       1.00800           0
     35625 MEMB     295      POPC     C14      CTL5    -0.350000       12.0110           0
     35626 MEMB     295      POPC     H14A     HL       0.250000       1.00800           0
     35627 MEMB     295      POPC     H14B     HL       0.250000       1.00800           0
     35628 MEMB     295      POPC     H14C     HL       0.250000       1.00800           0
     35629 MEMB     295      POPC     C15      CTL5    -0.350000       12.0110           0
     35630 MEMB     295      POPC     H15A     HL       0.250000       1.00800           0
     35631 MEMB     295      POPC     H15B     HL       0.250000       1.00800           0
     35632 MEMB     295      POPC     H15C     HL       0.250000       1.00800           0
     35633 MEMB     295      POPC     C11      CTL2    -0.800000E-01   12.0110           0
     35634 MEMB     295      POPC     H11A     HAL2     0.900000E-01   1.00800           0
     35635 MEMB     295      POPC     H11B     HAL2     0.900000E-01   1.00800           0
     35636 MEMB     295      POPC     P        PL        1.50000       30.9740           0
     35637 MEMB     295      POPC     O13      O2L     -0.780000       15.9994           0
     35638 MEMB     295      POPC     O14      O2L     -0.780000       15.9994           0
     35639 MEMB     295      POPC     O12      OSLP    -0.570000       15.9994           0
     35640 MEMB     295      POPC     O11      OSLP    -0.570000       15.9994           0
     35641 MEMB     295      POPC     C1       CTL2    -0.800000E-01   12.0110           0
     35642 MEMB     295      POPC     HA       HAL2     0.900000E-01   1.00800           0
     35643 MEMB     295      POPC     HB       HAL2     0.900000E-01   1.00800           0
     35644 MEMB     295      POPC     C2       CTL1     0.170000       12.0110           0
     35645 MEMB     295      POPC     HS       HAL1     0.900000E-01   1.00800           0
     35646 MEMB     295      POPC     O21      OSL     -0.490000       15.9994           0
     35647 MEMB     295      POPC     C21      CL       0.900000       12.0110           0
     35648 MEMB     295      POPC     O22      OBL     -0.630000       15.9994           0
     35649 MEMB     295      POPC     C22      CTL2    -0.220000       12.0110           0
     35650 MEMB     295      POPC     H2R      HAL2     0.900000E-01   1.00800           0
     35651 MEMB     295      POPC     H2S      HAL2     0.900000E-01   1.00800           0
     35652 MEMB     295      POPC     C3       CTL2     0.800000E-01   12.0110           0
     35653 MEMB     295      POPC     HX       HAL2     0.900000E-01   1.00800           0
     35654 MEMB     295      POPC     HY       HAL2     0.900000E-01   1.00800           0
     35655 MEMB     295      POPC     O31      OSL     -0.490000       15.9994           0
     35656 MEMB     295      POPC     C31      CL       0.900000       12.0110           0
     35657 MEMB     295      POPC     O32      OBL     -0.630000       15.9994           0
     35658 MEMB     295      POPC     C32      CTL2    -0.220000       12.0110           0
     35659 MEMB     295      POPC     H2X      HAL2     0.900000E-01   1.00800           0
     35660 MEMB     295      POPC     H2Y      HAL2     0.900000E-01   1.00800           0
     35661 MEMB     295      POPC     C23      CTL2    -0.180000       12.0110           0
     35662 MEMB     295      POPC     H3R      HAL2     0.900000E-01   1.00800           0
     35663 MEMB     295      POPC     H3S      HAL2     0.900000E-01   1.00800           0
     35664 MEMB     295      POPC     C24      CTL2    -0.180000       12.0110           0
     35665 MEMB     295      POPC     H4R      HAL2     0.900000E-01   1.00800           0
     35666 MEMB     295      POPC     H4S      HAL2     0.900000E-01   1.00800           0
     35667 MEMB     295      POPC     C25      CTL2    -0.180000       12.0110           0
     35668 MEMB     295      POPC     H5R      HAL2     0.900000E-01   1.00800           0
     35669 MEMB     295      POPC     H5S      HAL2     0.900000E-01   1.00800           0
     35670 MEMB     295      POPC     C26      CTL2    -0.180000       12.0110           0
     35671 MEMB     295      POPC     H6R      HAL2     0.900000E-01   1.00800           0
     35672 MEMB     295      POPC     H6S      HAL2     0.900000E-01   1.00800           0
     35673 MEMB     295      POPC     C27      CTL2    -0.180000       12.0110           0
     35674 MEMB     295      POPC     H7R      HAL2     0.900000E-01   1.00800           0
     35675 MEMB     295      POPC     H7S      HAL2     0.900000E-01   1.00800           0
     35676 MEMB     295      POPC     C28      CTL2    -0.180000       12.0110           0
     35677 MEMB     295      POPC     H8R      HAL2     0.900000E-01   1.00800           0
     35678 MEMB     295      POPC     H8S      HAL2     0.900000E-01   1.00800           0
     35679 MEMB     295      POPC     C29      CEL1    -0.150000       12.0110           0
     35680 MEMB     295      POPC     H91      HEL1     0.150000       1.00800           0
     35681 MEMB     295      POPC     C210     CEL1    -0.150000       12.0110           0
     35682 MEMB     295      POPC     H101     HEL1     0.150000       1.00800           0
     35683 MEMB     295      POPC     C211     CTL2    -0.180000       12.0110           0
     35684 MEMB     295      POPC     H11R     HAL2     0.900000E-01   1.00800           0
     35685 MEMB     295      POPC     H11S     HAL2     0.900000E-01   1.00800           0
     35686 MEMB     295      POPC     C212     CTL2    -0.180000       12.0110           0
     35687 MEMB     295      POPC     H12R     HAL2     0.900000E-01   1.00800           0
     35688 MEMB     295      POPC     H12S     HAL2     0.900000E-01   1.00800           0
     35689 MEMB     295      POPC     C213     CTL2    -0.180000       12.0110           0
     35690 MEMB     295      POPC     H13R     HAL2     0.900000E-01   1.00800           0
     35691 MEMB     295      POPC     H13S     HAL2     0.900000E-01   1.00800           0
     35692 MEMB     295      POPC     C214     CTL2    -0.180000       12.0110           0
     35693 MEMB     295      POPC     H14R     HAL2     0.900000E-01   1.00800           0
     35694 MEMB     295      POPC     H14S     HAL2     0.900000E-01   1.00800           0
     35695 MEMB     295      POPC     C215     CTL2    -0.180000       12.0110           0
     35696 MEMB     295      POPC     H15R     HAL2     0.900000E-01   1.00800           0
     35697 MEMB     295      POPC     H15S     HAL2     0.900000E-01   1.00800           0
     35698 MEMB     295      POPC     C216     CTL2    -0.180000       12.0110           0
     35699 MEMB     295      POPC     H16R     HAL2     0.900000E-01   1.00800           0
     35700 MEMB     295      POPC     H16S     HAL2     0.900000E-01   1.00800           0
     35701 MEMB     295      POPC     C217     CTL2    -0.180000       12.0110           0
     35702 MEMB     295      POPC     H17R     HAL2     0.900000E-01   1.00800           0
     35703 MEMB     295      POPC     H17S     HAL2     0.900000E-01   1.00800           0
     35704 MEMB     295      POPC     C218     CTL3    -0.270000       12.0110           0
     35705 MEMB     295      POPC     H18R     HAL3     0.900000E-01   1.00800           0
     35706 MEMB     295      POPC     H18S     HAL3     0.900000E-01   1.00800           0
     35707 MEMB     295      POPC     H18T     HAL3     0.900000E-01   1.00800           0
     35708 MEMB     295      POPC     C33      CTL2    -0.180000       12.0110           0
     35709 MEMB     295      POPC     H3X      HAL2     0.900000E-01   1.00800           0
     35710 MEMB     295      POPC     H3Y      HAL2     0.900000E-01   1.00800           0
     35711 MEMB     295      POPC     C34      CTL2    -0.180000       12.0110           0
     35712 MEMB     295      POPC     H4X      HAL2     0.900000E-01   1.00800           0
     35713 MEMB     295      POPC     H4Y      HAL2     0.900000E-01   1.00800           0
     35714 MEMB     295      POPC     C35      CTL2    -0.180000       12.0110           0
     35715 MEMB     295      POPC     H5X      HAL2     0.900000E-01   1.00800           0
     35716 MEMB     295      POPC     H5Y      HAL2     0.900000E-01   1.00800           0
     35717 MEMB     295      POPC     C36      CTL2    -0.180000       12.0110           0
     35718 MEMB     295      POPC     H6X      HAL2     0.900000E-01   1.00800           0
     35719 MEMB     295      POPC     H6Y      HAL2     0.900000E-01   1.00800           0
     35720 MEMB     295      POPC     C37      CTL2    -0.180000       12.0110           0
     35721 MEMB     295      POPC     H7X      HAL2     0.900000E-01   1.00800           0
     35722 MEMB     295      POPC     H7Y      HAL2     0.900000E-01   1.00800           0
     35723 MEMB     295      POPC     C38      CTL2    -0.180000       12.0110           0
     35724 MEMB     295      POPC     H8X      HAL2     0.900000E-01   1.00800           0
     35725 MEMB     295      POPC     H8Y      HAL2     0.900000E-01   1.00800           0
     35726 MEMB     295      POPC     C39      CTL2    -0.180000       12.0110           0
     35727 MEMB     295      POPC     H9X      HAL2     0.900000E-01   1.00800           0
     35728 MEMB     295      POPC     H9Y      HAL2     0.900000E-01   1.00800           0
     35729 MEMB     295      POPC     C310     CTL2    -0.180000       12.0110           0
     35730 MEMB     295      POPC     H10X     HAL2     0.900000E-01   1.00800           0
     35731 MEMB     295      POPC     H10Y     HAL2     0.900000E-01   1.00800           0
     35732 MEMB     295      POPC     C311     CTL2    -0.180000       12.0110           0
     35733 MEMB     295      POPC     H11X     HAL2     0.900000E-01   1.00800           0
     35734 MEMB     295      POPC     H11Y     HAL2     0.900000E-01   1.00800           0
     35735 MEMB     295      POPC     C312     CTL2    -0.180000       12.0110           0
     35736 MEMB     295      POPC     H12X     HAL2     0.900000E-01   1.00800           0
     35737 MEMB     295      POPC     H12Y     HAL2     0.900000E-01   1.00800           0
     35738 MEMB     295      POPC     C313     CTL2    -0.180000       12.0110           0
     35739 MEMB     295      POPC     H13X     HAL2     0.900000E-01   1.00800           0
     35740 MEMB     295      POPC     H13Y     HAL2     0.900000E-01   1.00800           0
     35741 MEMB     295      POPC     C314     CTL2    -0.180000       12.0110           0
     35742 MEMB     295      POPC     H14X     HAL2     0.900000E-01   1.00800           0
     35743 MEMB     295      POPC     H14Y     HAL2     0.900000E-01   1.00800           0
     35744 MEMB     295      POPC     C315     CTL2    -0.180000       12.0110           0
     35745 MEMB     295      POPC     H15X     HAL2     0.900000E-01   1.00800           0
     35746 MEMB     295      POPC     H15Y     HAL2     0.900000E-01   1.00800           0
     35747 MEMB     295      POPC     C316     CTL3    -0.270000       12.0110           0
     35748 MEMB     295      POPC     H16X     HAL3     0.900000E-01   1.00800           0
     35749 MEMB     295      POPC     H16Y     HAL3     0.900000E-01   1.00800           0
     35750 MEMB     295      POPC     H16Z     HAL3     0.900000E-01   1.00800           0
     35751 MEMB     296      POPC     N        NTL     -0.600000       14.0070           0
     35752 MEMB     296      POPC     C12      CTL2    -0.100000       12.0110           0
     35753 MEMB     296      POPC     H12A     HL       0.250000       1.00800           0
     35754 MEMB     296      POPC     H12B     HL       0.250000       1.00800           0
     35755 MEMB     296      POPC     C13      CTL5    -0.350000       12.0110           0
     35756 MEMB     296      POPC     H13A     HL       0.250000       1.00800           0
     35757 MEMB     296      POPC     H13B     HL       0.250000       1.00800           0
     35758 MEMB     296      POPC     H13C     HL       0.250000       1.00800           0
     35759 MEMB     296      POPC     C14      CTL5    -0.350000       12.0110           0
     35760 MEMB     296      POPC     H14A     HL       0.250000       1.00800           0
     35761 MEMB     296      POPC     H14B     HL       0.250000       1.00800           0
     35762 MEMB     296      POPC     H14C     HL       0.250000       1.00800           0
     35763 MEMB     296      POPC     C15      CTL5    -0.350000       12.0110           0
     35764 MEMB     296      POPC     H15A     HL       0.250000       1.00800           0
     35765 MEMB     296      POPC     H15B     HL       0.250000       1.00800           0
     35766 MEMB     296      POPC     H15C     HL       0.250000       1.00800           0
     35767 MEMB     296      POPC     C11      CTL2    -0.800000E-01   12.0110           0
     35768 MEMB     296      POPC     H11A     HAL2     0.900000E-01   1.00800           0
     35769 MEMB     296      POPC     H11B     HAL2     0.900000E-01   1.00800           0
     35770 MEMB     296      POPC     P        PL        1.50000       30.9740           0
     35771 MEMB     296      POPC     O13      O2L     -0.780000       15.9994           0
     35772 MEMB     296      POPC     O14      O2L     -0.780000       15.9994           0
     35773 MEMB     296      POPC     O12      OSLP    -0.570000       15.9994           0
     35774 MEMB     296      POPC     O11      OSLP    -0.570000       15.9994           0
     35775 MEMB     296      POPC     C1       CTL2    -0.800000E-01   12.0110           0
     35776 MEMB     296      POPC     HA       HAL2     0.900000E-01   1.00800           0
     35777 MEMB     296      POPC     HB       HAL2     0.900000E-01   1.00800           0
     35778 MEMB     296      POPC     C2       CTL1     0.170000       12.0110           0
     35779 MEMB     296      POPC     HS       HAL1     0.900000E-01   1.00800           0
     35780 MEMB     296      POPC     O21      OSL     -0.490000       15.9994           0
     35781 MEMB     296      POPC     C21      CL       0.900000       12.0110           0
     35782 MEMB     296      POPC     O22      OBL     -0.630000       15.9994           0
     35783 MEMB     296      POPC     C22      CTL2    -0.220000       12.0110           0
     35784 MEMB     296      POPC     H2R      HAL2     0.900000E-01   1.00800           0
     35785 MEMB     296      POPC     H2S      HAL2     0.900000E-01   1.00800           0
     35786 MEMB     296      POPC     C3       CTL2     0.800000E-01   12.0110           0
     35787 MEMB     296      POPC     HX       HAL2     0.900000E-01   1.00800           0
     35788 MEMB     296      POPC     HY       HAL2     0.900000E-01   1.00800           0
     35789 MEMB     296      POPC     O31      OSL     -0.490000       15.9994           0
     35790 MEMB     296      POPC     C31      CL       0.900000       12.0110           0
     35791 MEMB     296      POPC     O32      OBL     -0.630000       15.9994           0
     35792 MEMB     296      POPC     C32      CTL2    -0.220000       12.0110           0
     35793 MEMB     296      POPC     H2X      HAL2     0.900000E-01   1.00800           0
     35794 MEMB     296      POPC     H2Y      HAL2     0.900000E-01   1.00800           0
     35795 MEMB     296      POPC     C23      CTL2    -0.180000       12.0110           0
     35796 MEMB     296      POPC     H3R      HAL2     0.900000E-01   1.00800           0
     35797 MEMB     296      POPC     H3S      HAL2     0.900000E-01   1.00800           0
     35798 MEMB     296      POPC     C24      CTL2    -0.180000       12.0110           0
     35799 MEMB     296      POPC     H4R      HAL2     0.900000E-01   1.00800           0
     35800 MEMB     296      POPC     H4S      HAL2     0.900000E-01   1.00800           0
     35801 MEMB     296      POPC     C25      CTL2    -0.180000       12.0110           0
     35802 MEMB     296      POPC     H5R      HAL2     0.900000E-01   1.00800           0
     35803 MEMB     296      POPC     H5S      HAL2     0.900000E-01   1.00800           0
     35804 MEMB     296      POPC     C26      CTL2    -0.180000       12.0110           0
     35805 MEMB     296      POPC     H6R      HAL2     0.900000E-01   1.00800           0
     35806 MEMB     296      POPC     H6S      HAL2     0.900000E-01   1.00800           0
     35807 MEMB     296      POPC     C27      CTL2    -0.180000       12.0110           0
     35808 MEMB     296      POPC     H7R      HAL2     0.900000E-01   1.00800           0
     35809 MEMB     296      POPC     H7S      HAL2     0.900000E-01   1.00800           0
     35810 MEMB     296      POPC     C28      CTL2    -0.180000       12.0110           0
     35811 MEMB     296      POPC     H8R      HAL2     0.900000E-01   1.00800           0
     35812 MEMB     296      POPC     H8S      HAL2     0.900000E-01   1.00800           0
     35813 MEMB     296      POPC     C29      CEL1    -0.150000       12.0110           0
     35814 MEMB     296      POPC     H91      HEL1     0.150000       1.00800           0
     35815 MEMB     296      POPC     C210     CEL1    -0.150000       12.0110           0
     35816 MEMB     296      POPC     H101     HEL1     0.150000       1.00800           0
     35817 MEMB     296      POPC     C211     CTL2    -0.180000       12.0110           0
     35818 MEMB     296      POPC     H11R     HAL2     0.900000E-01   1.00800           0
     35819 MEMB     296      POPC     H11S     HAL2     0.900000E-01   1.00800           0
     35820 MEMB     296      POPC     C212     CTL2    -0.180000       12.0110           0
     35821 MEMB     296      POPC     H12R     HAL2     0.900000E-01   1.00800           0
     35822 MEMB     296      POPC     H12S     HAL2     0.900000E-01   1.00800           0
     35823 MEMB     296      POPC     C213     CTL2    -0.180000       12.0110           0
     35824 MEMB     296      POPC     H13R     HAL2     0.900000E-01   1.00800           0
     35825 MEMB     296      POPC     H13S     HAL2     0.900000E-01   1.00800           0
     35826 MEMB     296      POPC     C214     CTL2    -0.180000       12.0110           0
     35827 MEMB     296      POPC     H14R     HAL2     0.900000E-01   1.00800           0
     35828 MEMB     296      POPC     H14S     HAL2     0.900000E-01   1.00800           0
     35829 MEMB     296      POPC     C215     CTL2    -0.180000       12.0110           0
     35830 MEMB     296      POPC     H15R     HAL2     0.900000E-01   1.00800           0
     35831 MEMB     296      POPC     H15S     HAL2     0.900000E-01   1.00800           0
     35832 MEMB     296      POPC     C216     CTL2    -0.180000       12.0110           0
     35833 MEMB     296      POPC     H16R     HAL2     0.900000E-01   1.00800           0
     35834 MEMB     296      POPC     H16S     HAL2     0.900000E-01   1.00800           0
     35835 MEMB     296      POPC     C217     CTL2    -0.180000       12.0110           0
     35836 MEMB     296      POPC     H17R     HAL2     0.900000E-01   1.00800           0
     35837 MEMB     296      POPC     H17S     HAL2     0.900000E-01   1.00800           0
     35838 MEMB     296      POPC     C218     CTL3    -0.270000       12.0110           0
     35839 MEMB     296      POPC     H18R     HAL3     0.900000E-01   1.00800           0
     35840 MEMB     296      POPC     H18S     HAL3     0.900000E-01   1.00800           0
     35841 MEMB     296      POPC     H18T     HAL3     0.900000E-01   1.00800           0
     35842 MEMB     296      POPC     C33      CTL2    -0.180000       12.0110           0
     35843 MEMB     296      POPC     H3X      HAL2     0.900000E-01   1.00800           0
     35844 MEMB     296      POPC     H3Y      HAL2     0.900000E-01   1.00800           0
     35845 MEMB     296      POPC     C34      CTL2    -0.180000       12.0110           0
     35846 MEMB     296      POPC     H4X      HAL2     0.900000E-01   1.00800           0
     35847 MEMB     296      POPC     H4Y      HAL2     0.900000E-01   1.00800           0
     35848 MEMB     296      POPC     C35      CTL2    -0.180000       12.0110           0
     35849 MEMB     296      POPC     H5X      HAL2     0.900000E-01   1.00800           0
     35850 MEMB     296      POPC     H5Y      HAL2     0.900000E-01   1.00800           0
     35851 MEMB     296      POPC     C36      CTL2    -0.180000       12.0110           0
     35852 MEMB     296      POPC     H6X      HAL2     0.900000E-01   1.00800           0
     35853 MEMB     296      POPC     H6Y      HAL2     0.900000E-01   1.00800           0
     35854 MEMB     296      POPC     C37      CTL2    -0.180000       12.0110           0
     35855 MEMB     296      POPC     H7X      HAL2     0.900000E-01   1.00800           0
     35856 MEMB     296      POPC     H7Y      HAL2     0.900000E-01   1.00800           0
     35857 MEMB     296      POPC     C38      CTL2    -0.180000       12.0110           0
     35858 MEMB     296      POPC     H8X      HAL2     0.900000E-01   1.00800           0
     35859 MEMB     296      POPC     H8Y      HAL2     0.900000E-01   1.00800           0
     35860 MEMB     296      POPC     C39      CTL2    -0.180000       12.0110           0
     35861 MEMB     296      POPC     H9X      HAL2     0.900000E-01   1.00800           0
     35862 MEMB     296      POPC     H9Y      HAL2     0.900000E-01   1.00800           0
     35863 MEMB     296      POPC     C310     CTL2    -0.180000       12.0110           0
     35864 MEMB     296      POPC     H10X     HAL2     0.900000E-01   1.00800           0
     35865 MEMB     296      POPC     H10Y     HAL2     0.900000E-01   1.00800           0
     35866 MEMB     296      POPC     C311     CTL2    -0.180000       12.0110           0
     35867 MEMB     296      POPC     H11X     HAL2     0.900000E-01   1.00800           0
     35868 MEMB     296      POPC     H11Y     HAL2     0.900000E-01   1.00800           0
     35869 MEMB     296      POPC     C312     CTL2    -0.180000       12.0110           0
     35870 MEMB     296      POPC     H12X     HAL2     0.900000E-01   1.00800           0
     35871 MEMB     296      POPC     H12Y     HAL2     0.900000E-01   1.00800           0
     35872 MEMB     296      POPC     C313     CTL2    -0.180000       12.0110           0
     35873 MEMB     296      POPC     H13X     HAL2     0.900000E-01   1.00800           0
     35874 MEMB     296      POPC     H13Y     HAL2     0.900000E-01   1.00800           0
     35875 MEMB     296      POPC     C314     CTL2    -0.180000       12.0110           0
     35876 MEMB     296      POPC     H14X     HAL2     0.900000E-01   1.00800           0
     35877 MEMB     296      POPC     H14Y     HAL2     0.900000E-01   1.00800           0
     35878 MEMB     296      POPC     C315     CTL2    -0.180000       12.0110           0
     35879 MEMB     296      POPC     H15X     HAL2     0.900000E-01   1.00800           0
     35880 MEMB     296      POPC     H15Y     HAL2     0.900000E-01   1.00800           0
     35881 MEMB     296      POPC     C316     CTL3    -0.270000       12.0110           0
     35882 MEMB     296      POPC     H16X     HAL3     0.900000E-01   1.00800           0
     35883 MEMB     296      POPC     H16Y     HAL3     0.900000E-01   1.00800           0
     35884 MEMB     296      POPC     H16Z     HAL3     0.900000E-01   1.00800           0
     35885 MEMB     297      POPC     N        NTL     -0.600000       14.0070           0
     35886 MEMB     297      POPC     C12      CTL2    -0.100000       12.0110           0
     35887 MEMB     297      POPC     H12A     HL       0.250000       1.00800           0
     35888 MEMB     297      POPC     H12B     HL       0.250000       1.00800           0
     35889 MEMB     297      POPC     C13      CTL5    -0.350000       12.0110           0
     35890 MEMB     297      POPC     H13A     HL       0.250000       1.00800           0
     35891 MEMB     297      POPC     H13B     HL       0.250000       1.00800           0
     35892 MEMB     297      POPC     H13C     HL       0.250000       1.00800           0
     35893 MEMB     297      POPC     C14      CTL5    -0.350000       12.0110           0
     35894 MEMB     297      POPC     H14A     HL       0.250000       1.00800           0
     35895 MEMB     297      POPC     H14B     HL       0.250000       1.00800           0
     35896 MEMB     297      POPC     H14C     HL       0.250000       1.00800           0
     35897 MEMB     297      POPC     C15      CTL5    -0.350000       12.0110           0
     35898 MEMB     297      POPC     H15A     HL       0.250000       1.00800           0
     35899 MEMB     297      POPC     H15B     HL       0.250000       1.00800           0
     35900 MEMB     297      POPC     H15C     HL       0.250000       1.00800           0
     35901 MEMB     297      POPC     C11      CTL2    -0.800000E-01   12.0110           0
     35902 MEMB     297      POPC     H11A     HAL2     0.900000E-01   1.00800           0
     35903 MEMB     297      POPC     H11B     HAL2     0.900000E-01   1.00800           0
     35904 MEMB     297      POPC     P        PL        1.50000       30.9740           0
     35905 MEMB     297      POPC     O13      O2L     -0.780000       15.9994           0
     35906 MEMB     297      POPC     O14      O2L     -0.780000       15.9994           0
     35907 MEMB     297      POPC     O12      OSLP    -0.570000       15.9994           0
     35908 MEMB     297      POPC     O11      OSLP    -0.570000       15.9994           0
     35909 MEMB     297      POPC     C1       CTL2    -0.800000E-01   12.0110           0
     35910 MEMB     297      POPC     HA       HAL2     0.900000E-01   1.00800           0
     35911 MEMB     297      POPC     HB       HAL2     0.900000E-01   1.00800           0
     35912 MEMB     297      POPC     C2       CTL1     0.170000       12.0110           0
     35913 MEMB     297      POPC     HS       HAL1     0.900000E-01   1.00800           0
     35914 MEMB     297      POPC     O21      OSL     -0.490000       15.9994           0
     35915 MEMB     297      POPC     C21      CL       0.900000       12.0110           0
     35916 MEMB     297      POPC     O22      OBL     -0.630000       15.9994           0
     35917 MEMB     297      POPC     C22      CTL2    -0.220000       12.0110           0
     35918 MEMB     297      POPC     H2R      HAL2     0.900000E-01   1.00800           0
     35919 MEMB     297      POPC     H2S      HAL2     0.900000E-01   1.00800           0
     35920 MEMB     297      POPC     C3       CTL2     0.800000E-01   12.0110           0
     35921 MEMB     297      POPC     HX       HAL2     0.900000E-01   1.00800           0
     35922 MEMB     297      POPC     HY       HAL2     0.900000E-01   1.00800           0
     35923 MEMB     297      POPC     O31      OSL     -0.490000       15.9994           0
     35924 MEMB     297      POPC     C31      CL       0.900000       12.0110           0
     35925 MEMB     297      POPC     O32      OBL     -0.630000       15.9994           0
     35926 MEMB     297      POPC     C32      CTL2    -0.220000       12.0110           0
     35927 MEMB     297      POPC     H2X      HAL2     0.900000E-01   1.00800           0
     35928 MEMB     297      POPC     H2Y      HAL2     0.900000E-01   1.00800           0
     35929 MEMB     297      POPC     C23      CTL2    -0.180000       12.0110           0
     35930 MEMB     297      POPC     H3R      HAL2     0.900000E-01   1.00800           0
     35931 MEMB     297      POPC     H3S      HAL2     0.900000E-01   1.00800           0
     35932 MEMB     297      POPC     C24      CTL2    -0.180000       12.0110           0
     35933 MEMB     297      POPC     H4R      HAL2     0.900000E-01   1.00800           0
     35934 MEMB     297      POPC     H4S      HAL2     0.900000E-01   1.00800           0
     35935 MEMB     297      POPC     C25      CTL2    -0.180000       12.0110           0
     35936 MEMB     297      POPC     H5R      HAL2     0.900000E-01   1.00800           0
     35937 MEMB     297      POPC     H5S      HAL2     0.900000E-01   1.00800           0
     35938 MEMB     297      POPC     C26      CTL2    -0.180000       12.0110           0
     35939 MEMB     297      POPC     H6R      HAL2     0.900000E-01   1.00800           0
     35940 MEMB     297      POPC     H6S      HAL2     0.900000E-01   1.00800           0
     35941 MEMB     297      POPC     C27      CTL2    -0.180000       12.0110           0
     35942 MEMB     297      POPC     H7R      HAL2     0.900000E-01   1.00800           0
     35943 MEMB     297      POPC     H7S      HAL2     0.900000E-01   1.00800           0
     35944 MEMB     297      POPC     C28      CTL2    -0.180000       12.0110           0
     35945 MEMB     297      POPC     H8R      HAL2     0.900000E-01   1.00800           0
     35946 MEMB     297      POPC     H8S      HAL2     0.900000E-01   1.00800           0
     35947 MEMB     297      POPC     C29      CEL1    -0.150000       12.0110           0
     35948 MEMB     297      POPC     H91      HEL1     0.150000       1.00800           0
     35949 MEMB     297      POPC     C210     CEL1    -0.150000       12.0110           0
     35950 MEMB     297      POPC     H101     HEL1     0.150000       1.00800           0
     35951 MEMB     297      POPC     C211     CTL2    -0.180000       12.0110           0
     35952 MEMB     297      POPC     H11R     HAL2     0.900000E-01   1.00800           0
     35953 MEMB     297      POPC     H11S     HAL2     0.900000E-01   1.00800           0
     35954 MEMB     297      POPC     C212     CTL2    -0.180000       12.0110           0
     35955 MEMB     297      POPC     H12R     HAL2     0.900000E-01   1.00800           0
     35956 MEMB     297      POPC     H12S     HAL2     0.900000E-01   1.00800           0
     35957 MEMB     297      POPC     C213     CTL2    -0.180000       12.0110           0
     35958 MEMB     297      POPC     H13R     HAL2     0.900000E-01   1.00800           0
     35959 MEMB     297      POPC     H13S     HAL2     0.900000E-01   1.00800           0
     35960 MEMB     297      POPC     C214     CTL2    -0.180000       12.0110           0
     35961 MEMB     297      POPC     H14R     HAL2     0.900000E-01   1.00800           0
     35962 MEMB     297      POPC     H14S     HAL2     0.900000E-01   1.00800           0
     35963 MEMB     297      POPC     C215     CTL2    -0.180000       12.0110           0
     35964 MEMB     297      POPC     H15R     HAL2     0.900000E-01   1.00800           0
     35965 MEMB     297      POPC     H15S     HAL2     0.900000E-01   1.00800           0
     35966 MEMB     297      POPC     C216     CTL2    -0.180000       12.0110           0
     35967 MEMB     297      POPC     H16R     HAL2     0.900000E-01   1.00800           0
     35968 MEMB     297      POPC     H16S     HAL2     0.900000E-01   1.00800           0
     35969 MEMB     297      POPC     C217     CTL2    -0.180000       12.0110           0
     35970 MEMB     297      POPC     H17R     HAL2     0.900000E-01   1.00800           0
     35971 MEMB     297      POPC     H17S     HAL2     0.900000E-01   1.00800           0
     35972 MEMB     297      POPC     C218     CTL3    -0.270000       12.0110           0
     35973 MEMB     297      POPC     H18R     HAL3     0.900000E-01   1.00800           0
     35974 MEMB     297      POPC     H18S     HAL3     0.900000E-01   1.00800           0
     35975 MEMB     297      POPC     H18T     HAL3     0.900000E-01   1.00800           0
     35976 MEMB     297      POPC     C33      CTL2    -0.180000       12.0110           0
     35977 MEMB     297      POPC     H3X      HAL2     0.900000E-01   1.00800           0
     35978 MEMB     297      POPC     H3Y      HAL2     0.900000E-01   1.00800           0
     35979 MEMB     297      POPC     C34      CTL2    -0.180000       12.0110           0
     35980 MEMB     297      POPC     H4X      HAL2     0.900000E-01   1.00800           0
     35981 MEMB     297      POPC     H4Y      HAL2     0.900000E-01   1.00800           0
     35982 MEMB     297      POPC     C35      CTL2    -0.180000       12.0110           0
     35983 MEMB     297      POPC     H5X      HAL2     0.900000E-01   1.00800           0
     35984 MEMB     297      POPC     H5Y      HAL2     0.900000E-01   1.00800           0
     35985 MEMB     297      POPC     C36      CTL2    -0.180000       12.0110           0
     35986 MEMB     297      POPC     H6X      HAL2     0.900000E-01   1.00800           0
     35987 MEMB     297      POPC     H6Y      HAL2     0.900000E-01   1.00800           0
     35988 MEMB     297      POPC     C37      CTL2    -0.180000       12.0110           0
     35989 MEMB     297      POPC     H7X      HAL2     0.900000E-01   1.00800           0
     35990 MEMB     297      POPC     H7Y      HAL2     0.900000E-01   1.00800           0
     35991 MEMB     297      POPC     C38      CTL2    -0.180000       12.0110           0
     35992 MEMB     297      POPC     H8X      HAL2     0.900000E-01   1.00800           0
     35993 MEMB     297      POPC     H8Y      HAL2     0.900000E-01   1.00800           0
     35994 MEMB     297      POPC     C39      CTL2    -0.180000       12.0110           0
     35995 MEMB     297      POPC     H9X      HAL2     0.900000E-01   1.00800           0
     35996 MEMB     297      POPC     H9Y      HAL2     0.900000E-01   1.00800           0
     35997 MEMB     297      POPC     C310     CTL2    -0.180000       12.0110           0
     35998 MEMB     297      POPC     H10X     HAL2     0.900000E-01   1.00800           0
     35999 MEMB     297      POPC     H10Y     HAL2     0.900000E-01   1.00800           0
     36000 MEMB     297      POPC     C311     CTL2    -0.180000       12.0110           0
     36001 MEMB     297      POPC     H11X     HAL2     0.900000E-01   1.00800           0
     36002 MEMB     297      POPC     H11Y     HAL2     0.900000E-01   1.00800           0
     36003 MEMB     297      POPC     C312     CTL2    -0.180000       12.0110           0
     36004 MEMB     297      POPC     H12X     HAL2     0.900000E-01   1.00800           0
     36005 MEMB     297      POPC     H12Y     HAL2     0.900000E-01   1.00800           0
     36006 MEMB     297      POPC     C313     CTL2    -0.180000       12.0110           0
     36007 MEMB     297      POPC     H13X     HAL2     0.900000E-01   1.00800           0
     36008 MEMB     297      POPC     H13Y     HAL2     0.900000E-01   1.00800           0
     36009 MEMB     297      POPC     C314     CTL2    -0.180000       12.0110           0
     36010 MEMB     297      POPC     H14X     HAL2     0.900000E-01   1.00800           0
     36011 MEMB     297      POPC     H14Y     HAL2     0.900000E-01   1.00800           0
     36012 MEMB     297      POPC     C315     CTL2    -0.180000       12.0110           0
     36013 MEMB     297      POPC     H15X     HAL2     0.900000E-01   1.00800           0
     36014 MEMB     297      POPC     H15Y     HAL2     0.900000E-01   1.00800           0
     36015 MEMB     297      POPC     C316     CTL3    -0.270000       12.0110           0
     36016 MEMB     297      POPC     H16X     HAL3     0.900000E-01   1.00800           0
     36017 MEMB     297      POPC     H16Y     HAL3     0.900000E-01   1.00800           0
     36018 MEMB     297      POPC     H16Z     HAL3     0.900000E-01   1.00800           0
     36019 MEMB     298      POPC     N        NTL     -0.600000       14.0070           0
     36020 MEMB     298      POPC     C12      CTL2    -0.100000       12.0110           0
     36021 MEMB     298      POPC     H12A     HL       0.250000       1.00800           0
     36022 MEMB     298      POPC     H12B     HL       0.250000       1.00800           0
     36023 MEMB     298      POPC     C13      CTL5    -0.350000       12.0110           0
     36024 MEMB     298      POPC     H13A     HL       0.250000       1.00800           0
     36025 MEMB     298      POPC     H13B     HL       0.250000       1.00800           0
     36026 MEMB     298      POPC     H13C     HL       0.250000       1.00800           0
     36027 MEMB     298      POPC     C14      CTL5    -0.350000       12.0110           0
     36028 MEMB     298      POPC     H14A     HL       0.250000       1.00800           0
     36029 MEMB     298      POPC     H14B     HL       0.250000       1.00800           0
     36030 MEMB     298      POPC     H14C     HL       0.250000       1.00800           0
     36031 MEMB     298      POPC     C15      CTL5    -0.350000       12.0110           0
     36032 MEMB     298      POPC     H15A     HL       0.250000       1.00800           0
     36033 MEMB     298      POPC     H15B     HL       0.250000       1.00800           0
     36034 MEMB     298      POPC     H15C     HL       0.250000       1.00800           0
     36035 MEMB     298      POPC     C11      CTL2    -0.800000E-01   12.0110           0
     36036 MEMB     298      POPC     H11A     HAL2     0.900000E-01   1.00800           0
     36037 MEMB     298      POPC     H11B     HAL2     0.900000E-01   1.00800           0
     36038 MEMB     298      POPC     P        PL        1.50000       30.9740           0
     36039 MEMB     298      POPC     O13      O2L     -0.780000       15.9994           0
     36040 MEMB     298      POPC     O14      O2L     -0.780000       15.9994           0
     36041 MEMB     298      POPC     O12      OSLP    -0.570000       15.9994           0
     36042 MEMB     298      POPC     O11      OSLP    -0.570000       15.9994           0
     36043 MEMB     298      POPC     C1       CTL2    -0.800000E-01   12.0110           0
     36044 MEMB     298      POPC     HA       HAL2     0.900000E-01   1.00800           0
     36045 MEMB     298      POPC     HB       HAL2     0.900000E-01   1.00800           0
     36046 MEMB     298      POPC     C2       CTL1     0.170000       12.0110           0
     36047 MEMB     298      POPC     HS       HAL1     0.900000E-01   1.00800           0
     36048 MEMB     298      POPC     O21      OSL     -0.490000       15.9994           0
     36049 MEMB     298      POPC     C21      CL       0.900000       12.0110           0
     36050 MEMB     298      POPC     O22      OBL     -0.630000       15.9994           0
     36051 MEMB     298      POPC     C22      CTL2    -0.220000       12.0110           0
     36052 MEMB     298      POPC     H2R      HAL2     0.900000E-01   1.00800           0
     36053 MEMB     298      POPC     H2S      HAL2     0.900000E-01   1.00800           0
     36054 MEMB     298      POPC     C3       CTL2     0.800000E-01   12.0110           0
     36055 MEMB     298      POPC     HX       HAL2     0.900000E-01   1.00800           0
     36056 MEMB     298      POPC     HY       HAL2     0.900000E-01   1.00800           0
     36057 MEMB     298      POPC     O31      OSL     -0.490000       15.9994           0
     36058 MEMB     298      POPC     C31      CL       0.900000       12.0110           0
     36059 MEMB     298      POPC     O32      OBL     -0.630000       15.9994           0
     36060 MEMB     298      POPC     C32      CTL2    -0.220000       12.0110           0
     36061 MEMB     298      POPC     H2X      HAL2     0.900000E-01   1.00800           0
     36062 MEMB     298      POPC     H2Y      HAL2     0.900000E-01   1.00800           0
     36063 MEMB     298      POPC     C23      CTL2    -0.180000       12.0110           0
     36064 MEMB     298      POPC     H3R      HAL2     0.900000E-01   1.00800           0
     36065 MEMB     298      POPC     H3S      HAL2     0.900000E-01   1.00800           0
     36066 MEMB     298      POPC     C24      CTL2    -0.180000       12.0110           0
     36067 MEMB     298      POPC     H4R      HAL2     0.900000E-01   1.00800           0
     36068 MEMB     298      POPC     H4S      HAL2     0.900000E-01   1.00800           0
     36069 MEMB     298      POPC     C25      CTL2    -0.180000       12.0110           0
     36070 MEMB     298      POPC     H5R      HAL2     0.900000E-01   1.00800           0
     36071 MEMB     298      POPC     H5S      HAL2     0.900000E-01   1.00800           0
     36072 MEMB     298      POPC     C26      CTL2    -0.180000       12.0110           0
     36073 MEMB     298      POPC     H6R      HAL2     0.900000E-01   1.00800           0
     36074 MEMB     298      POPC     H6S      HAL2     0.900000E-01   1.00800           0
     36075 MEMB     298      POPC     C27      CTL2    -0.180000       12.0110           0
     36076 MEMB     298      POPC     H7R      HAL2     0.900000E-01   1.00800           0
     36077 MEMB     298      POPC     H7S      HAL2     0.900000E-01   1.00800           0
     36078 MEMB     298      POPC     C28      CTL2    -0.180000       12.0110           0
     36079 MEMB     298      POPC     H8R      HAL2     0.900000E-01   1.00800           0
     36080 MEMB     298      POPC     H8S      HAL2     0.900000E-01   1.00800           0
     36081 MEMB     298      POPC     C29      CEL1    -0.150000       12.0110           0
     36082 MEMB     298      POPC     H91      HEL1     0.150000       1.00800           0
     36083 MEMB     298      POPC     C210     CEL1    -0.150000       12.0110           0
     36084 MEMB     298      POPC     H101     HEL1     0.150000       1.00800           0
     36085 MEMB     298      POPC     C211     CTL2    -0.180000       12.0110           0
     36086 MEMB     298      POPC     H11R     HAL2     0.900000E-01   1.00800           0
     36087 MEMB     298      POPC     H11S     HAL2     0.900000E-01   1.00800           0
     36088 MEMB     298      POPC     C212     CTL2    -0.180000       12.0110           0
     36089 MEMB     298      POPC     H12R     HAL2     0.900000E-01   1.00800           0
     36090 MEMB     298      POPC     H12S     HAL2     0.900000E-01   1.00800           0
     36091 MEMB     298      POPC     C213     CTL2    -0.180000       12.0110           0
     36092 MEMB     298      POPC     H13R     HAL2     0.900000E-01   1.00800           0
     36093 MEMB     298      POPC     H13S     HAL2     0.900000E-01   1.00800           0
     36094 MEMB     298      POPC     C214     CTL2    -0.180000       12.0110           0
     36095 MEMB     298      POPC     H14R     HAL2     0.900000E-01   1.00800           0
     36096 MEMB     298      POPC     H14S     HAL2     0.900000E-01   1.00800           0
     36097 MEMB     298      POPC     C215     CTL2    -0.180000       12.0110           0
     36098 MEMB     298      POPC     H15R     HAL2     0.900000E-01   1.00800           0
     36099 MEMB     298      POPC     H15S     HAL2     0.900000E-01   1.00800           0
     36100 MEMB     298      POPC     C216     CTL2    -0.180000       12.0110           0
     36101 MEMB     298      POPC     H16R     HAL2     0.900000E-01   1.00800           0
     36102 MEMB     298      POPC     H16S     HAL2     0.900000E-01   1.00800           0
     36103 MEMB     298      POPC     C217     CTL2    -0.180000       12.0110           0
     36104 MEMB     298      POPC     H17R     HAL2     0.900000E-01   1.00800           0
     36105 MEMB     298      POPC     H17S     HAL2     0.900000E-01   1.00800           0
     36106 MEMB     298      POPC     C218     CTL3    -0.270000       12.0110           0
     36107 MEMB     298      POPC     H18R     HAL3     0.900000E-01   1.00800           0
     36108 MEMB     298      POPC     H18S     HAL3     0.900000E-01   1.00800           0
     36109 MEMB     298      POPC     H18T     HAL3     0.900000E-01   1.00800           0
     36110 MEMB     298      POPC     C33      CTL2    -0.180000       12.0110           0
     36111 MEMB     298      POPC     H3X      HAL2     0.900000E-01   1.00800           0
     36112 MEMB     298      POPC     H3Y      HAL2     0.900000E-01   1.00800           0
     36113 MEMB     298      POPC     C34      CTL2    -0.180000       12.0110           0
     36114 MEMB     298      POPC     H4X      HAL2     0.900000E-01   1.00800           0
     36115 MEMB     298      POPC     H4Y      HAL2     0.900000E-01   1.00800           0
     36116 MEMB     298      POPC     C35      CTL2    -0.180000       12.0110           0
     36117 MEMB     298      POPC     H5X      HAL2     0.900000E-01   1.00800           0
     36118 MEMB     298      POPC     H5Y      HAL2     0.900000E-01   1.00800           0
     36119 MEMB     298      POPC     C36      CTL2    -0.180000       12.0110           0
     36120 MEMB     298      POPC     H6X      HAL2     0.900000E-01   1.00800           0
     36121 MEMB     298      POPC     H6Y      HAL2     0.900000E-01   1.00800           0
     36122 MEMB     298      POPC     C37      CTL2    -0.180000       12.0110           0
     36123 MEMB     298      POPC     H7X      HAL2     0.900000E-01   1.00800           0
     36124 MEMB     298      POPC     H7Y      HAL2     0.900000E-01   1.00800           0
     36125 MEMB     298      POPC     C38      CTL2    -0.180000       12.0110           0
     36126 MEMB     298      POPC     H8X      HAL2     0.900000E-01   1.00800           0
     36127 MEMB     298      POPC     H8Y      HAL2     0.900000E-01   1.00800           0
     36128 MEMB     298      POPC     C39      CTL2    -0.180000       12.0110           0
     36129 MEMB     298      POPC     H9X      HAL2     0.900000E-01   1.00800           0
     36130 MEMB     298      POPC     H9Y      HAL2     0.900000E-01   1.00800           0
     36131 MEMB     298      POPC     C310     CTL2    -0.180000       12.0110           0
     36132 MEMB     298      POPC     H10X     HAL2     0.900000E-01   1.00800           0
     36133 MEMB     298      POPC     H10Y     HAL2     0.900000E-01   1.00800           0
     36134 MEMB     298      POPC     C311     CTL2    -0.180000       12.0110           0
     36135 MEMB     298      POPC     H11X     HAL2     0.900000E-01   1.00800           0
     36136 MEMB     298      POPC     H11Y     HAL2     0.900000E-01   1.00800           0
     36137 MEMB     298      POPC     C312     CTL2    -0.180000       12.0110           0
     36138 MEMB     298      POPC     H12X     HAL2     0.900000E-01   1.00800           0
     36139 MEMB     298      POPC     H12Y     HAL2     0.900000E-01   1.00800           0
     36140 MEMB     298      POPC     C313     CTL2    -0.180000       12.0110           0
     36141 MEMB     298      POPC     H13X     HAL2     0.900000E-01   1.00800           0
     36142 MEMB     298      POPC     H13Y     HAL2     0.900000E-01   1.00800           0
     36143 MEMB     298      POPC     C314     CTL2    -0.180000       12.0110           0
     36144 MEMB     298      POPC     H14X     HAL2     0.900000E-01   1.00800           0
     36145 MEMB     298      POPC     H14Y     HAL2     0.900000E-01   1.00800           0
     36146 MEMB     298      POPC     C315     CTL2    -0.180000       12.0110           0
     36147 MEMB     298      POPC     H15X     HAL2     0.900000E-01   1.00800           0
     36148 MEMB     298      POPC     H15Y     HAL2     0.900000E-01   1.00800           0
     36149 MEMB     298      POPC     C316     CTL3    -0.270000       12.0110           0
     36150 MEMB     298      POPC     H16X     HAL3     0.900000E-01   1.00800           0
     36151 MEMB     298      POPC     H16Y     HAL3     0.900000E-01   1.00800           0
     36152 MEMB     298      POPC     H16Z     HAL3     0.900000E-01   1.00800           0
     36153 MEMB     299      POPC     N        NTL     -0.600000       14.0070           0
     36154 MEMB     299      POPC     C12      CTL2    -0.100000       12.0110           0
     36155 MEMB     299      POPC     H12A     HL       0.250000       1.00800           0
     36156 MEMB     299      POPC     H12B     HL       0.250000       1.00800           0
     36157 MEMB     299      POPC     C13      CTL5    -0.350000       12.0110           0
     36158 MEMB     299      POPC     H13A     HL       0.250000       1.00800           0
     36159 MEMB     299      POPC     H13B     HL       0.250000       1.00800           0
     36160 MEMB     299      POPC     H13C     HL       0.250000       1.00800           0
     36161 MEMB     299      POPC     C14      CTL5    -0.350000       12.0110           0
     36162 MEMB     299      POPC     H14A     HL       0.250000       1.00800           0
     36163 MEMB     299      POPC     H14B     HL       0.250000       1.00800           0
     36164 MEMB     299      POPC     H14C     HL       0.250000       1.00800           0
     36165 MEMB     299      POPC     C15      CTL5    -0.350000       12.0110           0
     36166 MEMB     299      POPC     H15A     HL       0.250000       1.00800           0
     36167 MEMB     299      POPC     H15B     HL       0.250000       1.00800           0
     36168 MEMB     299      POPC     H15C     HL       0.250000       1.00800           0
     36169 MEMB     299      POPC     C11      CTL2    -0.800000E-01   12.0110           0
     36170 MEMB     299      POPC     H11A     HAL2     0.900000E-01   1.00800           0
     36171 MEMB     299      POPC     H11B     HAL2     0.900000E-01   1.00800           0
     36172 MEMB     299      POPC     P        PL        1.50000       30.9740           0
     36173 MEMB     299      POPC     O13      O2L     -0.780000       15.9994           0
     36174 MEMB     299      POPC     O14      O2L     -0.780000       15.9994           0
     36175 MEMB     299      POPC     O12      OSLP    -0.570000       15.9994           0
     36176 MEMB     299      POPC     O11      OSLP    -0.570000       15.9994           0
     36177 MEMB     299      POPC     C1       CTL2    -0.800000E-01   12.0110           0
     36178 MEMB     299      POPC     HA       HAL2     0.900000E-01   1.00800           0
     36179 MEMB     299      POPC     HB       HAL2     0.900000E-01   1.00800           0
     36180 MEMB     299      POPC     C2       CTL1     0.170000       12.0110           0
     36181 MEMB     299      POPC     HS       HAL1     0.900000E-01   1.00800           0
     36182 MEMB     299      POPC     O21      OSL     -0.490000       15.9994           0
     36183 MEMB     299      POPC     C21      CL       0.900000       12.0110           0
     36184 MEMB     299      POPC     O22      OBL     -0.630000       15.9994           0
     36185 MEMB     299      POPC     C22      CTL2    -0.220000       12.0110           0
     36186 MEMB     299      POPC     H2R      HAL2     0.900000E-01   1.00800           0
     36187 MEMB     299      POPC     H2S      HAL2     0.900000E-01   1.00800           0
     36188 MEMB     299      POPC     C3       CTL2     0.800000E-01   12.0110           0
     36189 MEMB     299      POPC     HX       HAL2     0.900000E-01   1.00800           0
     36190 MEMB     299      POPC     HY       HAL2     0.900000E-01   1.00800           0
     36191 MEMB     299      POPC     O31      OSL     -0.490000       15.9994           0
     36192 MEMB     299      POPC     C31      CL       0.900000       12.0110           0
     36193 MEMB     299      POPC     O32      OBL     -0.630000       15.9994           0
     36194 MEMB     299      POPC     C32      CTL2    -0.220000       12.0110           0
     36195 MEMB     299      POPC     H2X      HAL2     0.900000E-01   1.00800           0
     36196 MEMB     299      POPC     H2Y      HAL2     0.900000E-01   1.00800           0
     36197 MEMB     299      POPC     C23      CTL2    -0.180000       12.0110           0
     36198 MEMB     299      POPC     H3R      HAL2     0.900000E-01   1.00800           0
     36199 MEMB     299      POPC     H3S      HAL2     0.900000E-01   1.00800           0
     36200 MEMB     299      POPC     C24      CTL2    -0.180000       12.0110           0
     36201 MEMB     299      POPC     H4R      HAL2     0.900000E-01   1.00800           0
     36202 MEMB     299      POPC     H4S      HAL2     0.900000E-01   1.00800           0
     36203 MEMB     299      POPC     C25      CTL2    -0.180000       12.0110           0
     36204 MEMB     299      POPC     H5R      HAL2     0.900000E-01   1.00800           0
     36205 MEMB     299      POPC     H5S      HAL2     0.900000E-01   1.00800           0
     36206 MEMB     299      POPC     C26      CTL2    -0.180000       12.0110           0
     36207 MEMB     299      POPC     H6R      HAL2     0.900000E-01   1.00800           0
     36208 MEMB     299      POPC     H6S      HAL2     0.900000E-01   1.00800           0
     36209 MEMB     299      POPC     C27      CTL2    -0.180000       12.0110           0
     36210 MEMB     299      POPC     H7R      HAL2     0.900000E-01   1.00800           0
     36211 MEMB     299      POPC     H7S      HAL2     0.900000E-01   1.00800           0
     36212 MEMB     299      POPC     C28      CTL2    -0.180000       12.0110           0
     36213 MEMB     299      POPC     H8R      HAL2     0.900000E-01   1.00800           0
     36214 MEMB     299      POPC     H8S      HAL2     0.900000E-01   1.00800           0
     36215 MEMB     299      POPC     C29      CEL1    -0.150000       12.0110           0
     36216 MEMB     299      POPC     H91      HEL1     0.150000       1.00800           0
     36217 MEMB     299      POPC     C210     CEL1    -0.150000       12.0110           0
     36218 MEMB     299      POPC     H101     HEL1     0.150000       1.00800           0
     36219 MEMB     299      POPC     C211     CTL2    -0.180000       12.0110           0
     36220 MEMB     299      POPC     H11R     HAL2     0.900000E-01   1.00800           0
     36221 MEMB     299      POPC     H11S     HAL2     0.900000E-01   1.00800           0
     36222 MEMB     299      POPC     C212     CTL2    -0.180000       12.0110           0
     36223 MEMB     299      POPC     H12R     HAL2     0.900000E-01   1.00800           0
     36224 MEMB     299      POPC     H12S     HAL2     0.900000E-01   1.00800           0
     36225 MEMB     299      POPC     C213     CTL2    -0.180000       12.0110           0
     36226 MEMB     299      POPC     H13R     HAL2     0.900000E-01   1.00800           0
     36227 MEMB     299      POPC     H13S     HAL2     0.900000E-01   1.00800           0
     36228 MEMB     299      POPC     C214     CTL2    -0.180000       12.0110           0
     36229 MEMB     299      POPC     H14R     HAL2     0.900000E-01   1.00800           0
     36230 MEMB     299      POPC     H14S     HAL2     0.900000E-01   1.00800           0
     36231 MEMB     299      POPC     C215     CTL2    -0.180000       12.0110           0
     36232 MEMB     299      POPC     H15R     HAL2     0.900000E-01   1.00800           0
     36233 MEMB     299      POPC     H15S     HAL2     0.900000E-01   1.00800           0
     36234 MEMB     299      POPC     C216     CTL2    -0.180000       12.0110           0
     36235 MEMB     299      POPC     H16R     HAL2     0.900000E-01   1.00800           0
     36236 MEMB     299      POPC     H16S     HAL2     0.900000E-01   1.00800           0
     36237 MEMB     299      POPC     C217     CTL2    -0.180000       12.0110           0
     36238 MEMB     299      POPC     H17R     HAL2     0.900000E-01   1.00800           0
     36239 MEMB     299      POPC     H17S     HAL2     0.900000E-01   1.00800           0
     36240 MEMB     299      POPC     C218     CTL3    -0.270000       12.0110           0
     36241 MEMB     299      POPC     H18R     HAL3     0.900000E-01   1.00800           0
     36242 MEMB     299      POPC     H18S     HAL3     0.900000E-01   1.00800           0
     36243 MEMB     299      POPC     H18T     HAL3     0.900000E-01   1.00800           0
     36244 MEMB     299      POPC     C33      CTL2    -0.180000       12.0110           0
     36245 MEMB     299      POPC     H3X      HAL2     0.900000E-01   1.00800           0
     36246 MEMB     299      POPC     H3Y      HAL2     0.900000E-01   1.00800           0
     36247 MEMB     299      POPC     C34      CTL2    -0.180000       12.0110           0
     36248 MEMB     299      POPC     H4X      HAL2     0.900000E-01   1.00800           0
     36249 MEMB     299      POPC     H4Y      HAL2     0.900000E-01   1.00800           0
     36250 MEMB     299      POPC     C35      CTL2    -0.180000       12.0110           0
     36251 MEMB     299      POPC     H5X      HAL2     0.900000E-01   1.00800           0
     36252 MEMB     299      POPC     H5Y      HAL2     0.900000E-01   1.00800           0
     36253 MEMB     299      POPC     C36      CTL2    -0.180000       12.0110           0
     36254 MEMB     299      POPC     H6X      HAL2     0.900000E-01   1.00800           0
     36255 MEMB     299      POPC     H6Y      HAL2     0.900000E-01   1.00800           0
     36256 MEMB     299      POPC     C37      CTL2    -0.180000       12.0110           0
     36257 MEMB     299      POPC     H7X      HAL2     0.900000E-01   1.00800           0
     36258 MEMB     299      POPC     H7Y      HAL2     0.900000E-01   1.00800           0
     36259 MEMB     299      POPC     C38      CTL2    -0.180000       12.0110           0
     36260 MEMB     299      POPC     H8X      HAL2     0.900000E-01   1.00800           0
     36261 MEMB     299      POPC     H8Y      HAL2     0.900000E-01   1.00800           0
     36262 MEMB     299      POPC     C39      CTL2    -0.180000       12.0110           0
     36263 MEMB     299      POPC     H9X      HAL2     0.900000E-01   1.00800           0
     36264 MEMB     299      POPC     H9Y      HAL2     0.900000E-01   1.00800           0
     36265 MEMB     299      POPC     C310     CTL2    -0.180000       12.0110           0
     36266 MEMB     299      POPC     H10X     HAL2     0.900000E-01   1.00800           0
     36267 MEMB     299      POPC     H10Y     HAL2     0.900000E-01   1.00800           0
     36268 MEMB     299      POPC     C311     CTL2    -0.180000       12.0110           0
     36269 MEMB     299      POPC     H11X     HAL2     0.900000E-01   1.00800           0
     36270 MEMB     299      POPC     H11Y     HAL2     0.900000E-01   1.00800           0
     36271 MEMB     299      POPC     C312     CTL2    -0.180000       12.0110           0
     36272 MEMB     299      POPC     H12X     HAL2     0.900000E-01   1.00800           0
     36273 MEMB     299      POPC     H12Y     HAL2     0.900000E-01   1.00800           0
     36274 MEMB     299      POPC     C313     CTL2    -0.180000       12.0110           0
     36275 MEMB     299      POPC     H13X     HAL2     0.900000E-01   1.00800           0
     36276 MEMB     299      POPC     H13Y     HAL2     0.900000E-01   1.00800           0
     36277 MEMB     299      POPC     C314     CTL2    -0.180000       12.0110           0
     36278 MEMB     299      POPC     H14X     HAL2     0.900000E-01   1.00800           0
     36279 MEMB     299      POPC     H14Y     HAL2     0.900000E-01   1.00800           0
     36280 MEMB     299      POPC     C315     CTL2    -0.180000       12.0110           0
     36281 MEMB     299      POPC     H15X     HAL2     0.900000E-01   1.00800           0
     36282 MEMB     299      POPC     H15Y     HAL2     0.900000E-01   1.00800           0
     36283 MEMB     299      POPC     C316     CTL3    -0.270000       12.0110           0
     36284 MEMB     299      POPC     H16X     HAL3     0.900000E-01   1.00800           0
     36285 MEMB     299      POPC     H16Y     HAL3     0.900000E-01   1.00800           0
     36286 MEMB     299      POPC     H16Z     HAL3     0.900000E-01   1.00800           0
     36287 MEMB     300      POPC     N        NTL     -0.600000       14.0070           0
     36288 MEMB     300      POPC     C12      CTL2    -0.100000       12.0110           0
     36289 MEMB     300      POPC     H12A     HL       0.250000       1.00800           0
     36290 MEMB     300      POPC     H12B     HL       0.250000       1.00800           0
     36291 MEMB     300      POPC     C13      CTL5    -0.350000       12.0110           0
     36292 MEMB     300      POPC     H13A     HL       0.250000       1.00800           0
     36293 MEMB     300      POPC     H13B     HL       0.250000       1.00800           0
     36294 MEMB     300      POPC     H13C     HL       0.250000       1.00800           0
     36295 MEMB     300      POPC     C14      CTL5    -0.350000       12.0110           0
     36296 MEMB     300      POPC     H14A     HL       0.250000       1.00800           0
     36297 MEMB     300      POPC     H14B     HL       0.250000       1.00800           0
     36298 MEMB     300      POPC     H14C     HL       0.250000       1.00800           0
     36299 MEMB     300      POPC     C15      CTL5    -0.350000       12.0110           0
     36300 MEMB     300      POPC     H15A     HL       0.250000       1.00800           0
     36301 MEMB     300      POPC     H15B     HL       0.250000       1.00800           0
     36302 MEMB     300      POPC     H15C     HL       0.250000       1.00800           0
     36303 MEMB     300      POPC     C11      CTL2    -0.800000E-01   12.0110           0
     36304 MEMB     300      POPC     H11A     HAL2     0.900000E-01   1.00800           0
     36305 MEMB     300      POPC     H11B     HAL2     0.900000E-01   1.00800           0
     36306 MEMB     300      POPC     P        PL        1.50000       30.9740           0
     36307 MEMB     300      POPC     O13      O2L     -0.780000       15.9994           0
     36308 MEMB     300      POPC     O14      O2L     -0.780000       15.9994           0
     36309 MEMB     300      POPC     O12      OSLP    -0.570000       15.9994           0
     36310 MEMB     300      POPC     O11      OSLP    -0.570000       15.9994           0
     36311 MEMB     300      POPC     C1       CTL2    -0.800000E-01   12.0110           0
     36312 MEMB     300      POPC     HA       HAL2     0.900000E-01   1.00800           0
     36313 MEMB     300      POPC     HB       HAL2     0.900000E-01   1.00800           0
     36314 MEMB     300      POPC     C2       CTL1     0.170000       12.0110           0
     36315 MEMB     300      POPC     HS       HAL1     0.900000E-01   1.00800           0
     36316 MEMB     300      POPC     O21      OSL     -0.490000       15.9994           0
     36317 MEMB     300      POPC     C21      CL       0.900000       12.0110           0
     36318 MEMB     300      POPC     O22      OBL     -0.630000       15.9994           0
     36319 MEMB     300      POPC     C22      CTL2    -0.220000       12.0110           0
     36320 MEMB     300      POPC     H2R      HAL2     0.900000E-01   1.00800           0
     36321 MEMB     300      POPC     H2S      HAL2     0.900000E-01   1.00800           0
     36322 MEMB     300      POPC     C3       CTL2     0.800000E-01   12.0110           0
     36323 MEMB     300      POPC     HX       HAL2     0.900000E-01   1.00800           0
     36324 MEMB     300      POPC     HY       HAL2     0.900000E-01   1.00800           0
     36325 MEMB     300      POPC     O31      OSL     -0.490000       15.9994           0
     36326 MEMB     300      POPC     C31      CL       0.900000       12.0110           0
     36327 MEMB     300      POPC     O32      OBL     -0.630000       15.9994           0
     36328 MEMB     300      POPC     C32      CTL2    -0.220000       12.0110           0
     36329 MEMB     300      POPC     H2X      HAL2     0.900000E-01   1.00800           0
     36330 MEMB     300      POPC     H2Y      HAL2     0.900000E-01   1.00800           0
     36331 MEMB     300      POPC     C23      CTL2    -0.180000       12.0110           0
     36332 MEMB     300      POPC     H3R      HAL2     0.900000E-01   1.00800           0
     36333 MEMB     300      POPC     H3S      HAL2     0.900000E-01   1.00800           0
     36334 MEMB     300      POPC     C24      CTL2    -0.180000       12.0110           0
     36335 MEMB     300      POPC     H4R      HAL2     0.900000E-01   1.00800           0
     36336 MEMB     300      POPC     H4S      HAL2     0.900000E-01   1.00800           0
     36337 MEMB     300      POPC     C25      CTL2    -0.180000       12.0110           0
     36338 MEMB     300      POPC     H5R      HAL2     0.900000E-01   1.00800           0
     36339 MEMB     300      POPC     H5S      HAL2     0.900000E-01   1.00800           0
     36340 MEMB     300      POPC     C26      CTL2    -0.180000       12.0110           0
     36341 MEMB     300      POPC     H6R      HAL2     0.900000E-01   1.00800           0
     36342 MEMB     300      POPC     H6S      HAL2     0.900000E-01   1.00800           0
     36343 MEMB     300      POPC     C27      CTL2    -0.180000       12.0110           0
     36344 MEMB     300      POPC     H7R      HAL2     0.900000E-01   1.00800           0
     36345 MEMB     300      POPC     H7S      HAL2     0.900000E-01   1.00800           0
     36346 MEMB     300      POPC     C28      CTL2    -0.180000       12.0110           0
     36347 MEMB     300      POPC     H8R      HAL2     0.900000E-01   1.00800           0
     36348 MEMB     300      POPC     H8S      HAL2     0.900000E-01   1.00800           0
     36349 MEMB     300      POPC     C29      CEL1    -0.150000       12.0110           0
     36350 MEMB     300      POPC     H91      HEL1     0.150000       1.00800           0
     36351 MEMB     300      POPC     C210     CEL1    -0.150000       12.0110           0
     36352 MEMB     300      POPC     H101     HEL1     0.150000       1.00800           0
     36353 MEMB     300      POPC     C211     CTL2    -0.180000       12.0110           0
     36354 MEMB     300      POPC     H11R     HAL2     0.900000E-01   1.00800           0
     36355 MEMB     300      POPC     H11S     HAL2     0.900000E-01   1.00800           0
     36356 MEMB     300      POPC     C212     CTL2    -0.180000       12.0110           0
     36357 MEMB     300      POPC     H12R     HAL2     0.900000E-01   1.00800           0
     36358 MEMB     300      POPC     H12S     HAL2     0.900000E-01   1.00800           0
     36359 MEMB     300      POPC     C213     CTL2    -0.180000       12.0110           0
     36360 MEMB     300      POPC     H13R     HAL2     0.900000E-01   1.00800           0
     36361 MEMB     300      POPC     H13S     HAL2     0.900000E-01   1.00800           0
     36362 MEMB     300      POPC     C214     CTL2    -0.180000       12.0110           0
     36363 MEMB     300      POPC     H14R     HAL2     0.900000E-01   1.00800           0
     36364 MEMB     300      POPC     H14S     HAL2     0.900000E-01   1.00800           0
     36365 MEMB     300      POPC     C215     CTL2    -0.180000       12.0110           0
     36366 MEMB     300      POPC     H15R     HAL2     0.900000E-01   1.00800           0
     36367 MEMB     300      POPC     H15S     HAL2     0.900000E-01   1.00800           0
     36368 MEMB     300      POPC     C216     CTL2    -0.180000       12.0110           0
     36369 MEMB     300      POPC     H16R     HAL2     0.900000E-01   1.00800           0
     36370 MEMB     300      POPC     H16S     HAL2     0.900000E-01   1.00800           0
     36371 MEMB     300      POPC     C217     CTL2    -0.180000       12.0110           0
     36372 MEMB     300      POPC     H17R     HAL2     0.900000E-01   1.00800           0
     36373 MEMB     300      POPC     H17S     HAL2     0.900000E-01   1.00800           0
     36374 MEMB     300      POPC     C218     CTL3    -0.270000       12.0110           0
     36375 MEMB     300      POPC     H18R     HAL3     0.900000E-01   1.00800           0
     36376 MEMB     300      POPC     H18S     HAL3     0.900000E-01   1.00800           0
     36377 MEMB     300      POPC     H18T     HAL3     0.900000E-01   1.00800           0
     36378 MEMB     300      POPC     C33      CTL2    -0.180000       12.0110           0
     36379 MEMB     300      POPC     H3X      HAL2     0.900000E-01   1.00800           0
     36380 MEMB     300      POPC     H3Y      HAL2     0.900000E-01   1.00800           0
     36381 MEMB     300      POPC     C34      CTL2    -0.180000       12.0110           0
     36382 MEMB     300      POPC     H4X      HAL2     0.900000E-01   1.00800           0
     36383 MEMB     300      POPC     H4Y      HAL2     0.900000E-01   1.00800           0
     36384 MEMB     300      POPC     C35      CTL2    -0.180000       12.0110           0
     36385 MEMB     300      POPC     H5X      HAL2     0.900000E-01   1.00800           0
     36386 MEMB     300      POPC     H5Y      HAL2     0.900000E-01   1.00800           0
     36387 MEMB     300      POPC     C36      CTL2    -0.180000       12.0110           0
     36388 MEMB     300      POPC     H6X      HAL2     0.900000E-01   1.00800           0
     36389 MEMB     300      POPC     H6Y      HAL2     0.900000E-01   1.00800           0
     36390 MEMB     300      POPC     C37      CTL2    -0.180000       12.0110           0
     36391 MEMB     300      POPC     H7X      HAL2     0.900000E-01   1.00800           0
     36392 MEMB     300      POPC     H7Y      HAL2     0.900000E-01   1.00800           0
     36393 MEMB     300      POPC     C38      CTL2    -0.180000       12.0110           0
     36394 MEMB     300      POPC     H8X      HAL2     0.900000E-01   1.00800           0
     36395 MEMB     300      POPC     H8Y      HAL2     0.900000E-01   1.00800           0
     36396 MEMB     300      POPC     C39      CTL2    -0.180000       12.0110           0
     36397 MEMB     300      POPC     H9X      HAL2     0.900000E-01   1.00800           0
     36398 MEMB     300      POPC     H9Y      HAL2     0.900000E-01   1.00800           0
     36399 MEMB     300      POPC     C310     CTL2    -0.180000       12.0110           0
     36400 MEMB     300      POPC     H10X     HAL2     0.900000E-01   1.00800           0
     36401 MEMB     300      POPC     H10Y     HAL2     0.900000E-01   1.00800           0
     36402 MEMB     300      POPC     C311     CTL2    -0.180000       12.0110           0
     36403 MEMB     300      POPC     H11X     HAL2     0.900000E-01   1.00800           0
     36404 MEMB     300      POPC     H11Y     HAL2     0.900000E-01   1.00800           0
     36405 MEMB     300      POPC     C312     CTL2    -0.180000       12.0110           0
     36406 MEMB     300      POPC     H12X     HAL2     0.900000E-01   1.00800           0
     36407 MEMB     300      POPC     H12Y     HAL2     0.900000E-01   1.00800           0
     36408 MEMB     300      POPC     C313     CTL2    -0.180000       12.0110           0
     36409 MEMB     300      POPC     H13X     HAL2     0.900000E-01   1.00800           0
     36410 MEMB     300      POPC     H13Y     HAL2     0.900000E-01   1.00800           0
     36411 MEMB     300      POPC     C314     CTL2    -0.180000       12.0110           0
     36412 MEMB     300      POPC     H14X     HAL2     0.900000E-01   1.00800           0
     36413 MEMB     300      POPC     H14Y     HAL2     0.900000E-01   1.00800           0
     36414 MEMB     300      POPC     C315     CTL2    -0.180000       12.0110           0
     36415 MEMB     300      POPC     H15X     HAL2     0.900000E-01   1.00800           0
     36416 MEMB     300      POPC     H15Y     HAL2     0.900000E-01   1.00800           0
     36417 MEMB     300      POPC     C316     CTL3    -0.270000       12.0110           0
     36418 MEMB     300      POPC     H16X     HAL3     0.900000E-01   1.00800           0
     36419 MEMB     300      POPC     H16Y     HAL3     0.900000E-01   1.00800           0
     36420 MEMB     300      POPC     H16Z     HAL3     0.900000E-01   1.00800           0
     36421 MEMB     301      POPC     N        NTL     -0.600000       14.0070           0
     36422 MEMB     301      POPC     C12      CTL2    -0.100000       12.0110           0
     36423 MEMB     301      POPC     H12A     HL       0.250000       1.00800           0
     36424 MEMB     301      POPC     H12B     HL       0.250000       1.00800           0
     36425 MEMB     301      POPC     C13      CTL5    -0.350000       12.0110           0
     36426 MEMB     301      POPC     H13A     HL       0.250000       1.00800           0
     36427 MEMB     301      POPC     H13B     HL       0.250000       1.00800           0
     36428 MEMB     301      POPC     H13C     HL       0.250000       1.00800           0
     36429 MEMB     301      POPC     C14      CTL5    -0.350000       12.0110           0
     36430 MEMB     301      POPC     H14A     HL       0.250000       1.00800           0
     36431 MEMB     301      POPC     H14B     HL       0.250000       1.00800           0
     36432 MEMB     301      POPC     H14C     HL       0.250000       1.00800           0
     36433 MEMB     301      POPC     C15      CTL5    -0.350000       12.0110           0
     36434 MEMB     301      POPC     H15A     HL       0.250000       1.00800           0
     36435 MEMB     301      POPC     H15B     HL       0.250000       1.00800           0
     36436 MEMB     301      POPC     H15C     HL       0.250000       1.00800           0
     36437 MEMB     301      POPC     C11      CTL2    -0.800000E-01   12.0110           0
     36438 MEMB     301      POPC     H11A     HAL2     0.900000E-01   1.00800           0
     36439 MEMB     301      POPC     H11B     HAL2     0.900000E-01   1.00800           0
     36440 MEMB     301      POPC     P        PL        1.50000       30.9740           0
     36441 MEMB     301      POPC     O13      O2L     -0.780000       15.9994           0
     36442 MEMB     301      POPC     O14      O2L     -0.780000       15.9994           0
     36443 MEMB     301      POPC     O12      OSLP    -0.570000       15.9994           0
     36444 MEMB     301      POPC     O11      OSLP    -0.570000       15.9994           0
     36445 MEMB     301      POPC     C1       CTL2    -0.800000E-01   12.0110           0
     36446 MEMB     301      POPC     HA       HAL2     0.900000E-01   1.00800           0
     36447 MEMB     301      POPC     HB       HAL2     0.900000E-01   1.00800           0
     36448 MEMB     301      POPC     C2       CTL1     0.170000       12.0110           0
     36449 MEMB     301      POPC     HS       HAL1     0.900000E-01   1.00800           0
     36450 MEMB     301      POPC     O21      OSL     -0.490000       15.9994           0
     36451 MEMB     301      POPC     C21      CL       0.900000       12.0110           0
     36452 MEMB     301      POPC     O22      OBL     -0.630000       15.9994           0
     36453 MEMB     301      POPC     C22      CTL2    -0.220000       12.0110           0
     36454 MEMB     301      POPC     H2R      HAL2     0.900000E-01   1.00800           0
     36455 MEMB     301      POPC     H2S      HAL2     0.900000E-01   1.00800           0
     36456 MEMB     301      POPC     C3       CTL2     0.800000E-01   12.0110           0
     36457 MEMB     301      POPC     HX       HAL2     0.900000E-01   1.00800           0
     36458 MEMB     301      POPC     HY       HAL2     0.900000E-01   1.00800           0
     36459 MEMB     301      POPC     O31      OSL     -0.490000       15.9994           0
     36460 MEMB     301      POPC     C31      CL       0.900000       12.0110           0
     36461 MEMB     301      POPC     O32      OBL     -0.630000       15.9994           0
     36462 MEMB     301      POPC     C32      CTL2    -0.220000       12.0110           0
     36463 MEMB     301      POPC     H2X      HAL2     0.900000E-01   1.00800           0
     36464 MEMB     301      POPC     H2Y      HAL2     0.900000E-01   1.00800           0
     36465 MEMB     301      POPC     C23      CTL2    -0.180000       12.0110           0
     36466 MEMB     301      POPC     H3R      HAL2     0.900000E-01   1.00800           0
     36467 MEMB     301      POPC     H3S      HAL2     0.900000E-01   1.00800           0
     36468 MEMB     301      POPC     C24      CTL2    -0.180000       12.0110           0
     36469 MEMB     301      POPC     H4R      HAL2     0.900000E-01   1.00800           0
     36470 MEMB     301      POPC     H4S      HAL2     0.900000E-01   1.00800           0
     36471 MEMB     301      POPC     C25      CTL2    -0.180000       12.0110           0
     36472 MEMB     301      POPC     H5R      HAL2     0.900000E-01   1.00800           0
     36473 MEMB     301      POPC     H5S      HAL2     0.900000E-01   1.00800           0
     36474 MEMB     301      POPC     C26      CTL2    -0.180000       12.0110           0
     36475 MEMB     301      POPC     H6R      HAL2     0.900000E-01   1.00800           0
     36476 MEMB     301      POPC     H6S      HAL2     0.900000E-01   1.00800           0
     36477 MEMB     301      POPC     C27      CTL2    -0.180000       12.0110           0
     36478 MEMB     301      POPC     H7R      HAL2     0.900000E-01   1.00800           0
     36479 MEMB     301      POPC     H7S      HAL2     0.900000E-01   1.00800           0
     36480 MEMB     301      POPC     C28      CTL2    -0.180000       12.0110           0
     36481 MEMB     301      POPC     H8R      HAL2     0.900000E-01   1.00800           0
     36482 MEMB     301      POPC     H8S      HAL2     0.900000E-01   1.00800           0
     36483 MEMB     301      POPC     C29      CEL1    -0.150000       12.0110           0
     36484 MEMB     301      POPC     H91      HEL1     0.150000       1.00800           0
     36485 MEMB     301      POPC     C210     CEL1    -0.150000       12.0110           0
     36486 MEMB     301      POPC     H101     HEL1     0.150000       1.00800           0
     36487 MEMB     301      POPC     C211     CTL2    -0.180000       12.0110           0
     36488 MEMB     301      POPC     H11R     HAL2     0.900000E-01   1.00800           0
     36489 MEMB     301      POPC     H11S     HAL2     0.900000E-01   1.00800           0
     36490 MEMB     301      POPC     C212     CTL2    -0.180000       12.0110           0
     36491 MEMB     301      POPC     H12R     HAL2     0.900000E-01   1.00800           0
     36492 MEMB     301      POPC     H12S     HAL2     0.900000E-01   1.00800           0
     36493 MEMB     301      POPC     C213     CTL2    -0.180000       12.0110           0
     36494 MEMB     301      POPC     H13R     HAL2     0.900000E-01   1.00800           0
     36495 MEMB     301      POPC     H13S     HAL2     0.900000E-01   1.00800           0
     36496 MEMB     301      POPC     C214     CTL2    -0.180000       12.0110           0
     36497 MEMB     301      POPC     H14R     HAL2     0.900000E-01   1.00800           0
     36498 MEMB     301      POPC     H14S     HAL2     0.900000E-01   1.00800           0
     36499 MEMB     301      POPC     C215     CTL2    -0.180000       12.0110           0
     36500 MEMB     301      POPC     H15R     HAL2     0.900000E-01   1.00800           0
     36501 MEMB     301      POPC     H15S     HAL2     0.900000E-01   1.00800           0
     36502 MEMB     301      POPC     C216     CTL2    -0.180000       12.0110           0
     36503 MEMB     301      POPC     H16R     HAL2     0.900000E-01   1.00800           0
     36504 MEMB     301      POPC     H16S     HAL2     0.900000E-01   1.00800           0
     36505 MEMB     301      POPC     C217     CTL2    -0.180000       12.0110           0
     36506 MEMB     301      POPC     H17R     HAL2     0.900000E-01   1.00800           0
     36507 MEMB     301      POPC     H17S     HAL2     0.900000E-01   1.00800           0
     36508 MEMB     301      POPC     C218     CTL3    -0.270000       12.0110           0
     36509 MEMB     301      POPC     H18R     HAL3     0.900000E-01   1.00800           0
     36510 MEMB     301      POPC     H18S     HAL3     0.900000E-01   1.00800           0
     36511 MEMB     301      POPC     H18T     HAL3     0.900000E-01   1.00800           0
     36512 MEMB     301      POPC     C33      CTL2    -0.180000       12.0110           0
     36513 MEMB     301      POPC     H3X      HAL2     0.900000E-01   1.00800           0
     36514 MEMB     301      POPC     H3Y      HAL2     0.900000E-01   1.00800           0
     36515 MEMB     301      POPC     C34      CTL2    -0.180000       12.0110           0
     36516 MEMB     301      POPC     H4X      HAL2     0.900000E-01   1.00800           0
     36517 MEMB     301      POPC     H4Y      HAL2     0.900000E-01   1.00800           0
     36518 MEMB     301      POPC     C35      CTL2    -0.180000       12.0110           0
     36519 MEMB     301      POPC     H5X      HAL2     0.900000E-01   1.00800           0
     36520 MEMB     301      POPC     H5Y      HAL2     0.900000E-01   1.00800           0
     36521 MEMB     301      POPC     C36      CTL2    -0.180000       12.0110           0
     36522 MEMB     301      POPC     H6X      HAL2     0.900000E-01   1.00800           0
     36523 MEMB     301      POPC     H6Y      HAL2     0.900000E-01   1.00800           0
     36524 MEMB     301      POPC     C37      CTL2    -0.180000       12.0110           0
     36525 MEMB     301      POPC     H7X      HAL2     0.900000E-01   1.00800           0
     36526 MEMB     301      POPC     H7Y      HAL2     0.900000E-01   1.00800           0
     36527 MEMB     301      POPC     C38      CTL2    -0.180000       12.0110           0
     36528 MEMB     301      POPC     H8X      HAL2     0.900000E-01   1.00800           0
     36529 MEMB     301      POPC     H8Y      HAL2     0.900000E-01   1.00800           0
     36530 MEMB     301      POPC     C39      CTL2    -0.180000       12.0110           0
     36531 MEMB     301      POPC     H9X      HAL2     0.900000E-01   1.00800           0
     36532 MEMB     301      POPC     H9Y      HAL2     0.900000E-01   1.00800           0
     36533 MEMB     301      POPC     C310     CTL2    -0.180000       12.0110           0
     36534 MEMB     301      POPC     H10X     HAL2     0.900000E-01   1.00800           0
     36535 MEMB     301      POPC     H10Y     HAL2     0.900000E-01   1.00800           0
     36536 MEMB     301      POPC     C311     CTL2    -0.180000       12.0110           0
     36537 MEMB     301      POPC     H11X     HAL2     0.900000E-01   1.00800           0
     36538 MEMB     301      POPC     H11Y     HAL2     0.900000E-01   1.00800           0
     36539 MEMB     301      POPC     C312     CTL2    -0.180000       12.0110           0
     36540 MEMB     301      POPC     H12X     HAL2     0.900000E-01   1.00800           0
     36541 MEMB     301      POPC     H12Y     HAL2     0.900000E-01   1.00800           0
     36542 MEMB     301      POPC     C313     CTL2    -0.180000       12.0110           0
     36543 MEMB     301      POPC     H13X     HAL2     0.900000E-01   1.00800           0
     36544 MEMB     301      POPC     H13Y     HAL2     0.900000E-01   1.00800           0
     36545 MEMB     301      POPC     C314     CTL2    -0.180000       12.0110           0
     36546 MEMB     301      POPC     H14X     HAL2     0.900000E-01   1.00800           0
     36547 MEMB     301      POPC     H14Y     HAL2     0.900000E-01   1.00800           0
     36548 MEMB     301      POPC     C315     CTL2    -0.180000       12.0110           0
     36549 MEMB     301      POPC     H15X     HAL2     0.900000E-01   1.00800           0
     36550 MEMB     301      POPC     H15Y     HAL2     0.900000E-01   1.00800           0
     36551 MEMB     301      POPC     C316     CTL3    -0.270000       12.0110           0
     36552 MEMB     301      POPC     H16X     HAL3     0.900000E-01   1.00800           0
     36553 MEMB     301      POPC     H16Y     HAL3     0.900000E-01   1.00800           0
     36554 MEMB     301      POPC     H16Z     HAL3     0.900000E-01   1.00800           0
     36555 MEMB     302      POPC     N        NTL     -0.600000       14.0070           0
     36556 MEMB     302      POPC     C12      CTL2    -0.100000       12.0110           0
     36557 MEMB     302      POPC     H12A     HL       0.250000       1.00800           0
     36558 MEMB     302      POPC     H12B     HL       0.250000       1.00800           0
     36559 MEMB     302      POPC     C13      CTL5    -0.350000       12.0110           0
     36560 MEMB     302      POPC     H13A     HL       0.250000       1.00800           0
     36561 MEMB     302      POPC     H13B     HL       0.250000       1.00800           0
     36562 MEMB     302      POPC     H13C     HL       0.250000       1.00800           0
     36563 MEMB     302      POPC     C14      CTL5    -0.350000       12.0110           0
     36564 MEMB     302      POPC     H14A     HL       0.250000       1.00800           0
     36565 MEMB     302      POPC     H14B     HL       0.250000       1.00800           0
     36566 MEMB     302      POPC     H14C     HL       0.250000       1.00800           0
     36567 MEMB     302      POPC     C15      CTL5    -0.350000       12.0110           0
     36568 MEMB     302      POPC     H15A     HL       0.250000       1.00800           0
     36569 MEMB     302      POPC     H15B     HL       0.250000       1.00800           0
     36570 MEMB     302      POPC     H15C     HL       0.250000       1.00800           0
     36571 MEMB     302      POPC     C11      CTL2    -0.800000E-01   12.0110           0
     36572 MEMB     302      POPC     H11A     HAL2     0.900000E-01   1.00800           0
     36573 MEMB     302      POPC     H11B     HAL2     0.900000E-01   1.00800           0
     36574 MEMB     302      POPC     P        PL        1.50000       30.9740           0
     36575 MEMB     302      POPC     O13      O2L     -0.780000       15.9994           0
     36576 MEMB     302      POPC     O14      O2L     -0.780000       15.9994           0
     36577 MEMB     302      POPC     O12      OSLP    -0.570000       15.9994           0
     36578 MEMB     302      POPC     O11      OSLP    -0.570000       15.9994           0
     36579 MEMB     302      POPC     C1       CTL2    -0.800000E-01   12.0110           0
     36580 MEMB     302      POPC     HA       HAL2     0.900000E-01   1.00800           0
     36581 MEMB     302      POPC     HB       HAL2     0.900000E-01   1.00800           0
     36582 MEMB     302      POPC     C2       CTL1     0.170000       12.0110           0
     36583 MEMB     302      POPC     HS       HAL1     0.900000E-01   1.00800           0
     36584 MEMB     302      POPC     O21      OSL     -0.490000       15.9994           0
     36585 MEMB     302      POPC     C21      CL       0.900000       12.0110           0
     36586 MEMB     302      POPC     O22      OBL     -0.630000       15.9994           0
     36587 MEMB     302      POPC     C22      CTL2    -0.220000       12.0110           0
     36588 MEMB     302      POPC     H2R      HAL2     0.900000E-01   1.00800           0
     36589 MEMB     302      POPC     H2S      HAL2     0.900000E-01   1.00800           0
     36590 MEMB     302      POPC     C3       CTL2     0.800000E-01   12.0110           0
     36591 MEMB     302      POPC     HX       HAL2     0.900000E-01   1.00800           0
     36592 MEMB     302      POPC     HY       HAL2     0.900000E-01   1.00800           0
     36593 MEMB     302      POPC     O31      OSL     -0.490000       15.9994           0
     36594 MEMB     302      POPC     C31      CL       0.900000       12.0110           0
     36595 MEMB     302      POPC     O32      OBL     -0.630000       15.9994           0
     36596 MEMB     302      POPC     C32      CTL2    -0.220000       12.0110           0
     36597 MEMB     302      POPC     H2X      HAL2     0.900000E-01   1.00800           0
     36598 MEMB     302      POPC     H2Y      HAL2     0.900000E-01   1.00800           0
     36599 MEMB     302      POPC     C23      CTL2    -0.180000       12.0110           0
     36600 MEMB     302      POPC     H3R      HAL2     0.900000E-01   1.00800           0
     36601 MEMB     302      POPC     H3S      HAL2     0.900000E-01   1.00800           0
     36602 MEMB     302      POPC     C24      CTL2    -0.180000       12.0110           0
     36603 MEMB     302      POPC     H4R      HAL2     0.900000E-01   1.00800           0
     36604 MEMB     302      POPC     H4S      HAL2     0.900000E-01   1.00800           0
     36605 MEMB     302      POPC     C25      CTL2    -0.180000       12.0110           0
     36606 MEMB     302      POPC     H5R      HAL2     0.900000E-01   1.00800           0
     36607 MEMB     302      POPC     H5S      HAL2     0.900000E-01   1.00800           0
     36608 MEMB     302      POPC     C26      CTL2    -0.180000       12.0110           0
     36609 MEMB     302      POPC     H6R      HAL2     0.900000E-01   1.00800           0
     36610 MEMB     302      POPC     H6S      HAL2     0.900000E-01   1.00800           0
     36611 MEMB     302      POPC     C27      CTL2    -0.180000       12.0110           0
     36612 MEMB     302      POPC     H7R      HAL2     0.900000E-01   1.00800           0
     36613 MEMB     302      POPC     H7S      HAL2     0.900000E-01   1.00800           0
     36614 MEMB     302      POPC     C28      CTL2    -0.180000       12.0110           0
     36615 MEMB     302      POPC     H8R      HAL2     0.900000E-01   1.00800           0
     36616 MEMB     302      POPC     H8S      HAL2     0.900000E-01   1.00800           0
     36617 MEMB     302      POPC     C29      CEL1    -0.150000       12.0110           0
     36618 MEMB     302      POPC     H91      HEL1     0.150000       1.00800           0
     36619 MEMB     302      POPC     C210     CEL1    -0.150000       12.0110           0
     36620 MEMB     302      POPC     H101     HEL1     0.150000       1.00800           0
     36621 MEMB     302      POPC     C211     CTL2    -0.180000       12.0110           0
     36622 MEMB     302      POPC     H11R     HAL2     0.900000E-01   1.00800           0
     36623 MEMB     302      POPC     H11S     HAL2     0.900000E-01   1.00800           0
     36624 MEMB     302      POPC     C212     CTL2    -0.180000       12.0110           0
     36625 MEMB     302      POPC     H12R     HAL2     0.900000E-01   1.00800           0
     36626 MEMB     302      POPC     H12S     HAL2     0.900000E-01   1.00800           0
     36627 MEMB     302      POPC     C213     CTL2    -0.180000       12.0110           0
     36628 MEMB     302      POPC     H13R     HAL2     0.900000E-01   1.00800           0
     36629 MEMB     302      POPC     H13S     HAL2     0.900000E-01   1.00800           0
     36630 MEMB     302      POPC     C214     CTL2    -0.180000       12.0110           0
     36631 MEMB     302      POPC     H14R     HAL2     0.900000E-01   1.00800           0
     36632 MEMB     302      POPC     H14S     HAL2     0.900000E-01   1.00800           0
     36633 MEMB     302      POPC     C215     CTL2    -0.180000       12.0110           0
     36634 MEMB     302      POPC     H15R     HAL2     0.900000E-01   1.00800           0
     36635 MEMB     302      POPC     H15S     HAL2     0.900000E-01   1.00800           0
     36636 MEMB     302      POPC     C216     CTL2    -0.180000       12.0110           0
     36637 MEMB     302      POPC     H16R     HAL2     0.900000E-01   1.00800           0
     36638 MEMB     302      POPC     H16S     HAL2     0.900000E-01   1.00800           0
     36639 MEMB     302      POPC     C217     CTL2    -0.180000       12.0110           0
     36640 MEMB     302      POPC     H17R     HAL2     0.900000E-01   1.00800           0
     36641 MEMB     302      POPC     H17S     HAL2     0.900000E-01   1.00800           0
     36642 MEMB     302      POPC     C218     CTL3    -0.270000       12.0110           0
     36643 MEMB     302      POPC     H18R     HAL3     0.900000E-01   1.00800           0
     36644 MEMB     302      POPC     H18S     HAL3     0.900000E-01   1.00800           0
     36645 MEMB     302      POPC     H18T     HAL3     0.900000E-01   1.00800           0
     36646 MEMB     302      POPC     C33      CTL2    -0.180000       12.0110           0
     36647 MEMB     302      POPC     H3X      HAL2     0.900000E-01   1.00800           0
     36648 MEMB     302      POPC     H3Y      HAL2     0.900000E-01   1.00800           0
     36649 MEMB     302      POPC     C34      CTL2    -0.180000       12.0110           0
     36650 MEMB     302      POPC     H4X      HAL2     0.900000E-01   1.00800           0
     36651 MEMB     302      POPC     H4Y      HAL2     0.900000E-01   1.00800           0
     36652 MEMB     302      POPC     C35      CTL2    -0.180000       12.0110           0
     36653 MEMB     302      POPC     H5X      HAL2     0.900000E-01   1.00800           0
     36654 MEMB     302      POPC     H5Y      HAL2     0.900000E-01   1.00800           0
     36655 MEMB     302      POPC     C36      CTL2    -0.180000       12.0110           0
     36656 MEMB     302      POPC     H6X      HAL2     0.900000E-01   1.00800           0
     36657 MEMB     302      POPC     H6Y      HAL2     0.900000E-01   1.00800           0
     36658 MEMB     302      POPC     C37      CTL2    -0.180000       12.0110           0
     36659 MEMB     302      POPC     H7X      HAL2     0.900000E-01   1.00800           0
     36660 MEMB     302      POPC     H7Y      HAL2     0.900000E-01   1.00800           0
     36661 MEMB     302      POPC     C38      CTL2    -0.180000       12.0110           0
     36662 MEMB     302      POPC     H8X      HAL2     0.900000E-01   1.00800           0
     36663 MEMB     302      POPC     H8Y      HAL2     0.900000E-01   1.00800           0
     36664 MEMB     302      POPC     C39      CTL2    -0.180000       12.0110           0
     36665 MEMB     302      POPC     H9X      HAL2     0.900000E-01   1.00800           0
     36666 MEMB     302      POPC     H9Y      HAL2     0.900000E-01   1.00800           0
     36667 MEMB     302      POPC     C310     CTL2    -0.180000       12.0110           0
     36668 MEMB     302      POPC     H10X     HAL2     0.900000E-01   1.00800           0
     36669 MEMB     302      POPC     H10Y     HAL2     0.900000E-01   1.00800           0
     36670 MEMB     302      POPC     C311     CTL2    -0.180000       12.0110           0
     36671 MEMB     302      POPC     H11X     HAL2     0.900000E-01   1.00800           0
     36672 MEMB     302      POPC     H11Y     HAL2     0.900000E-01   1.00800           0
     36673 MEMB     302      POPC     C312     CTL2    -0.180000       12.0110           0
     36674 MEMB     302      POPC     H12X     HAL2     0.900000E-01   1.00800           0
     36675 MEMB     302      POPC     H12Y     HAL2     0.900000E-01   1.00800           0
     36676 MEMB     302      POPC     C313     CTL2    -0.180000       12.0110           0
     36677 MEMB     302      POPC     H13X     HAL2     0.900000E-01   1.00800           0
     36678 MEMB     302      POPC     H13Y     HAL2     0.900000E-01   1.00800           0
     36679 MEMB     302      POPC     C314     CTL2    -0.180000       12.0110           0
     36680 MEMB     302      POPC     H14X     HAL2     0.900000E-01   1.00800           0
     36681 MEMB     302      POPC     H14Y     HAL2     0.900000E-01   1.00800           0
     36682 MEMB     302      POPC     C315     CTL2    -0.180000       12.0110           0
     36683 MEMB     302      POPC     H15X     HAL2     0.900000E-01   1.00800           0
     36684 MEMB     302      POPC     H15Y     HAL2     0.900000E-01   1.00800           0
     36685 MEMB     302      POPC     C316     CTL3    -0.270000       12.0110           0
     36686 MEMB     302      POPC     H16X     HAL3     0.900000E-01   1.00800           0
     36687 MEMB     302      POPC     H16Y     HAL3     0.900000E-01   1.00800           0
     36688 MEMB     302      POPC     H16Z     HAL3     0.900000E-01   1.00800           0
     36689 MEMB     303      POPC     N        NTL     -0.600000       14.0070           0
     36690 MEMB     303      POPC     C12      CTL2    -0.100000       12.0110           0
     36691 MEMB     303      POPC     H12A     HL       0.250000       1.00800           0
     36692 MEMB     303      POPC     H12B     HL       0.250000       1.00800           0
     36693 MEMB     303      POPC     C13      CTL5    -0.350000       12.0110           0
     36694 MEMB     303      POPC     H13A     HL       0.250000       1.00800           0
     36695 MEMB     303      POPC     H13B     HL       0.250000       1.00800           0
     36696 MEMB     303      POPC     H13C     HL       0.250000       1.00800           0
     36697 MEMB     303      POPC     C14      CTL5    -0.350000       12.0110           0
     36698 MEMB     303      POPC     H14A     HL       0.250000       1.00800           0
     36699 MEMB     303      POPC     H14B     HL       0.250000       1.00800           0
     36700 MEMB     303      POPC     H14C     HL       0.250000       1.00800           0
     36701 MEMB     303      POPC     C15      CTL5    -0.350000       12.0110           0
     36702 MEMB     303      POPC     H15A     HL       0.250000       1.00800           0
     36703 MEMB     303      POPC     H15B     HL       0.250000       1.00800           0
     36704 MEMB     303      POPC     H15C     HL       0.250000       1.00800           0
     36705 MEMB     303      POPC     C11      CTL2    -0.800000E-01   12.0110           0
     36706 MEMB     303      POPC     H11A     HAL2     0.900000E-01   1.00800           0
     36707 MEMB     303      POPC     H11B     HAL2     0.900000E-01   1.00800           0
     36708 MEMB     303      POPC     P        PL        1.50000       30.9740           0
     36709 MEMB     303      POPC     O13      O2L     -0.780000       15.9994           0
     36710 MEMB     303      POPC     O14      O2L     -0.780000       15.9994           0
     36711 MEMB     303      POPC     O12      OSLP    -0.570000       15.9994           0
     36712 MEMB     303      POPC     O11      OSLP    -0.570000       15.9994           0
     36713 MEMB     303      POPC     C1       CTL2    -0.800000E-01   12.0110           0
     36714 MEMB     303      POPC     HA       HAL2     0.900000E-01   1.00800           0
     36715 MEMB     303      POPC     HB       HAL2     0.900000E-01   1.00800           0
     36716 MEMB     303      POPC     C2       CTL1     0.170000       12.0110           0
     36717 MEMB     303      POPC     HS       HAL1     0.900000E-01   1.00800           0
     36718 MEMB     303      POPC     O21      OSL     -0.490000       15.9994           0
     36719 MEMB     303      POPC     C21      CL       0.900000       12.0110           0
     36720 MEMB     303      POPC     O22      OBL     -0.630000       15.9994           0
     36721 MEMB     303      POPC     C22      CTL2    -0.220000       12.0110           0
     36722 MEMB     303      POPC     H2R      HAL2     0.900000E-01   1.00800           0
     36723 MEMB     303      POPC     H2S      HAL2     0.900000E-01   1.00800           0
     36724 MEMB     303      POPC     C3       CTL2     0.800000E-01   12.0110           0
     36725 MEMB     303      POPC     HX       HAL2     0.900000E-01   1.00800           0
     36726 MEMB     303      POPC     HY       HAL2     0.900000E-01   1.00800           0
     36727 MEMB     303      POPC     O31      OSL     -0.490000       15.9994           0
     36728 MEMB     303      POPC     C31      CL       0.900000       12.0110           0
     36729 MEMB     303      POPC     O32      OBL     -0.630000       15.9994           0
     36730 MEMB     303      POPC     C32      CTL2    -0.220000       12.0110           0
     36731 MEMB     303      POPC     H2X      HAL2     0.900000E-01   1.00800           0
     36732 MEMB     303      POPC     H2Y      HAL2     0.900000E-01   1.00800           0
     36733 MEMB     303      POPC     C23      CTL2    -0.180000       12.0110           0
     36734 MEMB     303      POPC     H3R      HAL2     0.900000E-01   1.00800           0
     36735 MEMB     303      POPC     H3S      HAL2     0.900000E-01   1.00800           0
     36736 MEMB     303      POPC     C24      CTL2    -0.180000       12.0110           0
     36737 MEMB     303      POPC     H4R      HAL2     0.900000E-01   1.00800           0
     36738 MEMB     303      POPC     H4S      HAL2     0.900000E-01   1.00800           0
     36739 MEMB     303      POPC     C25      CTL2    -0.180000       12.0110           0
     36740 MEMB     303      POPC     H5R      HAL2     0.900000E-01   1.00800           0
     36741 MEMB     303      POPC     H5S      HAL2     0.900000E-01   1.00800           0
     36742 MEMB     303      POPC     C26      CTL2    -0.180000       12.0110           0
     36743 MEMB     303      POPC     H6R      HAL2     0.900000E-01   1.00800           0
     36744 MEMB     303      POPC     H6S      HAL2     0.900000E-01   1.00800           0
     36745 MEMB     303      POPC     C27      CTL2    -0.180000       12.0110           0
     36746 MEMB     303      POPC     H7R      HAL2     0.900000E-01   1.00800           0
     36747 MEMB     303      POPC     H7S      HAL2     0.900000E-01   1.00800           0
     36748 MEMB     303      POPC     C28      CTL2    -0.180000       12.0110           0
     36749 MEMB     303      POPC     H8R      HAL2     0.900000E-01   1.00800           0
     36750 MEMB     303      POPC     H8S      HAL2     0.900000E-01   1.00800           0
     36751 MEMB     303      POPC     C29      CEL1    -0.150000       12.0110           0
     36752 MEMB     303      POPC     H91      HEL1     0.150000       1.00800           0
     36753 MEMB     303      POPC     C210     CEL1    -0.150000       12.0110           0
     36754 MEMB     303      POPC     H101     HEL1     0.150000       1.00800           0
     36755 MEMB     303      POPC     C211     CTL2    -0.180000       12.0110           0
     36756 MEMB     303      POPC     H11R     HAL2     0.900000E-01   1.00800           0
     36757 MEMB     303      POPC     H11S     HAL2     0.900000E-01   1.00800           0
     36758 MEMB     303      POPC     C212     CTL2    -0.180000       12.0110           0
     36759 MEMB     303      POPC     H12R     HAL2     0.900000E-01   1.00800           0
     36760 MEMB     303      POPC     H12S     HAL2     0.900000E-01   1.00800           0
     36761 MEMB     303      POPC     C213     CTL2    -0.180000       12.0110           0
     36762 MEMB     303      POPC     H13R     HAL2     0.900000E-01   1.00800           0
     36763 MEMB     303      POPC     H13S     HAL2     0.900000E-01   1.00800           0
     36764 MEMB     303      POPC     C214     CTL2    -0.180000       12.0110           0
     36765 MEMB     303      POPC     H14R     HAL2     0.900000E-01   1.00800           0
     36766 MEMB     303      POPC     H14S     HAL2     0.900000E-01   1.00800           0
     36767 MEMB     303      POPC     C215     CTL2    -0.180000       12.0110           0
     36768 MEMB     303      POPC     H15R     HAL2     0.900000E-01   1.00800           0
     36769 MEMB     303      POPC     H15S     HAL2     0.900000E-01   1.00800           0
     36770 MEMB     303      POPC     C216     CTL2    -0.180000       12.0110           0
     36771 MEMB     303      POPC     H16R     HAL2     0.900000E-01   1.00800           0
     36772 MEMB     303      POPC     H16S     HAL2     0.900000E-01   1.00800           0
     36773 MEMB     303      POPC     C217     CTL2    -0.180000       12.0110           0
     36774 MEMB     303      POPC     H17R     HAL2     0.900000E-01   1.00800           0
     36775 MEMB     303      POPC     H17S     HAL2     0.900000E-01   1.00800           0
     36776 MEMB     303      POPC     C218     CTL3    -0.270000       12.0110           0
     36777 MEMB     303      POPC     H18R     HAL3     0.900000E-01   1.00800           0
     36778 MEMB     303      POPC     H18S     HAL3     0.900000E-01   1.00800           0
     36779 MEMB     303      POPC     H18T     HAL3     0.900000E-01   1.00800           0
     36780 MEMB     303      POPC     C33      CTL2    -0.180000       12.0110           0
     36781 MEMB     303      POPC     H3X      HAL2     0.900000E-01   1.00800           0
     36782 MEMB     303      POPC     H3Y      HAL2     0.900000E-01   1.00800           0
     36783 MEMB     303      POPC     C34      CTL2    -0.180000       12.0110           0
     36784 MEMB     303      POPC     H4X      HAL2     0.900000E-01   1.00800           0
     36785 MEMB     303      POPC     H4Y      HAL2     0.900000E-01   1.00800           0
     36786 MEMB     303      POPC     C35      CTL2    -0.180000       12.0110           0
     36787 MEMB     303      POPC     H5X      HAL2     0.900000E-01   1.00800           0
     36788 MEMB     303      POPC     H5Y      HAL2     0.900000E-01   1.00800           0
     36789 MEMB     303      POPC     C36      CTL2    -0.180000       12.0110           0
     36790 MEMB     303      POPC     H6X      HAL2     0.900000E-01   1.00800           0
     36791 MEMB     303      POPC     H6Y      HAL2     0.900000E-01   1.00800           0
     36792 MEMB     303      POPC     C37      CTL2    -0.180000       12.0110           0
     36793 MEMB     303      POPC     H7X      HAL2     0.900000E-01   1.00800           0
     36794 MEMB     303      POPC     H7Y      HAL2     0.900000E-01   1.00800           0
     36795 MEMB     303      POPC     C38      CTL2    -0.180000       12.0110           0
     36796 MEMB     303      POPC     H8X      HAL2     0.900000E-01   1.00800           0
     36797 MEMB     303      POPC     H8Y      HAL2     0.900000E-01   1.00800           0
     36798 MEMB     303      POPC     C39      CTL2    -0.180000       12.0110           0
     36799 MEMB     303      POPC     H9X      HAL2     0.900000E-01   1.00800           0
     36800 MEMB     303      POPC     H9Y      HAL2     0.900000E-01   1.00800           0
     36801 MEMB     303      POPC     C310     CTL2    -0.180000       12.0110           0
     36802 MEMB     303      POPC     H10X     HAL2     0.900000E-01   1.00800           0
     36803 MEMB     303      POPC     H10Y     HAL2     0.900000E-01   1.00800           0
     36804 MEMB     303      POPC     C311     CTL2    -0.180000       12.0110           0
     36805 MEMB     303      POPC     H11X     HAL2     0.900000E-01   1.00800           0
     36806 MEMB     303      POPC     H11Y     HAL2     0.900000E-01   1.00800           0
     36807 MEMB     303      POPC     C312     CTL2    -0.180000       12.0110           0
     36808 MEMB     303      POPC     H12X     HAL2     0.900000E-01   1.00800           0
     36809 MEMB     303      POPC     H12Y     HAL2     0.900000E-01   1.00800           0
     36810 MEMB     303      POPC     C313     CTL2    -0.180000       12.0110           0
     36811 MEMB     303      POPC     H13X     HAL2     0.900000E-01   1.00800           0
     36812 MEMB     303      POPC     H13Y     HAL2     0.900000E-01   1.00800           0
     36813 MEMB     303      POPC     C314     CTL2    -0.180000       12.0110           0
     36814 MEMB     303      POPC     H14X     HAL2     0.900000E-01   1.00800           0
     36815 MEMB     303      POPC     H14Y     HAL2     0.900000E-01   1.00800           0
     36816 MEMB     303      POPC     C315     CTL2    -0.180000       12.0110           0
     36817 MEMB     303      POPC     H15X     HAL2     0.900000E-01   1.00800           0
     36818 MEMB     303      POPC     H15Y     HAL2     0.900000E-01   1.00800           0
     36819 MEMB     303      POPC     C316     CTL3    -0.270000       12.0110           0
     36820 MEMB     303      POPC     H16X     HAL3     0.900000E-01   1.00800           0
     36821 MEMB     303      POPC     H16Y     HAL3     0.900000E-01   1.00800           0
     36822 MEMB     303      POPC     H16Z     HAL3     0.900000E-01   1.00800           0
     36823 MEMB     304      POPC     N        NTL     -0.600000       14.0070           0
     36824 MEMB     304      POPC     C12      CTL2    -0.100000       12.0110           0
     36825 MEMB     304      POPC     H12A     HL       0.250000       1.00800           0
     36826 MEMB     304      POPC     H12B     HL       0.250000       1.00800           0
     36827 MEMB     304      POPC     C13      CTL5    -0.350000       12.0110           0
     36828 MEMB     304      POPC     H13A     HL       0.250000       1.00800           0
     36829 MEMB     304      POPC     H13B     HL       0.250000       1.00800           0
     36830 MEMB     304      POPC     H13C     HL       0.250000       1.00800           0
     36831 MEMB     304      POPC     C14      CTL5    -0.350000       12.0110           0
     36832 MEMB     304      POPC     H14A     HL       0.250000       1.00800           0
     36833 MEMB     304      POPC     H14B     HL       0.250000       1.00800           0
     36834 MEMB     304      POPC     H14C     HL       0.250000       1.00800           0
     36835 MEMB     304      POPC     C15      CTL5    -0.350000       12.0110           0
     36836 MEMB     304      POPC     H15A     HL       0.250000       1.00800           0
     36837 MEMB     304      POPC     H15B     HL       0.250000       1.00800           0
     36838 MEMB     304      POPC     H15C     HL       0.250000       1.00800           0
     36839 MEMB     304      POPC     C11      CTL2    -0.800000E-01   12.0110           0
     36840 MEMB     304      POPC     H11A     HAL2     0.900000E-01   1.00800           0
     36841 MEMB     304      POPC     H11B     HAL2     0.900000E-01   1.00800           0
     36842 MEMB     304      POPC     P        PL        1.50000       30.9740           0
     36843 MEMB     304      POPC     O13      O2L     -0.780000       15.9994           0
     36844 MEMB     304      POPC     O14      O2L     -0.780000       15.9994           0
     36845 MEMB     304      POPC     O12      OSLP    -0.570000       15.9994           0
     36846 MEMB     304      POPC     O11      OSLP    -0.570000       15.9994           0
     36847 MEMB     304      POPC     C1       CTL2    -0.800000E-01   12.0110           0
     36848 MEMB     304      POPC     HA       HAL2     0.900000E-01   1.00800           0
     36849 MEMB     304      POPC     HB       HAL2     0.900000E-01   1.00800           0
     36850 MEMB     304      POPC     C2       CTL1     0.170000       12.0110           0
     36851 MEMB     304      POPC     HS       HAL1     0.900000E-01   1.00800           0
     36852 MEMB     304      POPC     O21      OSL     -0.490000       15.9994           0
     36853 MEMB     304      POPC     C21      CL       0.900000       12.0110           0
     36854 MEMB     304      POPC     O22      OBL     -0.630000       15.9994           0
     36855 MEMB     304      POPC     C22      CTL2    -0.220000       12.0110           0
     36856 MEMB     304      POPC     H2R      HAL2     0.900000E-01   1.00800           0
     36857 MEMB     304      POPC     H2S      HAL2     0.900000E-01   1.00800           0
     36858 MEMB     304      POPC     C3       CTL2     0.800000E-01   12.0110           0
     36859 MEMB     304      POPC     HX       HAL2     0.900000E-01   1.00800           0
     36860 MEMB     304      POPC     HY       HAL2     0.900000E-01   1.00800           0
     36861 MEMB     304      POPC     O31      OSL     -0.490000       15.9994           0
     36862 MEMB     304      POPC     C31      CL       0.900000       12.0110           0
     36863 MEMB     304      POPC     O32      OBL     -0.630000       15.9994           0
     36864 MEMB     304      POPC     C32      CTL2    -0.220000       12.0110           0
     36865 MEMB     304      POPC     H2X      HAL2     0.900000E-01   1.00800           0
     36866 MEMB     304      POPC     H2Y      HAL2     0.900000E-01   1.00800           0
     36867 MEMB     304      POPC     C23      CTL2    -0.180000       12.0110           0
     36868 MEMB     304      POPC     H3R      HAL2     0.900000E-01   1.00800           0
     36869 MEMB     304      POPC     H3S      HAL2     0.900000E-01   1.00800           0
     36870 MEMB     304      POPC     C24      CTL2    -0.180000       12.0110           0
     36871 MEMB     304      POPC     H4R      HAL2     0.900000E-01   1.00800           0
     36872 MEMB     304      POPC     H4S      HAL2     0.900000E-01   1.00800           0
     36873 MEMB     304      POPC     C25      CTL2    -0.180000       12.0110           0
     36874 MEMB     304      POPC     H5R      HAL2     0.900000E-01   1.00800           0
     36875 MEMB     304      POPC     H5S      HAL2     0.900000E-01   1.00800           0
     36876 MEMB     304      POPC     C26      CTL2    -0.180000       12.0110           0
     36877 MEMB     304      POPC     H6R      HAL2     0.900000E-01   1.00800           0
     36878 MEMB     304      POPC     H6S      HAL2     0.900000E-01   1.00800           0
     36879 MEMB     304      POPC     C27      CTL2    -0.180000       12.0110           0
     36880 MEMB     304      POPC     H7R      HAL2     0.900000E-01   1.00800           0
     36881 MEMB     304      POPC     H7S      HAL2     0.900000E-01   1.00800           0
     36882 MEMB     304      POPC     C28      CTL2    -0.180000       12.0110           0
     36883 MEMB     304      POPC     H8R      HAL2     0.900000E-01   1.00800           0
     36884 MEMB     304      POPC     H8S      HAL2     0.900000E-01   1.00800           0
     36885 MEMB     304      POPC     C29      CEL1    -0.150000       12.0110           0
     36886 MEMB     304      POPC     H91      HEL1     0.150000       1.00800           0
     36887 MEMB     304      POPC     C210     CEL1    -0.150000       12.0110           0
     36888 MEMB     304      POPC     H101     HEL1     0.150000       1.00800           0
     36889 MEMB     304      POPC     C211     CTL2    -0.180000       12.0110           0
     36890 MEMB     304      POPC     H11R     HAL2     0.900000E-01   1.00800           0
     36891 MEMB     304      POPC     H11S     HAL2     0.900000E-01   1.00800           0
     36892 MEMB     304      POPC     C212     CTL2    -0.180000       12.0110           0
     36893 MEMB     304      POPC     H12R     HAL2     0.900000E-01   1.00800           0
     36894 MEMB     304      POPC     H12S     HAL2     0.900000E-01   1.00800           0
     36895 MEMB     304      POPC     C213     CTL2    -0.180000       12.0110           0
     36896 MEMB     304      POPC     H13R     HAL2     0.900000E-01   1.00800           0
     36897 MEMB     304      POPC     H13S     HAL2     0.900000E-01   1.00800           0
     36898 MEMB     304      POPC     C214     CTL2    -0.180000       12.0110           0
     36899 MEMB     304      POPC     H14R     HAL2     0.900000E-01   1.00800           0
     36900 MEMB     304      POPC     H14S     HAL2     0.900000E-01   1.00800           0
     36901 MEMB     304      POPC     C215     CTL2    -0.180000       12.0110           0
     36902 MEMB     304      POPC     H15R     HAL2     0.900000E-01   1.00800           0
     36903 MEMB     304      POPC     H15S     HAL2     0.900000E-01   1.00800           0
     36904 MEMB     304      POPC     C216     CTL2    -0.180000       12.0110           0
     36905 MEMB     304      POPC     H16R     HAL2     0.900000E-01   1.00800           0
     36906 MEMB     304      POPC     H16S     HAL2     0.900000E-01   1.00800           0
     36907 MEMB     304      POPC     C217     CTL2    -0.180000       12.0110           0
     36908 MEMB     304      POPC     H17R     HAL2     0.900000E-01   1.00800           0
     36909 MEMB     304      POPC     H17S     HAL2     0.900000E-01   1.00800           0
     36910 MEMB     304      POPC     C218     CTL3    -0.270000       12.0110           0
     36911 MEMB     304      POPC     H18R     HAL3     0.900000E-01   1.00800           0
     36912 MEMB     304      POPC     H18S     HAL3     0.900000E-01   1.00800           0
     36913 MEMB     304      POPC     H18T     HAL3     0.900000E-01   1.00800           0
     36914 MEMB     304      POPC     C33      CTL2    -0.180000       12.0110           0
     36915 MEMB     304      POPC     H3X      HAL2     0.900000E-01   1.00800           0
     36916 MEMB     304      POPC     H3Y      HAL2     0.900000E-01   1.00800           0
     36917 MEMB     304      POPC     C34      CTL2    -0.180000       12.0110           0
     36918 MEMB     304      POPC     H4X      HAL2     0.900000E-01   1.00800           0
     36919 MEMB     304      POPC     H4Y      HAL2     0.900000E-01   1.00800           0
     36920 MEMB     304      POPC     C35      CTL2    -0.180000       12.0110           0
     36921 MEMB     304      POPC     H5X      HAL2     0.900000E-01   1.00800           0
     36922 MEMB     304      POPC     H5Y      HAL2     0.900000E-01   1.00800           0
     36923 MEMB     304      POPC     C36      CTL2    -0.180000       12.0110           0
     36924 MEMB     304      POPC     H6X      HAL2     0.900000E-01   1.00800           0
     36925 MEMB     304      POPC     H6Y      HAL2     0.900000E-01   1.00800           0
     36926 MEMB     304      POPC     C37      CTL2    -0.180000       12.0110           0
     36927 MEMB     304      POPC     H7X      HAL2     0.900000E-01   1.00800           0
     36928 MEMB     304      POPC     H7Y      HAL2     0.900000E-01   1.00800           0
     36929 MEMB     304      POPC     C38      CTL2    -0.180000       12.0110           0
     36930 MEMB     304      POPC     H8X      HAL2     0.900000E-01   1.00800           0
     36931 MEMB     304      POPC     H8Y      HAL2     0.900000E-01   1.00800           0
     36932 MEMB     304      POPC     C39      CTL2    -0.180000       12.0110           0
     36933 MEMB     304      POPC     H9X      HAL2     0.900000E-01   1.00800           0
     36934 MEMB     304      POPC     H9Y      HAL2     0.900000E-01   1.00800           0
     36935 MEMB     304      POPC     C310     CTL2    -0.180000       12.0110           0
     36936 MEMB     304      POPC     H10X     HAL2     0.900000E-01   1.00800           0
     36937 MEMB     304      POPC     H10Y     HAL2     0.900000E-01   1.00800           0
     36938 MEMB     304      POPC     C311     CTL2    -0.180000       12.0110           0
     36939 MEMB     304      POPC     H11X     HAL2     0.900000E-01   1.00800           0
     36940 MEMB     304      POPC     H11Y     HAL2     0.900000E-01   1.00800           0
     36941 MEMB     304      POPC     C312     CTL2    -0.180000       12.0110           0
     36942 MEMB     304      POPC     H12X     HAL2     0.900000E-01   1.00800           0
     36943 MEMB     304      POPC     H12Y     HAL2     0.900000E-01   1.00800           0
     36944 MEMB     304      POPC     C313     CTL2    -0.180000       12.0110           0
     36945 MEMB     304      POPC     H13X     HAL2     0.900000E-01   1.00800           0
     36946 MEMB     304      POPC     H13Y     HAL2     0.900000E-01   1.00800           0
     36947 MEMB     304      POPC     C314     CTL2    -0.180000       12.0110           0
     36948 MEMB     304      POPC     H14X     HAL2     0.900000E-01   1.00800           0
     36949 MEMB     304      POPC     H14Y     HAL2     0.900000E-01   1.00800           0
     36950 MEMB     304      POPC     C315     CTL2    -0.180000       12.0110           0
     36951 MEMB     304      POPC     H15X     HAL2     0.900000E-01   1.00800           0
     36952 MEMB     304      POPC     H15Y     HAL2     0.900000E-01   1.00800           0
     36953 MEMB     304      POPC     C316     CTL3    -0.270000       12.0110           0
     36954 MEMB     304      POPC     H16X     HAL3     0.900000E-01   1.00800           0
     36955 MEMB     304      POPC     H16Y     HAL3     0.900000E-01   1.00800           0
     36956 MEMB     304      POPC     H16Z     HAL3     0.900000E-01   1.00800           0
     36957 MEMB     305      POPC     N        NTL     -0.600000       14.0070           0
     36958 MEMB     305      POPC     C12      CTL2    -0.100000       12.0110           0
     36959 MEMB     305      POPC     H12A     HL       0.250000       1.00800           0
     36960 MEMB     305      POPC     H12B     HL       0.250000       1.00800           0
     36961 MEMB     305      POPC     C13      CTL5    -0.350000       12.0110           0
     36962 MEMB     305      POPC     H13A     HL       0.250000       1.00800           0
     36963 MEMB     305      POPC     H13B     HL       0.250000       1.00800           0
     36964 MEMB     305      POPC     H13C     HL       0.250000       1.00800           0
     36965 MEMB     305      POPC     C14      CTL5    -0.350000       12.0110           0
     36966 MEMB     305      POPC     H14A     HL       0.250000       1.00800           0
     36967 MEMB     305      POPC     H14B     HL       0.250000       1.00800           0
     36968 MEMB     305      POPC     H14C     HL       0.250000       1.00800           0
     36969 MEMB     305      POPC     C15      CTL5    -0.350000       12.0110           0
     36970 MEMB     305      POPC     H15A     HL       0.250000       1.00800           0
     36971 MEMB     305      POPC     H15B     HL       0.250000       1.00800           0
     36972 MEMB     305      POPC     H15C     HL       0.250000       1.00800           0
     36973 MEMB     305      POPC     C11      CTL2    -0.800000E-01   12.0110           0
     36974 MEMB     305      POPC     H11A     HAL2     0.900000E-01   1.00800           0
     36975 MEMB     305      POPC     H11B     HAL2     0.900000E-01   1.00800           0
     36976 MEMB     305      POPC     P        PL        1.50000       30.9740           0
     36977 MEMB     305      POPC     O13      O2L     -0.780000       15.9994           0
     36978 MEMB     305      POPC     O14      O2L     -0.780000       15.9994           0
     36979 MEMB     305      POPC     O12      OSLP    -0.570000       15.9994           0
     36980 MEMB     305      POPC     O11      OSLP    -0.570000       15.9994           0
     36981 MEMB     305      POPC     C1       CTL2    -0.800000E-01   12.0110           0
     36982 MEMB     305      POPC     HA       HAL2     0.900000E-01   1.00800           0
     36983 MEMB     305      POPC     HB       HAL2     0.900000E-01   1.00800           0
     36984 MEMB     305      POPC     C2       CTL1     0.170000       12.0110           0
     36985 MEMB     305      POPC     HS       HAL1     0.900000E-01   1.00800           0
     36986 MEMB     305      POPC     O21      OSL     -0.490000       15.9994           0
     36987 MEMB     305      POPC     C21      CL       0.900000       12.0110           0
     36988 MEMB     305      POPC     O22      OBL     -0.630000       15.9994           0
     36989 MEMB     305      POPC     C22      CTL2    -0.220000       12.0110           0
     36990 MEMB     305      POPC     H2R      HAL2     0.900000E-01   1.00800           0
     36991 MEMB     305      POPC     H2S      HAL2     0.900000E-01   1.00800           0
     36992 MEMB     305      POPC     C3       CTL2     0.800000E-01   12.0110           0
     36993 MEMB     305      POPC     HX       HAL2     0.900000E-01   1.00800           0
     36994 MEMB     305      POPC     HY       HAL2     0.900000E-01   1.00800           0
     36995 MEMB     305      POPC     O31      OSL     -0.490000       15.9994           0
     36996 MEMB     305      POPC     C31      CL       0.900000       12.0110           0
     36997 MEMB     305      POPC     O32      OBL     -0.630000       15.9994           0
     36998 MEMB     305      POPC     C32      CTL2    -0.220000       12.0110           0
     36999 MEMB     305      POPC     H2X      HAL2     0.900000E-01   1.00800           0
     37000 MEMB     305      POPC     H2Y      HAL2     0.900000E-01   1.00800           0
     37001 MEMB     305      POPC     C23      CTL2    -0.180000       12.0110           0
     37002 MEMB     305      POPC     H3R      HAL2     0.900000E-01   1.00800           0
     37003 MEMB     305      POPC     H3S      HAL2     0.900000E-01   1.00800           0
     37004 MEMB     305      POPC     C24      CTL2    -0.180000       12.0110           0
     37005 MEMB     305      POPC     H4R      HAL2     0.900000E-01   1.00800           0
     37006 MEMB     305      POPC     H4S      HAL2     0.900000E-01   1.00800           0
     37007 MEMB     305      POPC     C25      CTL2    -0.180000       12.0110           0
     37008 MEMB     305      POPC     H5R      HAL2     0.900000E-01   1.00800           0
     37009 MEMB     305      POPC     H5S      HAL2     0.900000E-01   1.00800           0
     37010 MEMB     305      POPC     C26      CTL2    -0.180000       12.0110           0
     37011 MEMB     305      POPC     H6R      HAL2     0.900000E-01   1.00800           0
     37012 MEMB     305      POPC     H6S      HAL2     0.900000E-01   1.00800           0
     37013 MEMB     305      POPC     C27      CTL2    -0.180000       12.0110           0
     37014 MEMB     305      POPC     H7R      HAL2     0.900000E-01   1.00800           0
     37015 MEMB     305      POPC     H7S      HAL2     0.900000E-01   1.00800           0
     37016 MEMB     305      POPC     C28      CTL2    -0.180000       12.0110           0
     37017 MEMB     305      POPC     H8R      HAL2     0.900000E-01   1.00800           0
     37018 MEMB     305      POPC     H8S      HAL2     0.900000E-01   1.00800           0
     37019 MEMB     305      POPC     C29      CEL1    -0.150000       12.0110           0
     37020 MEMB     305      POPC     H91      HEL1     0.150000       1.00800           0
     37021 MEMB     305      POPC     C210     CEL1    -0.150000       12.0110           0
     37022 MEMB     305      POPC     H101     HEL1     0.150000       1.00800           0
     37023 MEMB     305      POPC     C211     CTL2    -0.180000       12.0110           0
     37024 MEMB     305      POPC     H11R     HAL2     0.900000E-01   1.00800           0
     37025 MEMB     305      POPC     H11S     HAL2     0.900000E-01   1.00800           0
     37026 MEMB     305      POPC     C212     CTL2    -0.180000       12.0110           0
     37027 MEMB     305      POPC     H12R     HAL2     0.900000E-01   1.00800           0
     37028 MEMB     305      POPC     H12S     HAL2     0.900000E-01   1.00800           0
     37029 MEMB     305      POPC     C213     CTL2    -0.180000       12.0110           0
     37030 MEMB     305      POPC     H13R     HAL2     0.900000E-01   1.00800           0
     37031 MEMB     305      POPC     H13S     HAL2     0.900000E-01   1.00800           0
     37032 MEMB     305      POPC     C214     CTL2    -0.180000       12.0110           0
     37033 MEMB     305      POPC     H14R     HAL2     0.900000E-01   1.00800           0
     37034 MEMB     305      POPC     H14S     HAL2     0.900000E-01   1.00800           0
     37035 MEMB     305      POPC     C215     CTL2    -0.180000       12.0110           0
     37036 MEMB     305      POPC     H15R     HAL2     0.900000E-01   1.00800           0
     37037 MEMB     305      POPC     H15S     HAL2     0.900000E-01   1.00800           0
     37038 MEMB     305      POPC     C216     CTL2    -0.180000       12.0110           0
     37039 MEMB     305      POPC     H16R     HAL2     0.900000E-01   1.00800           0
     37040 MEMB     305      POPC     H16S     HAL2     0.900000E-01   1.00800           0
     37041 MEMB     305      POPC     C217     CTL2    -0.180000       12.0110           0
     37042 MEMB     305      POPC     H17R     HAL2     0.900000E-01   1.00800           0
     37043 MEMB     305      POPC     H17S     HAL2     0.900000E-01   1.00800           0
     37044 MEMB     305      POPC     C218     CTL3    -0.270000       12.0110           0
     37045 MEMB     305      POPC     H18R     HAL3     0.900000E-01   1.00800           0
     37046 MEMB     305      POPC     H18S     HAL3     0.900000E-01   1.00800           0
     37047 MEMB     305      POPC     H18T     HAL3     0.900000E-01   1.00800           0
     37048 MEMB     305      POPC     C33      CTL2    -0.180000       12.0110           0
     37049 MEMB     305      POPC     H3X      HAL2     0.900000E-01   1.00800           0
     37050 MEMB     305      POPC     H3Y      HAL2     0.900000E-01   1.00800           0
     37051 MEMB     305      POPC     C34      CTL2    -0.180000       12.0110           0
     37052 MEMB     305      POPC     H4X      HAL2     0.900000E-01   1.00800           0
     37053 MEMB     305      POPC     H4Y      HAL2     0.900000E-01   1.00800           0
     37054 MEMB     305      POPC     C35      CTL2    -0.180000       12.0110           0
     37055 MEMB     305      POPC     H5X      HAL2     0.900000E-01   1.00800           0
     37056 MEMB     305      POPC     H5Y      HAL2     0.900000E-01   1.00800           0
     37057 MEMB     305      POPC     C36      CTL2    -0.180000       12.0110           0
     37058 MEMB     305      POPC     H6X      HAL2     0.900000E-01   1.00800           0
     37059 MEMB     305      POPC     H6Y      HAL2     0.900000E-01   1.00800           0
     37060 MEMB     305      POPC     C37      CTL2    -0.180000       12.0110           0
     37061 MEMB     305      POPC     H7X      HAL2     0.900000E-01   1.00800           0
     37062 MEMB     305      POPC     H7Y      HAL2     0.900000E-01   1.00800           0
     37063 MEMB     305      POPC     C38      CTL2    -0.180000       12.0110           0
     37064 MEMB     305      POPC     H8X      HAL2     0.900000E-01   1.00800           0
     37065 MEMB     305      POPC     H8Y      HAL2     0.900000E-01   1.00800           0
     37066 MEMB     305      POPC     C39      CTL2    -0.180000       12.0110           0
     37067 MEMB     305      POPC     H9X      HAL2     0.900000E-01   1.00800           0
     37068 MEMB     305      POPC     H9Y      HAL2     0.900000E-01   1.00800           0
     37069 MEMB     305      POPC     C310     CTL2    -0.180000       12.0110           0
     37070 MEMB     305      POPC     H10X     HAL2     0.900000E-01   1.00800           0
     37071 MEMB     305      POPC     H10Y     HAL2     0.900000E-01   1.00800           0
     37072 MEMB     305      POPC     C311     CTL2    -0.180000       12.0110           0
     37073 MEMB     305      POPC     H11X     HAL2     0.900000E-01   1.00800           0
     37074 MEMB     305      POPC     H11Y     HAL2     0.900000E-01   1.00800           0
     37075 MEMB     305      POPC     C312     CTL2    -0.180000       12.0110           0
     37076 MEMB     305      POPC     H12X     HAL2     0.900000E-01   1.00800           0
     37077 MEMB     305      POPC     H12Y     HAL2     0.900000E-01   1.00800           0
     37078 MEMB     305      POPC     C313     CTL2    -0.180000       12.0110           0
     37079 MEMB     305      POPC     H13X     HAL2     0.900000E-01   1.00800           0
     37080 MEMB     305      POPC     H13Y     HAL2     0.900000E-01   1.00800           0
     37081 MEMB     305      POPC     C314     CTL2    -0.180000       12.0110           0
     37082 MEMB     305      POPC     H14X     HAL2     0.900000E-01   1.00800           0
     37083 MEMB     305      POPC     H14Y     HAL2     0.900000E-01   1.00800           0
     37084 MEMB     305      POPC     C315     CTL2    -0.180000       12.0110           0
     37085 MEMB     305      POPC     H15X     HAL2     0.900000E-01   1.00800           0
     37086 MEMB     305      POPC     H15Y     HAL2     0.900000E-01   1.00800           0
     37087 MEMB     305      POPC     C316     CTL3    -0.270000       12.0110           0
     37088 MEMB     305      POPC     H16X     HAL3     0.900000E-01   1.00800           0
     37089 MEMB     305      POPC     H16Y     HAL3     0.900000E-01   1.00800           0
     37090 MEMB     305      POPC     H16Z     HAL3     0.900000E-01   1.00800           0
     37091 MEMB     306      POPC     N        NTL     -0.600000       14.0070           0
     37092 MEMB     306      POPC     C12      CTL2    -0.100000       12.0110           0
     37093 MEMB     306      POPC     H12A     HL       0.250000       1.00800           0
     37094 MEMB     306      POPC     H12B     HL       0.250000       1.00800           0
     37095 MEMB     306      POPC     C13      CTL5    -0.350000       12.0110           0
     37096 MEMB     306      POPC     H13A     HL       0.250000       1.00800           0
     37097 MEMB     306      POPC     H13B     HL       0.250000       1.00800           0
     37098 MEMB     306      POPC     H13C     HL       0.250000       1.00800           0
     37099 MEMB     306      POPC     C14      CTL5    -0.350000       12.0110           0
     37100 MEMB     306      POPC     H14A     HL       0.250000       1.00800           0
     37101 MEMB     306      POPC     H14B     HL       0.250000       1.00800           0
     37102 MEMB     306      POPC     H14C     HL       0.250000       1.00800           0
     37103 MEMB     306      POPC     C15      CTL5    -0.350000       12.0110           0
     37104 MEMB     306      POPC     H15A     HL       0.250000       1.00800           0
     37105 MEMB     306      POPC     H15B     HL       0.250000       1.00800           0
     37106 MEMB     306      POPC     H15C     HL       0.250000       1.00800           0
     37107 MEMB     306      POPC     C11      CTL2    -0.800000E-01   12.0110           0
     37108 MEMB     306      POPC     H11A     HAL2     0.900000E-01   1.00800           0
     37109 MEMB     306      POPC     H11B     HAL2     0.900000E-01   1.00800           0
     37110 MEMB     306      POPC     P        PL        1.50000       30.9740           0
     37111 MEMB     306      POPC     O13      O2L     -0.780000       15.9994           0
     37112 MEMB     306      POPC     O14      O2L     -0.780000       15.9994           0
     37113 MEMB     306      POPC     O12      OSLP    -0.570000       15.9994           0
     37114 MEMB     306      POPC     O11      OSLP    -0.570000       15.9994           0
     37115 MEMB     306      POPC     C1       CTL2    -0.800000E-01   12.0110           0
     37116 MEMB     306      POPC     HA       HAL2     0.900000E-01   1.00800           0
     37117 MEMB     306      POPC     HB       HAL2     0.900000E-01   1.00800           0
     37118 MEMB     306      POPC     C2       CTL1     0.170000       12.0110           0
     37119 MEMB     306      POPC     HS       HAL1     0.900000E-01   1.00800           0
     37120 MEMB     306      POPC     O21      OSL     -0.490000       15.9994           0
     37121 MEMB     306      POPC     C21      CL       0.900000       12.0110           0
     37122 MEMB     306      POPC     O22      OBL     -0.630000       15.9994           0
     37123 MEMB     306      POPC     C22      CTL2    -0.220000       12.0110           0
     37124 MEMB     306      POPC     H2R      HAL2     0.900000E-01   1.00800           0
     37125 MEMB     306      POPC     H2S      HAL2     0.900000E-01   1.00800           0
     37126 MEMB     306      POPC     C3       CTL2     0.800000E-01   12.0110           0
     37127 MEMB     306      POPC     HX       HAL2     0.900000E-01   1.00800           0
     37128 MEMB     306      POPC     HY       HAL2     0.900000E-01   1.00800           0
     37129 MEMB     306      POPC     O31      OSL     -0.490000       15.9994           0
     37130 MEMB     306      POPC     C31      CL       0.900000       12.0110           0
     37131 MEMB     306      POPC     O32      OBL     -0.630000       15.9994           0
     37132 MEMB     306      POPC     C32      CTL2    -0.220000       12.0110           0
     37133 MEMB     306      POPC     H2X      HAL2     0.900000E-01   1.00800           0
     37134 MEMB     306      POPC     H2Y      HAL2     0.900000E-01   1.00800           0
     37135 MEMB     306      POPC     C23      CTL2    -0.180000       12.0110           0
     37136 MEMB     306      POPC     H3R      HAL2     0.900000E-01   1.00800           0
     37137 MEMB     306      POPC     H3S      HAL2     0.900000E-01   1.00800           0
     37138 MEMB     306      POPC     C24      CTL2    -0.180000       12.0110           0
     37139 MEMB     306      POPC     H4R      HAL2     0.900000E-01   1.00800           0
     37140 MEMB     306      POPC     H4S      HAL2     0.900000E-01   1.00800           0
     37141 MEMB     306      POPC     C25      CTL2    -0.180000       12.0110           0
     37142 MEMB     306      POPC     H5R      HAL2     0.900000E-01   1.00800           0
     37143 MEMB     306      POPC     H5S      HAL2     0.900000E-01   1.00800           0
     37144 MEMB     306      POPC     C26      CTL2    -0.180000       12.0110           0
     37145 MEMB     306      POPC     H6R      HAL2     0.900000E-01   1.00800           0
     37146 MEMB     306      POPC     H6S      HAL2     0.900000E-01   1.00800           0
     37147 MEMB     306      POPC     C27      CTL2    -0.180000       12.0110           0
     37148 MEMB     306      POPC     H7R      HAL2     0.900000E-01   1.00800           0
     37149 MEMB     306      POPC     H7S      HAL2     0.900000E-01   1.00800           0
     37150 MEMB     306      POPC     C28      CTL2    -0.180000       12.0110           0
     37151 MEMB     306      POPC     H8R      HAL2     0.900000E-01   1.00800           0
     37152 MEMB     306      POPC     H8S      HAL2     0.900000E-01   1.00800           0
     37153 MEMB     306      POPC     C29      CEL1    -0.150000       12.0110           0
     37154 MEMB     306      POPC     H91      HEL1     0.150000       1.00800           0
     37155 MEMB     306      POPC     C210     CEL1    -0.150000       12.0110           0
     37156 MEMB     306      POPC     H101     HEL1     0.150000       1.00800           0
     37157 MEMB     306      POPC     C211     CTL2    -0.180000       12.0110           0
     37158 MEMB     306      POPC     H11R     HAL2     0.900000E-01   1.00800           0
     37159 MEMB     306      POPC     H11S     HAL2     0.900000E-01   1.00800           0
     37160 MEMB     306      POPC     C212     CTL2    -0.180000       12.0110           0
     37161 MEMB     306      POPC     H12R     HAL2     0.900000E-01   1.00800           0
     37162 MEMB     306      POPC     H12S     HAL2     0.900000E-01   1.00800           0
     37163 MEMB     306      POPC     C213     CTL2    -0.180000       12.0110           0
     37164 MEMB     306      POPC     H13R     HAL2     0.900000E-01   1.00800           0
     37165 MEMB     306      POPC     H13S     HAL2     0.900000E-01   1.00800           0
     37166 MEMB     306      POPC     C214     CTL2    -0.180000       12.0110           0
     37167 MEMB     306      POPC     H14R     HAL2     0.900000E-01   1.00800           0
     37168 MEMB     306      POPC     H14S     HAL2     0.900000E-01   1.00800           0
     37169 MEMB     306      POPC     C215     CTL2    -0.180000       12.0110           0
     37170 MEMB     306      POPC     H15R     HAL2     0.900000E-01   1.00800           0
     37171 MEMB     306      POPC     H15S     HAL2     0.900000E-01   1.00800           0
     37172 MEMB     306      POPC     C216     CTL2    -0.180000       12.0110           0
     37173 MEMB     306      POPC     H16R     HAL2     0.900000E-01   1.00800           0
     37174 MEMB     306      POPC     H16S     HAL2     0.900000E-01   1.00800           0
     37175 MEMB     306      POPC     C217     CTL2    -0.180000       12.0110           0
     37176 MEMB     306      POPC     H17R     HAL2     0.900000E-01   1.00800           0
     37177 MEMB     306      POPC     H17S     HAL2     0.900000E-01   1.00800           0
     37178 MEMB     306      POPC     C218     CTL3    -0.270000       12.0110           0
     37179 MEMB     306      POPC     H18R     HAL3     0.900000E-01   1.00800           0
     37180 MEMB     306      POPC     H18S     HAL3     0.900000E-01   1.00800           0
     37181 MEMB     306      POPC     H18T     HAL3     0.900000E-01   1.00800           0
     37182 MEMB     306      POPC     C33      CTL2    -0.180000       12.0110           0
     37183 MEMB     306      POPC     H3X      HAL2     0.900000E-01   1.00800           0
     37184 MEMB     306      POPC     H3Y      HAL2     0.900000E-01   1.00800           0
     37185 MEMB     306      POPC     C34      CTL2    -0.180000       12.0110           0
     37186 MEMB     306      POPC     H4X      HAL2     0.900000E-01   1.00800           0
     37187 MEMB     306      POPC     H4Y      HAL2     0.900000E-01   1.00800           0
     37188 MEMB     306      POPC     C35      CTL2    -0.180000       12.0110           0
     37189 MEMB     306      POPC     H5X      HAL2     0.900000E-01   1.00800           0
     37190 MEMB     306      POPC     H5Y      HAL2     0.900000E-01   1.00800           0
     37191 MEMB     306      POPC     C36      CTL2    -0.180000       12.0110           0
     37192 MEMB     306      POPC     H6X      HAL2     0.900000E-01   1.00800           0
     37193 MEMB     306      POPC     H6Y      HAL2     0.900000E-01   1.00800           0
     37194 MEMB     306      POPC     C37      CTL2    -0.180000       12.0110           0
     37195 MEMB     306      POPC     H7X      HAL2     0.900000E-01   1.00800           0
     37196 MEMB     306      POPC     H7Y      HAL2     0.900000E-01   1.00800           0
     37197 MEMB     306      POPC     C38      CTL2    -0.180000       12.0110           0
     37198 MEMB     306      POPC     H8X      HAL2     0.900000E-01   1.00800           0
     37199 MEMB     306      POPC     H8Y      HAL2     0.900000E-01   1.00800           0
     37200 MEMB     306      POPC     C39      CTL2    -0.180000       12.0110           0
     37201 MEMB     306      POPC     H9X      HAL2     0.900000E-01   1.00800           0
     37202 MEMB     306      POPC     H9Y      HAL2     0.900000E-01   1.00800           0
     37203 MEMB     306      POPC     C310     CTL2    -0.180000       12.0110           0
     37204 MEMB     306      POPC     H10X     HAL2     0.900000E-01   1.00800           0
     37205 MEMB     306      POPC     H10Y     HAL2     0.900000E-01   1.00800           0
     37206 MEMB     306      POPC     C311     CTL2    -0.180000       12.0110           0
     37207 MEMB     306      POPC     H11X     HAL2     0.900000E-01   1.00800           0
     37208 MEMB     306      POPC     H11Y     HAL2     0.900000E-01   1.00800           0
     37209 MEMB     306      POPC     C312     CTL2    -0.180000       12.0110           0
     37210 MEMB     306      POPC     H12X     HAL2     0.900000E-01   1.00800           0
     37211 MEMB     306      POPC     H12Y     HAL2     0.900000E-01   1.00800           0
     37212 MEMB     306      POPC     C313     CTL2    -0.180000       12.0110           0
     37213 MEMB     306      POPC     H13X     HAL2     0.900000E-01   1.00800           0
     37214 MEMB     306      POPC     H13Y     HAL2     0.900000E-01   1.00800           0
     37215 MEMB     306      POPC     C314     CTL2    -0.180000       12.0110           0
     37216 MEMB     306      POPC     H14X     HAL2     0.900000E-01   1.00800           0
     37217 MEMB     306      POPC     H14Y     HAL2     0.900000E-01   1.00800           0
     37218 MEMB     306      POPC     C315     CTL2    -0.180000       12.0110           0
     37219 MEMB     306      POPC     H15X     HAL2     0.900000E-01   1.00800           0
     37220 MEMB     306      POPC     H15Y     HAL2     0.900000E-01   1.00800           0
     37221 MEMB     306      POPC     C316     CTL3    -0.270000       12.0110           0
     37222 MEMB     306      POPC     H16X     HAL3     0.900000E-01   1.00800           0
     37223 MEMB     306      POPC     H16Y     HAL3     0.900000E-01   1.00800           0
     37224 MEMB     306      POPC     H16Z     HAL3     0.900000E-01   1.00800           0
     37225 MEMB     307      POPC     N        NTL     -0.600000       14.0070           0
     37226 MEMB     307      POPC     C12      CTL2    -0.100000       12.0110           0
     37227 MEMB     307      POPC     H12A     HL       0.250000       1.00800           0
     37228 MEMB     307      POPC     H12B     HL       0.250000       1.00800           0
     37229 MEMB     307      POPC     C13      CTL5    -0.350000       12.0110           0
     37230 MEMB     307      POPC     H13A     HL       0.250000       1.00800           0
     37231 MEMB     307      POPC     H13B     HL       0.250000       1.00800           0
     37232 MEMB     307      POPC     H13C     HL       0.250000       1.00800           0
     37233 MEMB     307      POPC     C14      CTL5    -0.350000       12.0110           0
     37234 MEMB     307      POPC     H14A     HL       0.250000       1.00800           0
     37235 MEMB     307      POPC     H14B     HL       0.250000       1.00800           0
     37236 MEMB     307      POPC     H14C     HL       0.250000       1.00800           0
     37237 MEMB     307      POPC     C15      CTL5    -0.350000       12.0110           0
     37238 MEMB     307      POPC     H15A     HL       0.250000       1.00800           0
     37239 MEMB     307      POPC     H15B     HL       0.250000       1.00800           0
     37240 MEMB     307      POPC     H15C     HL       0.250000       1.00800           0
     37241 MEMB     307      POPC     C11      CTL2    -0.800000E-01   12.0110           0
     37242 MEMB     307      POPC     H11A     HAL2     0.900000E-01   1.00800           0
     37243 MEMB     307      POPC     H11B     HAL2     0.900000E-01   1.00800           0
     37244 MEMB     307      POPC     P        PL        1.50000       30.9740           0
     37245 MEMB     307      POPC     O13      O2L     -0.780000       15.9994           0
     37246 MEMB     307      POPC     O14      O2L     -0.780000       15.9994           0
     37247 MEMB     307      POPC     O12      OSLP    -0.570000       15.9994           0
     37248 MEMB     307      POPC     O11      OSLP    -0.570000       15.9994           0
     37249 MEMB     307      POPC     C1       CTL2    -0.800000E-01   12.0110           0
     37250 MEMB     307      POPC     HA       HAL2     0.900000E-01   1.00800           0
     37251 MEMB     307      POPC     HB       HAL2     0.900000E-01   1.00800           0
     37252 MEMB     307      POPC     C2       CTL1     0.170000       12.0110           0
     37253 MEMB     307      POPC     HS       HAL1     0.900000E-01   1.00800           0
     37254 MEMB     307      POPC     O21      OSL     -0.490000       15.9994           0
     37255 MEMB     307      POPC     C21      CL       0.900000       12.0110           0
     37256 MEMB     307      POPC     O22      OBL     -0.630000       15.9994           0
     37257 MEMB     307      POPC     C22      CTL2    -0.220000       12.0110           0
     37258 MEMB     307      POPC     H2R      HAL2     0.900000E-01   1.00800           0
     37259 MEMB     307      POPC     H2S      HAL2     0.900000E-01   1.00800           0
     37260 MEMB     307      POPC     C3       CTL2     0.800000E-01   12.0110           0
     37261 MEMB     307      POPC     HX       HAL2     0.900000E-01   1.00800           0
     37262 MEMB     307      POPC     HY       HAL2     0.900000E-01   1.00800           0
     37263 MEMB     307      POPC     O31      OSL     -0.490000       15.9994           0
     37264 MEMB     307      POPC     C31      CL       0.900000       12.0110           0
     37265 MEMB     307      POPC     O32      OBL     -0.630000       15.9994           0
     37266 MEMB     307      POPC     C32      CTL2    -0.220000       12.0110           0
     37267 MEMB     307      POPC     H2X      HAL2     0.900000E-01   1.00800           0
     37268 MEMB     307      POPC     H2Y      HAL2     0.900000E-01   1.00800           0
     37269 MEMB     307      POPC     C23      CTL2    -0.180000       12.0110           0
     37270 MEMB     307      POPC     H3R      HAL2     0.900000E-01   1.00800           0
     37271 MEMB     307      POPC     H3S      HAL2     0.900000E-01   1.00800           0
     37272 MEMB     307      POPC     C24      CTL2    -0.180000       12.0110           0
     37273 MEMB     307      POPC     H4R      HAL2     0.900000E-01   1.00800           0
     37274 MEMB     307      POPC     H4S      HAL2     0.900000E-01   1.00800           0
     37275 MEMB     307      POPC     C25      CTL2    -0.180000       12.0110           0
     37276 MEMB     307      POPC     H5R      HAL2     0.900000E-01   1.00800           0
     37277 MEMB     307      POPC     H5S      HAL2     0.900000E-01   1.00800           0
     37278 MEMB     307      POPC     C26      CTL2    -0.180000       12.0110           0
     37279 MEMB     307      POPC     H6R      HAL2     0.900000E-01   1.00800           0
     37280 MEMB     307      POPC     H6S      HAL2     0.900000E-01   1.00800           0
     37281 MEMB     307      POPC     C27      CTL2    -0.180000       12.0110           0
     37282 MEMB     307      POPC     H7R      HAL2     0.900000E-01   1.00800           0
     37283 MEMB     307      POPC     H7S      HAL2     0.900000E-01   1.00800           0
     37284 MEMB     307      POPC     C28      CTL2    -0.180000       12.0110           0
     37285 MEMB     307      POPC     H8R      HAL2     0.900000E-01   1.00800           0
     37286 MEMB     307      POPC     H8S      HAL2     0.900000E-01   1.00800           0
     37287 MEMB     307      POPC     C29      CEL1    -0.150000       12.0110           0
     37288 MEMB     307      POPC     H91      HEL1     0.150000       1.00800           0
     37289 MEMB     307      POPC     C210     CEL1    -0.150000       12.0110           0
     37290 MEMB     307      POPC     H101     HEL1     0.150000       1.00800           0
     37291 MEMB     307      POPC     C211     CTL2    -0.180000       12.0110           0
     37292 MEMB     307      POPC     H11R     HAL2     0.900000E-01   1.00800           0
     37293 MEMB     307      POPC     H11S     HAL2     0.900000E-01   1.00800           0
     37294 MEMB     307      POPC     C212     CTL2    -0.180000       12.0110           0
     37295 MEMB     307      POPC     H12R     HAL2     0.900000E-01   1.00800           0
     37296 MEMB     307      POPC     H12S     HAL2     0.900000E-01   1.00800           0
     37297 MEMB     307      POPC     C213     CTL2    -0.180000       12.0110           0
     37298 MEMB     307      POPC     H13R     HAL2     0.900000E-01   1.00800           0
     37299 MEMB     307      POPC     H13S     HAL2     0.900000E-01   1.00800           0
     37300 MEMB     307      POPC     C214     CTL2    -0.180000       12.0110           0
     37301 MEMB     307      POPC     H14R     HAL2     0.900000E-01   1.00800           0
     37302 MEMB     307      POPC     H14S     HAL2     0.900000E-01   1.00800           0
     37303 MEMB     307      POPC     C215     CTL2    -0.180000       12.0110           0
     37304 MEMB     307      POPC     H15R     HAL2     0.900000E-01   1.00800           0
     37305 MEMB     307      POPC     H15S     HAL2     0.900000E-01   1.00800           0
     37306 MEMB     307      POPC     C216     CTL2    -0.180000       12.0110           0
     37307 MEMB     307      POPC     H16R     HAL2     0.900000E-01   1.00800           0
     37308 MEMB     307      POPC     H16S     HAL2     0.900000E-01   1.00800           0
     37309 MEMB     307      POPC     C217     CTL2    -0.180000       12.0110           0
     37310 MEMB     307      POPC     H17R     HAL2     0.900000E-01   1.00800           0
     37311 MEMB     307      POPC     H17S     HAL2     0.900000E-01   1.00800           0
     37312 MEMB     307      POPC     C218     CTL3    -0.270000       12.0110           0
     37313 MEMB     307      POPC     H18R     HAL3     0.900000E-01   1.00800           0
     37314 MEMB     307      POPC     H18S     HAL3     0.900000E-01   1.00800           0
     37315 MEMB     307      POPC     H18T     HAL3     0.900000E-01   1.00800           0
     37316 MEMB     307      POPC     C33      CTL2    -0.180000       12.0110           0
     37317 MEMB     307      POPC     H3X      HAL2     0.900000E-01   1.00800           0
     37318 MEMB     307      POPC     H3Y      HAL2     0.900000E-01   1.00800           0
     37319 MEMB     307      POPC     C34      CTL2    -0.180000       12.0110           0
     37320 MEMB     307      POPC     H4X      HAL2     0.900000E-01   1.00800           0
     37321 MEMB     307      POPC     H4Y      HAL2     0.900000E-01   1.00800           0
     37322 MEMB     307      POPC     C35      CTL2    -0.180000       12.0110           0
     37323 MEMB     307      POPC     H5X      HAL2     0.900000E-01   1.00800           0
     37324 MEMB     307      POPC     H5Y      HAL2     0.900000E-01   1.00800           0
     37325 MEMB     307      POPC     C36      CTL2    -0.180000       12.0110           0
     37326 MEMB     307      POPC     H6X      HAL2     0.900000E-01   1.00800           0
     37327 MEMB     307      POPC     H6Y      HAL2     0.900000E-01   1.00800           0
     37328 MEMB     307      POPC     C37      CTL2    -0.180000       12.0110           0
     37329 MEMB     307      POPC     H7X      HAL2     0.900000E-01   1.00800           0
     37330 MEMB     307      POPC     H7Y      HAL2     0.900000E-01   1.00800           0
     37331 MEMB     307      POPC     C38      CTL2    -0.180000       12.0110           0
     37332 MEMB     307      POPC     H8X      HAL2     0.900000E-01   1.00800           0
     37333 MEMB     307      POPC     H8Y      HAL2     0.900000E-01   1.00800           0
     37334 MEMB     307      POPC     C39      CTL2    -0.180000       12.0110           0
     37335 MEMB     307      POPC     H9X      HAL2     0.900000E-01   1.00800           0
     37336 MEMB     307      POPC     H9Y      HAL2     0.900000E-01   1.00800           0
     37337 MEMB     307      POPC     C310     CTL2    -0.180000       12.0110           0
     37338 MEMB     307      POPC     H10X     HAL2     0.900000E-01   1.00800           0
     37339 MEMB     307      POPC     H10Y     HAL2     0.900000E-01   1.00800           0
     37340 MEMB     307      POPC     C311     CTL2    -0.180000       12.0110           0
     37341 MEMB     307      POPC     H11X     HAL2     0.900000E-01   1.00800           0
     37342 MEMB     307      POPC     H11Y     HAL2     0.900000E-01   1.00800           0
     37343 MEMB     307      POPC     C312     CTL2    -0.180000       12.0110           0
     37344 MEMB     307      POPC     H12X     HAL2     0.900000E-01   1.00800           0
     37345 MEMB     307      POPC     H12Y     HAL2     0.900000E-01   1.00800           0
     37346 MEMB     307      POPC     C313     CTL2    -0.180000       12.0110           0
     37347 MEMB     307      POPC     H13X     HAL2     0.900000E-01   1.00800           0
     37348 MEMB     307      POPC     H13Y     HAL2     0.900000E-01   1.00800           0
     37349 MEMB     307      POPC     C314     CTL2    -0.180000       12.0110           0
     37350 MEMB     307      POPC     H14X     HAL2     0.900000E-01   1.00800           0
     37351 MEMB     307      POPC     H14Y     HAL2     0.900000E-01   1.00800           0
     37352 MEMB     307      POPC     C315     CTL2    -0.180000       12.0110           0
     37353 MEMB     307      POPC     H15X     HAL2     0.900000E-01   1.00800           0
     37354 MEMB     307      POPC     H15Y     HAL2     0.900000E-01   1.00800           0
     37355 MEMB     307      POPC     C316     CTL3    -0.270000       12.0110           0
     37356 MEMB     307      POPC     H16X     HAL3     0.900000E-01   1.00800           0
     37357 MEMB     307      POPC     H16Y     HAL3     0.900000E-01   1.00800           0
     37358 MEMB     307      POPC     H16Z     HAL3     0.900000E-01   1.00800           0
     37359 MEMB     308      POPC     N        NTL     -0.600000       14.0070           0
     37360 MEMB     308      POPC     C12      CTL2    -0.100000       12.0110           0
     37361 MEMB     308      POPC     H12A     HL       0.250000       1.00800           0
     37362 MEMB     308      POPC     H12B     HL       0.250000       1.00800           0
     37363 MEMB     308      POPC     C13      CTL5    -0.350000       12.0110           0
     37364 MEMB     308      POPC     H13A     HL       0.250000       1.00800           0
     37365 MEMB     308      POPC     H13B     HL       0.250000       1.00800           0
     37366 MEMB     308      POPC     H13C     HL       0.250000       1.00800           0
     37367 MEMB     308      POPC     C14      CTL5    -0.350000       12.0110           0
     37368 MEMB     308      POPC     H14A     HL       0.250000       1.00800           0
     37369 MEMB     308      POPC     H14B     HL       0.250000       1.00800           0
     37370 MEMB     308      POPC     H14C     HL       0.250000       1.00800           0
     37371 MEMB     308      POPC     C15      CTL5    -0.350000       12.0110           0
     37372 MEMB     308      POPC     H15A     HL       0.250000       1.00800           0
     37373 MEMB     308      POPC     H15B     HL       0.250000       1.00800           0
     37374 MEMB     308      POPC     H15C     HL       0.250000       1.00800           0
     37375 MEMB     308      POPC     C11      CTL2    -0.800000E-01   12.0110           0
     37376 MEMB     308      POPC     H11A     HAL2     0.900000E-01   1.00800           0
     37377 MEMB     308      POPC     H11B     HAL2     0.900000E-01   1.00800           0
     37378 MEMB     308      POPC     P        PL        1.50000       30.9740           0
     37379 MEMB     308      POPC     O13      O2L     -0.780000       15.9994           0
     37380 MEMB     308      POPC     O14      O2L     -0.780000       15.9994           0
     37381 MEMB     308      POPC     O12      OSLP    -0.570000       15.9994           0
     37382 MEMB     308      POPC     O11      OSLP    -0.570000       15.9994           0
     37383 MEMB     308      POPC     C1       CTL2    -0.800000E-01   12.0110           0
     37384 MEMB     308      POPC     HA       HAL2     0.900000E-01   1.00800           0
     37385 MEMB     308      POPC     HB       HAL2     0.900000E-01   1.00800           0
     37386 MEMB     308      POPC     C2       CTL1     0.170000       12.0110           0
     37387 MEMB     308      POPC     HS       HAL1     0.900000E-01   1.00800           0
     37388 MEMB     308      POPC     O21      OSL     -0.490000       15.9994           0
     37389 MEMB     308      POPC     C21      CL       0.900000       12.0110           0
     37390 MEMB     308      POPC     O22      OBL     -0.630000       15.9994           0
     37391 MEMB     308      POPC     C22      CTL2    -0.220000       12.0110           0
     37392 MEMB     308      POPC     H2R      HAL2     0.900000E-01   1.00800           0
     37393 MEMB     308      POPC     H2S      HAL2     0.900000E-01   1.00800           0
     37394 MEMB     308      POPC     C3       CTL2     0.800000E-01   12.0110           0
     37395 MEMB     308      POPC     HX       HAL2     0.900000E-01   1.00800           0
     37396 MEMB     308      POPC     HY       HAL2     0.900000E-01   1.00800           0
     37397 MEMB     308      POPC     O31      OSL     -0.490000       15.9994           0
     37398 MEMB     308      POPC     C31      CL       0.900000       12.0110           0
     37399 MEMB     308      POPC     O32      OBL     -0.630000       15.9994           0
     37400 MEMB     308      POPC     C32      CTL2    -0.220000       12.0110           0
     37401 MEMB     308      POPC     H2X      HAL2     0.900000E-01   1.00800           0
     37402 MEMB     308      POPC     H2Y      HAL2     0.900000E-01   1.00800           0
     37403 MEMB     308      POPC     C23      CTL2    -0.180000       12.0110           0
     37404 MEMB     308      POPC     H3R      HAL2     0.900000E-01   1.00800           0
     37405 MEMB     308      POPC     H3S      HAL2     0.900000E-01   1.00800           0
     37406 MEMB     308      POPC     C24      CTL2    -0.180000       12.0110           0
     37407 MEMB     308      POPC     H4R      HAL2     0.900000E-01   1.00800           0
     37408 MEMB     308      POPC     H4S      HAL2     0.900000E-01   1.00800           0
     37409 MEMB     308      POPC     C25      CTL2    -0.180000       12.0110           0
     37410 MEMB     308      POPC     H5R      HAL2     0.900000E-01   1.00800           0
     37411 MEMB     308      POPC     H5S      HAL2     0.900000E-01   1.00800           0
     37412 MEMB     308      POPC     C26      CTL2    -0.180000       12.0110           0
     37413 MEMB     308      POPC     H6R      HAL2     0.900000E-01   1.00800           0
     37414 MEMB     308      POPC     H6S      HAL2     0.900000E-01   1.00800           0
     37415 MEMB     308      POPC     C27      CTL2    -0.180000       12.0110           0
     37416 MEMB     308      POPC     H7R      HAL2     0.900000E-01   1.00800           0
     37417 MEMB     308      POPC     H7S      HAL2     0.900000E-01   1.00800           0
     37418 MEMB     308      POPC     C28      CTL2    -0.180000       12.0110           0
     37419 MEMB     308      POPC     H8R      HAL2     0.900000E-01   1.00800           0
     37420 MEMB     308      POPC     H8S      HAL2     0.900000E-01   1.00800           0
     37421 MEMB     308      POPC     C29      CEL1    -0.150000       12.0110           0
     37422 MEMB     308      POPC     H91      HEL1     0.150000       1.00800           0
     37423 MEMB     308      POPC     C210     CEL1    -0.150000       12.0110           0
     37424 MEMB     308      POPC     H101     HEL1     0.150000       1.00800           0
     37425 MEMB     308      POPC     C211     CTL2    -0.180000       12.0110           0
     37426 MEMB     308      POPC     H11R     HAL2     0.900000E-01   1.00800           0
     37427 MEMB     308      POPC     H11S     HAL2     0.900000E-01   1.00800           0
     37428 MEMB     308      POPC     C212     CTL2    -0.180000       12.0110           0
     37429 MEMB     308      POPC     H12R     HAL2     0.900000E-01   1.00800           0
     37430 MEMB     308      POPC     H12S     HAL2     0.900000E-01   1.00800           0
     37431 MEMB     308      POPC     C213     CTL2    -0.180000       12.0110           0
     37432 MEMB     308      POPC     H13R     HAL2     0.900000E-01   1.00800           0
     37433 MEMB     308      POPC     H13S     HAL2     0.900000E-01   1.00800           0
     37434 MEMB     308      POPC     C214     CTL2    -0.180000       12.0110           0
     37435 MEMB     308      POPC     H14R     HAL2     0.900000E-01   1.00800           0
     37436 MEMB     308      POPC     H14S     HAL2     0.900000E-01   1.00800           0
     37437 MEMB     308      POPC     C215     CTL2    -0.180000       12.0110           0
     37438 MEMB     308      POPC     H15R     HAL2     0.900000E-01   1.00800           0
     37439 MEMB     308      POPC     H15S     HAL2     0.900000E-01   1.00800           0
     37440 MEMB     308      POPC     C216     CTL2    -0.180000       12.0110           0
     37441 MEMB     308      POPC     H16R     HAL2     0.900000E-01   1.00800           0
     37442 MEMB     308      POPC     H16S     HAL2     0.900000E-01   1.00800           0
     37443 MEMB     308      POPC     C217     CTL2    -0.180000       12.0110           0
     37444 MEMB     308      POPC     H17R     HAL2     0.900000E-01   1.00800           0
     37445 MEMB     308      POPC     H17S     HAL2     0.900000E-01   1.00800           0
     37446 MEMB     308      POPC     C218     CTL3    -0.270000       12.0110           0
     37447 MEMB     308      POPC     H18R     HAL3     0.900000E-01   1.00800           0
     37448 MEMB     308      POPC     H18S     HAL3     0.900000E-01   1.00800           0
     37449 MEMB     308      POPC     H18T     HAL3     0.900000E-01   1.00800           0
     37450 MEMB     308      POPC     C33      CTL2    -0.180000       12.0110           0
     37451 MEMB     308      POPC     H3X      HAL2     0.900000E-01   1.00800           0
     37452 MEMB     308      POPC     H3Y      HAL2     0.900000E-01   1.00800           0
     37453 MEMB     308      POPC     C34      CTL2    -0.180000       12.0110           0
     37454 MEMB     308      POPC     H4X      HAL2     0.900000E-01   1.00800           0
     37455 MEMB     308      POPC     H4Y      HAL2     0.900000E-01   1.00800           0
     37456 MEMB     308      POPC     C35      CTL2    -0.180000       12.0110           0
     37457 MEMB     308      POPC     H5X      HAL2     0.900000E-01   1.00800           0
     37458 MEMB     308      POPC     H5Y      HAL2     0.900000E-01   1.00800           0
     37459 MEMB     308      POPC     C36      CTL2    -0.180000       12.0110           0
     37460 MEMB     308      POPC     H6X      HAL2     0.900000E-01   1.00800           0
     37461 MEMB     308      POPC     H6Y      HAL2     0.900000E-01   1.00800           0
     37462 MEMB     308      POPC     C37      CTL2    -0.180000       12.0110           0
     37463 MEMB     308      POPC     H7X      HAL2     0.900000E-01   1.00800           0
     37464 MEMB     308      POPC     H7Y      HAL2     0.900000E-01   1.00800           0
     37465 MEMB     308      POPC     C38      CTL2    -0.180000       12.0110           0
     37466 MEMB     308      POPC     H8X      HAL2     0.900000E-01   1.00800           0
     37467 MEMB     308      POPC     H8Y      HAL2     0.900000E-01   1.00800           0
     37468 MEMB     308      POPC     C39      CTL2    -0.180000       12.0110           0
     37469 MEMB     308      POPC     H9X      HAL2     0.900000E-01   1.00800           0
     37470 MEMB     308      POPC     H9Y      HAL2     0.900000E-01   1.00800           0
     37471 MEMB     308      POPC     C310     CTL2    -0.180000       12.0110           0
     37472 MEMB     308      POPC     H10X     HAL2     0.900000E-01   1.00800           0
     37473 MEMB     308      POPC     H10Y     HAL2     0.900000E-01   1.00800           0
     37474 MEMB     308      POPC     C311     CTL2    -0.180000       12.0110           0
     37475 MEMB     308      POPC     H11X     HAL2     0.900000E-01   1.00800           0
     37476 MEMB     308      POPC     H11Y     HAL2     0.900000E-01   1.00800           0
     37477 MEMB     308      POPC     C312     CTL2    -0.180000       12.0110           0
     37478 MEMB     308      POPC     H12X     HAL2     0.900000E-01   1.00800           0
     37479 MEMB     308      POPC     H12Y     HAL2     0.900000E-01   1.00800           0
     37480 MEMB     308      POPC     C313     CTL2    -0.180000       12.0110           0
     37481 MEMB     308      POPC     H13X     HAL2     0.900000E-01   1.00800           0
     37482 MEMB     308      POPC     H13Y     HAL2     0.900000E-01   1.00800           0
     37483 MEMB     308      POPC     C314     CTL2    -0.180000       12.0110           0
     37484 MEMB     308      POPC     H14X     HAL2     0.900000E-01   1.00800           0
     37485 MEMB     308      POPC     H14Y     HAL2     0.900000E-01   1.00800           0
     37486 MEMB     308      POPC     C315     CTL2    -0.180000       12.0110           0
     37487 MEMB     308      POPC     H15X     HAL2     0.900000E-01   1.00800           0
     37488 MEMB     308      POPC     H15Y     HAL2     0.900000E-01   1.00800           0
     37489 MEMB     308      POPC     C316     CTL3    -0.270000       12.0110           0
     37490 MEMB     308      POPC     H16X     HAL3     0.900000E-01   1.00800           0
     37491 MEMB     308      POPC     H16Y     HAL3     0.900000E-01   1.00800           0
     37492 MEMB     308      POPC     H16Z     HAL3     0.900000E-01   1.00800           0
     37493 MEMB     309      POPC     N        NTL     -0.600000       14.0070           0
     37494 MEMB     309      POPC     C12      CTL2    -0.100000       12.0110           0
     37495 MEMB     309      POPC     H12A     HL       0.250000       1.00800           0
     37496 MEMB     309      POPC     H12B     HL       0.250000       1.00800           0
     37497 MEMB     309      POPC     C13      CTL5    -0.350000       12.0110           0
     37498 MEMB     309      POPC     H13A     HL       0.250000       1.00800           0
     37499 MEMB     309      POPC     H13B     HL       0.250000       1.00800           0
     37500 MEMB     309      POPC     H13C     HL       0.250000       1.00800           0
     37501 MEMB     309      POPC     C14      CTL5    -0.350000       12.0110           0
     37502 MEMB     309      POPC     H14A     HL       0.250000       1.00800           0
     37503 MEMB     309      POPC     H14B     HL       0.250000       1.00800           0
     37504 MEMB     309      POPC     H14C     HL       0.250000       1.00800           0
     37505 MEMB     309      POPC     C15      CTL5    -0.350000       12.0110           0
     37506 MEMB     309      POPC     H15A     HL       0.250000       1.00800           0
     37507 MEMB     309      POPC     H15B     HL       0.250000       1.00800           0
     37508 MEMB     309      POPC     H15C     HL       0.250000       1.00800           0
     37509 MEMB     309      POPC     C11      CTL2    -0.800000E-01   12.0110           0
     37510 MEMB     309      POPC     H11A     HAL2     0.900000E-01   1.00800           0
     37511 MEMB     309      POPC     H11B     HAL2     0.900000E-01   1.00800           0
     37512 MEMB     309      POPC     P        PL        1.50000       30.9740           0
     37513 MEMB     309      POPC     O13      O2L     -0.780000       15.9994           0
     37514 MEMB     309      POPC     O14      O2L     -0.780000       15.9994           0
     37515 MEMB     309      POPC     O12      OSLP    -0.570000       15.9994           0
     37516 MEMB     309      POPC     O11      OSLP    -0.570000       15.9994           0
     37517 MEMB     309      POPC     C1       CTL2    -0.800000E-01   12.0110           0
     37518 MEMB     309      POPC     HA       HAL2     0.900000E-01   1.00800           0
     37519 MEMB     309      POPC     HB       HAL2     0.900000E-01   1.00800           0
     37520 MEMB     309      POPC     C2       CTL1     0.170000       12.0110           0
     37521 MEMB     309      POPC     HS       HAL1     0.900000E-01   1.00800           0
     37522 MEMB     309      POPC     O21      OSL     -0.490000       15.9994           0
     37523 MEMB     309      POPC     C21      CL       0.900000       12.0110           0
     37524 MEMB     309      POPC     O22      OBL     -0.630000       15.9994           0
     37525 MEMB     309      POPC     C22      CTL2    -0.220000       12.0110           0
     37526 MEMB     309      POPC     H2R      HAL2     0.900000E-01   1.00800           0
     37527 MEMB     309      POPC     H2S      HAL2     0.900000E-01   1.00800           0
     37528 MEMB     309      POPC     C3       CTL2     0.800000E-01   12.0110           0
     37529 MEMB     309      POPC     HX       HAL2     0.900000E-01   1.00800           0
     37530 MEMB     309      POPC     HY       HAL2     0.900000E-01   1.00800           0
     37531 MEMB     309      POPC     O31      OSL     -0.490000       15.9994           0
     37532 MEMB     309      POPC     C31      CL       0.900000       12.0110           0
     37533 MEMB     309      POPC     O32      OBL     -0.630000       15.9994           0
     37534 MEMB     309      POPC     C32      CTL2    -0.220000       12.0110           0
     37535 MEMB     309      POPC     H2X      HAL2     0.900000E-01   1.00800           0
     37536 MEMB     309      POPC     H2Y      HAL2     0.900000E-01   1.00800           0
     37537 MEMB     309      POPC     C23      CTL2    -0.180000       12.0110           0
     37538 MEMB     309      POPC     H3R      HAL2     0.900000E-01   1.00800           0
     37539 MEMB     309      POPC     H3S      HAL2     0.900000E-01   1.00800           0
     37540 MEMB     309      POPC     C24      CTL2    -0.180000       12.0110           0
     37541 MEMB     309      POPC     H4R      HAL2     0.900000E-01   1.00800           0
     37542 MEMB     309      POPC     H4S      HAL2     0.900000E-01   1.00800           0
     37543 MEMB     309      POPC     C25      CTL2    -0.180000       12.0110           0
     37544 MEMB     309      POPC     H5R      HAL2     0.900000E-01   1.00800           0
     37545 MEMB     309      POPC     H5S      HAL2     0.900000E-01   1.00800           0
     37546 MEMB     309      POPC     C26      CTL2    -0.180000       12.0110           0
     37547 MEMB     309      POPC     H6R      HAL2     0.900000E-01   1.00800           0
     37548 MEMB     309      POPC     H6S      HAL2     0.900000E-01   1.00800           0
     37549 MEMB     309      POPC     C27      CTL2    -0.180000       12.0110           0
     37550 MEMB     309      POPC     H7R      HAL2     0.900000E-01   1.00800           0
     37551 MEMB     309      POPC     H7S      HAL2     0.900000E-01   1.00800           0
     37552 MEMB     309      POPC     C28      CTL2    -0.180000       12.0110           0
     37553 MEMB     309      POPC     H8R      HAL2     0.900000E-01   1.00800           0
     37554 MEMB     309      POPC     H8S      HAL2     0.900000E-01   1.00800           0
     37555 MEMB     309      POPC     C29      CEL1    -0.150000       12.0110           0
     37556 MEMB     309      POPC     H91      HEL1     0.150000       1.00800           0
     37557 MEMB     309      POPC     C210     CEL1    -0.150000       12.0110           0
     37558 MEMB     309      POPC     H101     HEL1     0.150000       1.00800           0
     37559 MEMB     309      POPC     C211     CTL2    -0.180000       12.0110           0
     37560 MEMB     309      POPC     H11R     HAL2     0.900000E-01   1.00800           0
     37561 MEMB     309      POPC     H11S     HAL2     0.900000E-01   1.00800           0
     37562 MEMB     309      POPC     C212     CTL2    -0.180000       12.0110           0
     37563 MEMB     309      POPC     H12R     HAL2     0.900000E-01   1.00800           0
     37564 MEMB     309      POPC     H12S     HAL2     0.900000E-01   1.00800           0
     37565 MEMB     309      POPC     C213     CTL2    -0.180000       12.0110           0
     37566 MEMB     309      POPC     H13R     HAL2     0.900000E-01   1.00800           0
     37567 MEMB     309      POPC     H13S     HAL2     0.900000E-01   1.00800           0
     37568 MEMB     309      POPC     C214     CTL2    -0.180000       12.0110           0
     37569 MEMB     309      POPC     H14R     HAL2     0.900000E-01   1.00800           0
     37570 MEMB     309      POPC     H14S     HAL2     0.900000E-01   1.00800           0
     37571 MEMB     309      POPC     C215     CTL2    -0.180000       12.0110           0
     37572 MEMB     309      POPC     H15R     HAL2     0.900000E-01   1.00800           0
     37573 MEMB     309      POPC     H15S     HAL2     0.900000E-01   1.00800           0
     37574 MEMB     309      POPC     C216     CTL2    -0.180000       12.0110           0
     37575 MEMB     309      POPC     H16R     HAL2     0.900000E-01   1.00800           0
     37576 MEMB     309      POPC     H16S     HAL2     0.900000E-01   1.00800           0
     37577 MEMB     309      POPC     C217     CTL2    -0.180000       12.0110           0
     37578 MEMB     309      POPC     H17R     HAL2     0.900000E-01   1.00800           0
     37579 MEMB     309      POPC     H17S     HAL2     0.900000E-01   1.00800           0
     37580 MEMB     309      POPC     C218     CTL3    -0.270000       12.0110           0
     37581 MEMB     309      POPC     H18R     HAL3     0.900000E-01   1.00800           0
     37582 MEMB     309      POPC     H18S     HAL3     0.900000E-01   1.00800           0
     37583 MEMB     309      POPC     H18T     HAL3     0.900000E-01   1.00800           0
     37584 MEMB     309      POPC     C33      CTL2    -0.180000       12.0110           0
     37585 MEMB     309      POPC     H3X      HAL2     0.900000E-01   1.00800           0
     37586 MEMB     309      POPC     H3Y      HAL2     0.900000E-01   1.00800           0
     37587 MEMB     309      POPC     C34      CTL2    -0.180000       12.0110           0
     37588 MEMB     309      POPC     H4X      HAL2     0.900000E-01   1.00800           0
     37589 MEMB     309      POPC     H4Y      HAL2     0.900000E-01   1.00800           0
     37590 MEMB     309      POPC     C35      CTL2    -0.180000       12.0110           0
     37591 MEMB     309      POPC     H5X      HAL2     0.900000E-01   1.00800           0
     37592 MEMB     309      POPC     H5Y      HAL2     0.900000E-01   1.00800           0
     37593 MEMB     309      POPC     C36      CTL2    -0.180000       12.0110           0
     37594 MEMB     309      POPC     H6X      HAL2     0.900000E-01   1.00800           0
     37595 MEMB     309      POPC     H6Y      HAL2     0.900000E-01   1.00800           0
     37596 MEMB     309      POPC     C37      CTL2    -0.180000       12.0110           0
     37597 MEMB     309      POPC     H7X      HAL2     0.900000E-01   1.00800           0
     37598 MEMB     309      POPC     H7Y      HAL2     0.900000E-01   1.00800           0
     37599 MEMB     309      POPC     C38      CTL2    -0.180000       12.0110           0
     37600 MEMB     309      POPC     H8X      HAL2     0.900000E-01   1.00800           0
     37601 MEMB     309      POPC     H8Y      HAL2     0.900000E-01   1.00800           0
     37602 MEMB     309      POPC     C39      CTL2    -0.180000       12.0110           0
     37603 MEMB     309      POPC     H9X      HAL2     0.900000E-01   1.00800           0
     37604 MEMB     309      POPC     H9Y      HAL2     0.900000E-01   1.00800           0
     37605 MEMB     309      POPC     C310     CTL2    -0.180000       12.0110           0
     37606 MEMB     309      POPC     H10X     HAL2     0.900000E-01   1.00800           0
     37607 MEMB     309      POPC     H10Y     HAL2     0.900000E-01   1.00800           0
     37608 MEMB     309      POPC     C311     CTL2    -0.180000       12.0110           0
     37609 MEMB     309      POPC     H11X     HAL2     0.900000E-01   1.00800           0
     37610 MEMB     309      POPC     H11Y     HAL2     0.900000E-01   1.00800           0
     37611 MEMB     309      POPC     C312     CTL2    -0.180000       12.0110           0
     37612 MEMB     309      POPC     H12X     HAL2     0.900000E-01   1.00800           0
     37613 MEMB     309      POPC     H12Y     HAL2     0.900000E-01   1.00800           0
     37614 MEMB     309      POPC     C313     CTL2    -0.180000       12.0110           0
     37615 MEMB     309      POPC     H13X     HAL2     0.900000E-01   1.00800           0
     37616 MEMB     309      POPC     H13Y     HAL2     0.900000E-01   1.00800           0
     37617 MEMB     309      POPC     C314     CTL2    -0.180000       12.0110           0
     37618 MEMB     309      POPC     H14X     HAL2     0.900000E-01   1.00800           0
     37619 MEMB     309      POPC     H14Y     HAL2     0.900000E-01   1.00800           0
     37620 MEMB     309      POPC     C315     CTL2    -0.180000       12.0110           0
     37621 MEMB     309      POPC     H15X     HAL2     0.900000E-01   1.00800           0
     37622 MEMB     309      POPC     H15Y     HAL2     0.900000E-01   1.00800           0
     37623 MEMB     309      POPC     C316     CTL3    -0.270000       12.0110           0
     37624 MEMB     309      POPC     H16X     HAL3     0.900000E-01   1.00800           0
     37625 MEMB     309      POPC     H16Y     HAL3     0.900000E-01   1.00800           0
     37626 MEMB     309      POPC     H16Z     HAL3     0.900000E-01   1.00800           0
     37627 MEMB     310      POPC     N        NTL     -0.600000       14.0070           0
     37628 MEMB     310      POPC     C12      CTL2    -0.100000       12.0110           0
     37629 MEMB     310      POPC     H12A     HL       0.250000       1.00800           0
     37630 MEMB     310      POPC     H12B     HL       0.250000       1.00800           0
     37631 MEMB     310      POPC     C13      CTL5    -0.350000       12.0110           0
     37632 MEMB     310      POPC     H13A     HL       0.250000       1.00800           0
     37633 MEMB     310      POPC     H13B     HL       0.250000       1.00800           0
     37634 MEMB     310      POPC     H13C     HL       0.250000       1.00800           0
     37635 MEMB     310      POPC     C14      CTL5    -0.350000       12.0110           0
     37636 MEMB     310      POPC     H14A     HL       0.250000       1.00800           0
     37637 MEMB     310      POPC     H14B     HL       0.250000       1.00800           0
     37638 MEMB     310      POPC     H14C     HL       0.250000       1.00800           0
     37639 MEMB     310      POPC     C15      CTL5    -0.350000       12.0110           0
     37640 MEMB     310      POPC     H15A     HL       0.250000       1.00800           0
     37641 MEMB     310      POPC     H15B     HL       0.250000       1.00800           0
     37642 MEMB     310      POPC     H15C     HL       0.250000       1.00800           0
     37643 MEMB     310      POPC     C11      CTL2    -0.800000E-01   12.0110           0
     37644 MEMB     310      POPC     H11A     HAL2     0.900000E-01   1.00800           0
     37645 MEMB     310      POPC     H11B     HAL2     0.900000E-01   1.00800           0
     37646 MEMB     310      POPC     P        PL        1.50000       30.9740           0
     37647 MEMB     310      POPC     O13      O2L     -0.780000       15.9994           0
     37648 MEMB     310      POPC     O14      O2L     -0.780000       15.9994           0
     37649 MEMB     310      POPC     O12      OSLP    -0.570000       15.9994           0
     37650 MEMB     310      POPC     O11      OSLP    -0.570000       15.9994           0
     37651 MEMB     310      POPC     C1       CTL2    -0.800000E-01   12.0110           0
     37652 MEMB     310      POPC     HA       HAL2     0.900000E-01   1.00800           0
     37653 MEMB     310      POPC     HB       HAL2     0.900000E-01   1.00800           0
     37654 MEMB     310      POPC     C2       CTL1     0.170000       12.0110           0
     37655 MEMB     310      POPC     HS       HAL1     0.900000E-01   1.00800           0
     37656 MEMB     310      POPC     O21      OSL     -0.490000       15.9994           0
     37657 MEMB     310      POPC     C21      CL       0.900000       12.0110           0
     37658 MEMB     310      POPC     O22      OBL     -0.630000       15.9994           0
     37659 MEMB     310      POPC     C22      CTL2    -0.220000       12.0110           0
     37660 MEMB     310      POPC     H2R      HAL2     0.900000E-01   1.00800           0
     37661 MEMB     310      POPC     H2S      HAL2     0.900000E-01   1.00800           0
     37662 MEMB     310      POPC     C3       CTL2     0.800000E-01   12.0110           0
     37663 MEMB     310      POPC     HX       HAL2     0.900000E-01   1.00800           0
     37664 MEMB     310      POPC     HY       HAL2     0.900000E-01   1.00800           0
     37665 MEMB     310      POPC     O31      OSL     -0.490000       15.9994           0
     37666 MEMB     310      POPC     C31      CL       0.900000       12.0110           0
     37667 MEMB     310      POPC     O32      OBL     -0.630000       15.9994           0
     37668 MEMB     310      POPC     C32      CTL2    -0.220000       12.0110           0
     37669 MEMB     310      POPC     H2X      HAL2     0.900000E-01   1.00800           0
     37670 MEMB     310      POPC     H2Y      HAL2     0.900000E-01   1.00800           0
     37671 MEMB     310      POPC     C23      CTL2    -0.180000       12.0110           0
     37672 MEMB     310      POPC     H3R      HAL2     0.900000E-01   1.00800           0
     37673 MEMB     310      POPC     H3S      HAL2     0.900000E-01   1.00800           0
     37674 MEMB     310      POPC     C24      CTL2    -0.180000       12.0110           0
     37675 MEMB     310      POPC     H4R      HAL2     0.900000E-01   1.00800           0
     37676 MEMB     310      POPC     H4S      HAL2     0.900000E-01   1.00800           0
     37677 MEMB     310      POPC     C25      CTL2    -0.180000       12.0110           0
     37678 MEMB     310      POPC     H5R      HAL2     0.900000E-01   1.00800           0
     37679 MEMB     310      POPC     H5S      HAL2     0.900000E-01   1.00800           0
     37680 MEMB     310      POPC     C26      CTL2    -0.180000       12.0110           0
     37681 MEMB     310      POPC     H6R      HAL2     0.900000E-01   1.00800           0
     37682 MEMB     310      POPC     H6S      HAL2     0.900000E-01   1.00800           0
     37683 MEMB     310      POPC     C27      CTL2    -0.180000       12.0110           0
     37684 MEMB     310      POPC     H7R      HAL2     0.900000E-01   1.00800           0
     37685 MEMB     310      POPC     H7S      HAL2     0.900000E-01   1.00800           0
     37686 MEMB     310      POPC     C28      CTL2    -0.180000       12.0110           0
     37687 MEMB     310      POPC     H8R      HAL2     0.900000E-01   1.00800           0
     37688 MEMB     310      POPC     H8S      HAL2     0.900000E-01   1.00800           0
     37689 MEMB     310      POPC     C29      CEL1    -0.150000       12.0110           0
     37690 MEMB     310      POPC     H91      HEL1     0.150000       1.00800           0
     37691 MEMB     310      POPC     C210     CEL1    -0.150000       12.0110           0
     37692 MEMB     310      POPC     H101     HEL1     0.150000       1.00800           0
     37693 MEMB     310      POPC     C211     CTL2    -0.180000       12.0110           0
     37694 MEMB     310      POPC     H11R     HAL2     0.900000E-01   1.00800           0
     37695 MEMB     310      POPC     H11S     HAL2     0.900000E-01   1.00800           0
     37696 MEMB     310      POPC     C212     CTL2    -0.180000       12.0110           0
     37697 MEMB     310      POPC     H12R     HAL2     0.900000E-01   1.00800           0
     37698 MEMB     310      POPC     H12S     HAL2     0.900000E-01   1.00800           0
     37699 MEMB     310      POPC     C213     CTL2    -0.180000       12.0110           0
     37700 MEMB     310      POPC     H13R     HAL2     0.900000E-01   1.00800           0
     37701 MEMB     310      POPC     H13S     HAL2     0.900000E-01   1.00800           0
     37702 MEMB     310      POPC     C214     CTL2    -0.180000       12.0110           0
     37703 MEMB     310      POPC     H14R     HAL2     0.900000E-01   1.00800           0
     37704 MEMB     310      POPC     H14S     HAL2     0.900000E-01   1.00800           0
     37705 MEMB     310      POPC     C215     CTL2    -0.180000       12.0110           0
     37706 MEMB     310      POPC     H15R     HAL2     0.900000E-01   1.00800           0
     37707 MEMB     310      POPC     H15S     HAL2     0.900000E-01   1.00800           0
     37708 MEMB     310      POPC     C216     CTL2    -0.180000       12.0110           0
     37709 MEMB     310      POPC     H16R     HAL2     0.900000E-01   1.00800           0
     37710 MEMB     310      POPC     H16S     HAL2     0.900000E-01   1.00800           0
     37711 MEMB     310      POPC     C217     CTL2    -0.180000       12.0110           0
     37712 MEMB     310      POPC     H17R     HAL2     0.900000E-01   1.00800           0
     37713 MEMB     310      POPC     H17S     HAL2     0.900000E-01   1.00800           0
     37714 MEMB     310      POPC     C218     CTL3    -0.270000       12.0110           0
     37715 MEMB     310      POPC     H18R     HAL3     0.900000E-01   1.00800           0
     37716 MEMB     310      POPC     H18S     HAL3     0.900000E-01   1.00800           0
     37717 MEMB     310      POPC     H18T     HAL3     0.900000E-01   1.00800           0
     37718 MEMB     310      POPC     C33      CTL2    -0.180000       12.0110           0
     37719 MEMB     310      POPC     H3X      HAL2     0.900000E-01   1.00800           0
     37720 MEMB     310      POPC     H3Y      HAL2     0.900000E-01   1.00800           0
     37721 MEMB     310      POPC     C34      CTL2    -0.180000       12.0110           0
     37722 MEMB     310      POPC     H4X      HAL2     0.900000E-01   1.00800           0
     37723 MEMB     310      POPC     H4Y      HAL2     0.900000E-01   1.00800           0
     37724 MEMB     310      POPC     C35      CTL2    -0.180000       12.0110           0
     37725 MEMB     310      POPC     H5X      HAL2     0.900000E-01   1.00800           0
     37726 MEMB     310      POPC     H5Y      HAL2     0.900000E-01   1.00800           0
     37727 MEMB     310      POPC     C36      CTL2    -0.180000       12.0110           0
     37728 MEMB     310      POPC     H6X      HAL2     0.900000E-01   1.00800           0
     37729 MEMB     310      POPC     H6Y      HAL2     0.900000E-01   1.00800           0
     37730 MEMB     310      POPC     C37      CTL2    -0.180000       12.0110           0
     37731 MEMB     310      POPC     H7X      HAL2     0.900000E-01   1.00800           0
     37732 MEMB     310      POPC     H7Y      HAL2     0.900000E-01   1.00800           0
     37733 MEMB     310      POPC     C38      CTL2    -0.180000       12.0110           0
     37734 MEMB     310      POPC     H8X      HAL2     0.900000E-01   1.00800           0
     37735 MEMB     310      POPC     H8Y      HAL2     0.900000E-01   1.00800           0
     37736 MEMB     310      POPC     C39      CTL2    -0.180000       12.0110           0
     37737 MEMB     310      POPC     H9X      HAL2     0.900000E-01   1.00800           0
     37738 MEMB     310      POPC     H9Y      HAL2     0.900000E-01   1.00800           0
     37739 MEMB     310      POPC     C310     CTL2    -0.180000       12.0110           0
     37740 MEMB     310      POPC     H10X     HAL2     0.900000E-01   1.00800           0
     37741 MEMB     310      POPC     H10Y     HAL2     0.900000E-01   1.00800           0
     37742 MEMB     310      POPC     C311     CTL2    -0.180000       12.0110           0
     37743 MEMB     310      POPC     H11X     HAL2     0.900000E-01   1.00800           0
     37744 MEMB     310      POPC     H11Y     HAL2     0.900000E-01   1.00800           0
     37745 MEMB     310      POPC     C312     CTL2    -0.180000       12.0110           0
     37746 MEMB     310      POPC     H12X     HAL2     0.900000E-01   1.00800           0
     37747 MEMB     310      POPC     H12Y     HAL2     0.900000E-01   1.00800           0
     37748 MEMB     310      POPC     C313     CTL2    -0.180000       12.0110           0
     37749 MEMB     310      POPC     H13X     HAL2     0.900000E-01   1.00800           0
     37750 MEMB     310      POPC     H13Y     HAL2     0.900000E-01   1.00800           0
     37751 MEMB     310      POPC     C314     CTL2    -0.180000       12.0110           0
     37752 MEMB     310      POPC     H14X     HAL2     0.900000E-01   1.00800           0
     37753 MEMB     310      POPC     H14Y     HAL2     0.900000E-01   1.00800           0
     37754 MEMB     310      POPC     C315     CTL2    -0.180000       12.0110           0
     37755 MEMB     310      POPC     H15X     HAL2     0.900000E-01   1.00800           0
     37756 MEMB     310      POPC     H15Y     HAL2     0.900000E-01   1.00800           0
     37757 MEMB     310      POPC     C316     CTL3    -0.270000       12.0110           0
     37758 MEMB     310      POPC     H16X     HAL3     0.900000E-01   1.00800           0
     37759 MEMB     310      POPC     H16Y     HAL3     0.900000E-01   1.00800           0
     37760 MEMB     310      POPC     H16Z     HAL3     0.900000E-01   1.00800           0
     37761 MEMB     311      POPC     N        NTL     -0.600000       14.0070           0
     37762 MEMB     311      POPC     C12      CTL2    -0.100000       12.0110           0
     37763 MEMB     311      POPC     H12A     HL       0.250000       1.00800           0
     37764 MEMB     311      POPC     H12B     HL       0.250000       1.00800           0
     37765 MEMB     311      POPC     C13      CTL5    -0.350000       12.0110           0
     37766 MEMB     311      POPC     H13A     HL       0.250000       1.00800           0
     37767 MEMB     311      POPC     H13B     HL       0.250000       1.00800           0
     37768 MEMB     311      POPC     H13C     HL       0.250000       1.00800           0
     37769 MEMB     311      POPC     C14      CTL5    -0.350000       12.0110           0
     37770 MEMB     311      POPC     H14A     HL       0.250000       1.00800           0
     37771 MEMB     311      POPC     H14B     HL       0.250000       1.00800           0
     37772 MEMB     311      POPC     H14C     HL       0.250000       1.00800           0
     37773 MEMB     311      POPC     C15      CTL5    -0.350000       12.0110           0
     37774 MEMB     311      POPC     H15A     HL       0.250000       1.00800           0
     37775 MEMB     311      POPC     H15B     HL       0.250000       1.00800           0
     37776 MEMB     311      POPC     H15C     HL       0.250000       1.00800           0
     37777 MEMB     311      POPC     C11      CTL2    -0.800000E-01   12.0110           0
     37778 MEMB     311      POPC     H11A     HAL2     0.900000E-01   1.00800           0
     37779 MEMB     311      POPC     H11B     HAL2     0.900000E-01   1.00800           0
     37780 MEMB     311      POPC     P        PL        1.50000       30.9740           0
     37781 MEMB     311      POPC     O13      O2L     -0.780000       15.9994           0
     37782 MEMB     311      POPC     O14      O2L     -0.780000       15.9994           0
     37783 MEMB     311      POPC     O12      OSLP    -0.570000       15.9994           0
     37784 MEMB     311      POPC     O11      OSLP    -0.570000       15.9994           0
     37785 MEMB     311      POPC     C1       CTL2    -0.800000E-01   12.0110           0
     37786 MEMB     311      POPC     HA       HAL2     0.900000E-01   1.00800           0
     37787 MEMB     311      POPC     HB       HAL2     0.900000E-01   1.00800           0
     37788 MEMB     311      POPC     C2       CTL1     0.170000       12.0110           0
     37789 MEMB     311      POPC     HS       HAL1     0.900000E-01   1.00800           0
     37790 MEMB     311      POPC     O21      OSL     -0.490000       15.9994           0
     37791 MEMB     311      POPC     C21      CL       0.900000       12.0110           0
     37792 MEMB     311      POPC     O22      OBL     -0.630000       15.9994           0
     37793 MEMB     311      POPC     C22      CTL2    -0.220000       12.0110           0
     37794 MEMB     311      POPC     H2R      HAL2     0.900000E-01   1.00800           0
     37795 MEMB     311      POPC     H2S      HAL2     0.900000E-01   1.00800           0
     37796 MEMB     311      POPC     C3       CTL2     0.800000E-01   12.0110           0
     37797 MEMB     311      POPC     HX       HAL2     0.900000E-01   1.00800           0
     37798 MEMB     311      POPC     HY       HAL2     0.900000E-01   1.00800           0
     37799 MEMB     311      POPC     O31      OSL     -0.490000       15.9994           0
     37800 MEMB     311      POPC     C31      CL       0.900000       12.0110           0
     37801 MEMB     311      POPC     O32      OBL     -0.630000       15.9994           0
     37802 MEMB     311      POPC     C32      CTL2    -0.220000       12.0110           0
     37803 MEMB     311      POPC     H2X      HAL2     0.900000E-01   1.00800           0
     37804 MEMB     311      POPC     H2Y      HAL2     0.900000E-01   1.00800           0
     37805 MEMB     311      POPC     C23      CTL2    -0.180000       12.0110           0
     37806 MEMB     311      POPC     H3R      HAL2     0.900000E-01   1.00800           0
     37807 MEMB     311      POPC     H3S      HAL2     0.900000E-01   1.00800           0
     37808 MEMB     311      POPC     C24      CTL2    -0.180000       12.0110           0
     37809 MEMB     311      POPC     H4R      HAL2     0.900000E-01   1.00800           0
     37810 MEMB     311      POPC     H4S      HAL2     0.900000E-01   1.00800           0
     37811 MEMB     311      POPC     C25      CTL2    -0.180000       12.0110           0
     37812 MEMB     311      POPC     H5R      HAL2     0.900000E-01   1.00800           0
     37813 MEMB     311      POPC     H5S      HAL2     0.900000E-01   1.00800           0
     37814 MEMB     311      POPC     C26      CTL2    -0.180000       12.0110           0
     37815 MEMB     311      POPC     H6R      HAL2     0.900000E-01   1.00800           0
     37816 MEMB     311      POPC     H6S      HAL2     0.900000E-01   1.00800           0
     37817 MEMB     311      POPC     C27      CTL2    -0.180000       12.0110           0
     37818 MEMB     311      POPC     H7R      HAL2     0.900000E-01   1.00800           0
     37819 MEMB     311      POPC     H7S      HAL2     0.900000E-01   1.00800           0
     37820 MEMB     311      POPC     C28      CTL2    -0.180000       12.0110           0
     37821 MEMB     311      POPC     H8R      HAL2     0.900000E-01   1.00800           0
     37822 MEMB     311      POPC     H8S      HAL2     0.900000E-01   1.00800           0
     37823 MEMB     311      POPC     C29      CEL1    -0.150000       12.0110           0
     37824 MEMB     311      POPC     H91      HEL1     0.150000       1.00800           0
     37825 MEMB     311      POPC     C210     CEL1    -0.150000       12.0110           0
     37826 MEMB     311      POPC     H101     HEL1     0.150000       1.00800           0
     37827 MEMB     311      POPC     C211     CTL2    -0.180000       12.0110           0
     37828 MEMB     311      POPC     H11R     HAL2     0.900000E-01   1.00800           0
     37829 MEMB     311      POPC     H11S     HAL2     0.900000E-01   1.00800           0
     37830 MEMB     311      POPC     C212     CTL2    -0.180000       12.0110           0
     37831 MEMB     311      POPC     H12R     HAL2     0.900000E-01   1.00800           0
     37832 MEMB     311      POPC     H12S     HAL2     0.900000E-01   1.00800           0
     37833 MEMB     311      POPC     C213     CTL2    -0.180000       12.0110           0
     37834 MEMB     311      POPC     H13R     HAL2     0.900000E-01   1.00800           0
     37835 MEMB     311      POPC     H13S     HAL2     0.900000E-01   1.00800           0
     37836 MEMB     311      POPC     C214     CTL2    -0.180000       12.0110           0
     37837 MEMB     311      POPC     H14R     HAL2     0.900000E-01   1.00800           0
     37838 MEMB     311      POPC     H14S     HAL2     0.900000E-01   1.00800           0
     37839 MEMB     311      POPC     C215     CTL2    -0.180000       12.0110           0
     37840 MEMB     311      POPC     H15R     HAL2     0.900000E-01   1.00800           0
     37841 MEMB     311      POPC     H15S     HAL2     0.900000E-01   1.00800           0
     37842 MEMB     311      POPC     C216     CTL2    -0.180000       12.0110           0
     37843 MEMB     311      POPC     H16R     HAL2     0.900000E-01   1.00800           0
     37844 MEMB     311      POPC     H16S     HAL2     0.900000E-01   1.00800           0
     37845 MEMB     311      POPC     C217     CTL2    -0.180000       12.0110           0
     37846 MEMB     311      POPC     H17R     HAL2     0.900000E-01   1.00800           0
     37847 MEMB     311      POPC     H17S     HAL2     0.900000E-01   1.00800           0
     37848 MEMB     311      POPC     C218     CTL3    -0.270000       12.0110           0
     37849 MEMB     311      POPC     H18R     HAL3     0.900000E-01   1.00800           0
     37850 MEMB     311      POPC     H18S     HAL3     0.900000E-01   1.00800           0
     37851 MEMB     311      POPC     H18T     HAL3     0.900000E-01   1.00800           0
     37852 MEMB     311      POPC     C33      CTL2    -0.180000       12.0110           0
     37853 MEMB     311      POPC     H3X      HAL2     0.900000E-01   1.00800           0
     37854 MEMB     311      POPC     H3Y      HAL2     0.900000E-01   1.00800           0
     37855 MEMB     311      POPC     C34      CTL2    -0.180000       12.0110           0
     37856 MEMB     311      POPC     H4X      HAL2     0.900000E-01   1.00800           0
     37857 MEMB     311      POPC     H4Y      HAL2     0.900000E-01   1.00800           0
     37858 MEMB     311      POPC     C35      CTL2    -0.180000       12.0110           0
     37859 MEMB     311      POPC     H5X      HAL2     0.900000E-01   1.00800           0
     37860 MEMB     311      POPC     H5Y      HAL2     0.900000E-01   1.00800           0
     37861 MEMB     311      POPC     C36      CTL2    -0.180000       12.0110           0
     37862 MEMB     311      POPC     H6X      HAL2     0.900000E-01   1.00800           0
     37863 MEMB     311      POPC     H6Y      HAL2     0.900000E-01   1.00800           0
     37864 MEMB     311      POPC     C37      CTL2    -0.180000       12.0110           0
     37865 MEMB     311      POPC     H7X      HAL2     0.900000E-01   1.00800           0
     37866 MEMB     311      POPC     H7Y      HAL2     0.900000E-01   1.00800           0
     37867 MEMB     311      POPC     C38      CTL2    -0.180000       12.0110           0
     37868 MEMB     311      POPC     H8X      HAL2     0.900000E-01   1.00800           0
     37869 MEMB     311      POPC     H8Y      HAL2     0.900000E-01   1.00800           0
     37870 MEMB     311      POPC     C39      CTL2    -0.180000       12.0110           0
     37871 MEMB     311      POPC     H9X      HAL2     0.900000E-01   1.00800           0
     37872 MEMB     311      POPC     H9Y      HAL2     0.900000E-01   1.00800           0
     37873 MEMB     311      POPC     C310     CTL2    -0.180000       12.0110           0
     37874 MEMB     311      POPC     H10X     HAL2     0.900000E-01   1.00800           0
     37875 MEMB     311      POPC     H10Y     HAL2     0.900000E-01   1.00800           0
     37876 MEMB     311      POPC     C311     CTL2    -0.180000       12.0110           0
     37877 MEMB     311      POPC     H11X     HAL2     0.900000E-01   1.00800           0
     37878 MEMB     311      POPC     H11Y     HAL2     0.900000E-01   1.00800           0
     37879 MEMB     311      POPC     C312     CTL2    -0.180000       12.0110           0
     37880 MEMB     311      POPC     H12X     HAL2     0.900000E-01   1.00800           0
     37881 MEMB     311      POPC     H12Y     HAL2     0.900000E-01   1.00800           0
     37882 MEMB     311      POPC     C313     CTL2    -0.180000       12.0110           0
     37883 MEMB     311      POPC     H13X     HAL2     0.900000E-01   1.00800           0
     37884 MEMB     311      POPC     H13Y     HAL2     0.900000E-01   1.00800           0
     37885 MEMB     311      POPC     C314     CTL2    -0.180000       12.0110           0
     37886 MEMB     311      POPC     H14X     HAL2     0.900000E-01   1.00800           0
     37887 MEMB     311      POPC     H14Y     HAL2     0.900000E-01   1.00800           0
     37888 MEMB     311      POPC     C315     CTL2    -0.180000       12.0110           0
     37889 MEMB     311      POPC     H15X     HAL2     0.900000E-01   1.00800           0
     37890 MEMB     311      POPC     H15Y     HAL2     0.900000E-01   1.00800           0
     37891 MEMB     311      POPC     C316     CTL3    -0.270000       12.0110           0
     37892 MEMB     311      POPC     H16X     HAL3     0.900000E-01   1.00800           0
     37893 MEMB     311      POPC     H16Y     HAL3     0.900000E-01   1.00800           0
     37894 MEMB     311      POPC     H16Z     HAL3     0.900000E-01   1.00800           0
     37895 MEMB     312      POPC     N        NTL     -0.600000       14.0070           0
     37896 MEMB     312      POPC     C12      CTL2    -0.100000       12.0110           0
     37897 MEMB     312      POPC     H12A     HL       0.250000       1.00800           0
     37898 MEMB     312      POPC     H12B     HL       0.250000       1.00800           0
     37899 MEMB     312      POPC     C13      CTL5    -0.350000       12.0110           0
     37900 MEMB     312      POPC     H13A     HL       0.250000       1.00800           0
     37901 MEMB     312      POPC     H13B     HL       0.250000       1.00800           0
     37902 MEMB     312      POPC     H13C     HL       0.250000       1.00800           0
     37903 MEMB     312      POPC     C14      CTL5    -0.350000       12.0110           0
     37904 MEMB     312      POPC     H14A     HL       0.250000       1.00800           0
     37905 MEMB     312      POPC     H14B     HL       0.250000       1.00800           0
     37906 MEMB     312      POPC     H14C     HL       0.250000       1.00800           0
     37907 MEMB     312      POPC     C15      CTL5    -0.350000       12.0110           0
     37908 MEMB     312      POPC     H15A     HL       0.250000       1.00800           0
     37909 MEMB     312      POPC     H15B     HL       0.250000       1.00800           0
     37910 MEMB     312      POPC     H15C     HL       0.250000       1.00800           0
     37911 MEMB     312      POPC     C11      CTL2    -0.800000E-01   12.0110           0
     37912 MEMB     312      POPC     H11A     HAL2     0.900000E-01   1.00800           0
     37913 MEMB     312      POPC     H11B     HAL2     0.900000E-01   1.00800           0
     37914 MEMB     312      POPC     P        PL        1.50000       30.9740           0
     37915 MEMB     312      POPC     O13      O2L     -0.780000       15.9994           0
     37916 MEMB     312      POPC     O14      O2L     -0.780000       15.9994           0
     37917 MEMB     312      POPC     O12      OSLP    -0.570000       15.9994           0
     37918 MEMB     312      POPC     O11      OSLP    -0.570000       15.9994           0
     37919 MEMB     312      POPC     C1       CTL2    -0.800000E-01   12.0110           0
     37920 MEMB     312      POPC     HA       HAL2     0.900000E-01   1.00800           0
     37921 MEMB     312      POPC     HB       HAL2     0.900000E-01   1.00800           0
     37922 MEMB     312      POPC     C2       CTL1     0.170000       12.0110           0
     37923 MEMB     312      POPC     HS       HAL1     0.900000E-01   1.00800           0
     37924 MEMB     312      POPC     O21      OSL     -0.490000       15.9994           0
     37925 MEMB     312      POPC     C21      CL       0.900000       12.0110           0
     37926 MEMB     312      POPC     O22      OBL     -0.630000       15.9994           0
     37927 MEMB     312      POPC     C22      CTL2    -0.220000       12.0110           0
     37928 MEMB     312      POPC     H2R      HAL2     0.900000E-01   1.00800           0
     37929 MEMB     312      POPC     H2S      HAL2     0.900000E-01   1.00800           0
     37930 MEMB     312      POPC     C3       CTL2     0.800000E-01   12.0110           0
     37931 MEMB     312      POPC     HX       HAL2     0.900000E-01   1.00800           0
     37932 MEMB     312      POPC     HY       HAL2     0.900000E-01   1.00800           0
     37933 MEMB     312      POPC     O31      OSL     -0.490000       15.9994           0
     37934 MEMB     312      POPC     C31      CL       0.900000       12.0110           0
     37935 MEMB     312      POPC     O32      OBL     -0.630000       15.9994           0
     37936 MEMB     312      POPC     C32      CTL2    -0.220000       12.0110           0
     37937 MEMB     312      POPC     H2X      HAL2     0.900000E-01   1.00800           0
     37938 MEMB     312      POPC     H2Y      HAL2     0.900000E-01   1.00800           0
     37939 MEMB     312      POPC     C23      CTL2    -0.180000       12.0110           0
     37940 MEMB     312      POPC     H3R      HAL2     0.900000E-01   1.00800           0
     37941 MEMB     312      POPC     H3S      HAL2     0.900000E-01   1.00800           0
     37942 MEMB     312      POPC     C24      CTL2    -0.180000       12.0110           0
     37943 MEMB     312      POPC     H4R      HAL2     0.900000E-01   1.00800           0
     37944 MEMB     312      POPC     H4S      HAL2     0.900000E-01   1.00800           0
     37945 MEMB     312      POPC     C25      CTL2    -0.180000       12.0110           0
     37946 MEMB     312      POPC     H5R      HAL2     0.900000E-01   1.00800           0
     37947 MEMB     312      POPC     H5S      HAL2     0.900000E-01   1.00800           0
     37948 MEMB     312      POPC     C26      CTL2    -0.180000       12.0110           0
     37949 MEMB     312      POPC     H6R      HAL2     0.900000E-01   1.00800           0
     37950 MEMB     312      POPC     H6S      HAL2     0.900000E-01   1.00800           0
     37951 MEMB     312      POPC     C27      CTL2    -0.180000       12.0110           0
     37952 MEMB     312      POPC     H7R      HAL2     0.900000E-01   1.00800           0
     37953 MEMB     312      POPC     H7S      HAL2     0.900000E-01   1.00800           0
     37954 MEMB     312      POPC     C28      CTL2    -0.180000       12.0110           0
     37955 MEMB     312      POPC     H8R      HAL2     0.900000E-01   1.00800           0
     37956 MEMB     312      POPC     H8S      HAL2     0.900000E-01   1.00800           0
     37957 MEMB     312      POPC     C29      CEL1    -0.150000       12.0110           0
     37958 MEMB     312      POPC     H91      HEL1     0.150000       1.00800           0
     37959 MEMB     312      POPC     C210     CEL1    -0.150000       12.0110           0
     37960 MEMB     312      POPC     H101     HEL1     0.150000       1.00800           0
     37961 MEMB     312      POPC     C211     CTL2    -0.180000       12.0110           0
     37962 MEMB     312      POPC     H11R     HAL2     0.900000E-01   1.00800           0
     37963 MEMB     312      POPC     H11S     HAL2     0.900000E-01   1.00800           0
     37964 MEMB     312      POPC     C212     CTL2    -0.180000       12.0110           0
     37965 MEMB     312      POPC     H12R     HAL2     0.900000E-01   1.00800           0
     37966 MEMB     312      POPC     H12S     HAL2     0.900000E-01   1.00800           0
     37967 MEMB     312      POPC     C213     CTL2    -0.180000       12.0110           0
     37968 MEMB     312      POPC     H13R     HAL2     0.900000E-01   1.00800           0
     37969 MEMB     312      POPC     H13S     HAL2     0.900000E-01   1.00800           0
     37970 MEMB     312      POPC     C214     CTL2    -0.180000       12.0110           0
     37971 MEMB     312      POPC     H14R     HAL2     0.900000E-01   1.00800           0
     37972 MEMB     312      POPC     H14S     HAL2     0.900000E-01   1.00800           0
     37973 MEMB     312      POPC     C215     CTL2    -0.180000       12.0110           0
     37974 MEMB     312      POPC     H15R     HAL2     0.900000E-01   1.00800           0
     37975 MEMB     312      POPC     H15S     HAL2     0.900000E-01   1.00800           0
     37976 MEMB     312      POPC     C216     CTL2    -0.180000       12.0110           0
     37977 MEMB     312      POPC     H16R     HAL2     0.900000E-01   1.00800           0
     37978 MEMB     312      POPC     H16S     HAL2     0.900000E-01   1.00800           0
     37979 MEMB     312      POPC     C217     CTL2    -0.180000       12.0110           0
     37980 MEMB     312      POPC     H17R     HAL2     0.900000E-01   1.00800           0
     37981 MEMB     312      POPC     H17S     HAL2     0.900000E-01   1.00800           0
     37982 MEMB     312      POPC     C218     CTL3    -0.270000       12.0110           0
     37983 MEMB     312      POPC     H18R     HAL3     0.900000E-01   1.00800           0
     37984 MEMB     312      POPC     H18S     HAL3     0.900000E-01   1.00800           0
     37985 MEMB     312      POPC     H18T     HAL3     0.900000E-01   1.00800           0
     37986 MEMB     312      POPC     C33      CTL2    -0.180000       12.0110           0
     37987 MEMB     312      POPC     H3X      HAL2     0.900000E-01   1.00800           0
     37988 MEMB     312      POPC     H3Y      HAL2     0.900000E-01   1.00800           0
     37989 MEMB     312      POPC     C34      CTL2    -0.180000       12.0110           0
     37990 MEMB     312      POPC     H4X      HAL2     0.900000E-01   1.00800           0
     37991 MEMB     312      POPC     H4Y      HAL2     0.900000E-01   1.00800           0
     37992 MEMB     312      POPC     C35      CTL2    -0.180000       12.0110           0
     37993 MEMB     312      POPC     H5X      HAL2     0.900000E-01   1.00800           0
     37994 MEMB     312      POPC     H5Y      HAL2     0.900000E-01   1.00800           0
     37995 MEMB     312      POPC     C36      CTL2    -0.180000       12.0110           0
     37996 MEMB     312      POPC     H6X      HAL2     0.900000E-01   1.00800           0
     37997 MEMB     312      POPC     H6Y      HAL2     0.900000E-01   1.00800           0
     37998 MEMB     312      POPC     C37      CTL2    -0.180000       12.0110           0
     37999 MEMB     312      POPC     H7X      HAL2     0.900000E-01   1.00800           0
     38000 MEMB     312      POPC     H7Y      HAL2     0.900000E-01   1.00800           0
     38001 MEMB     312      POPC     C38      CTL2    -0.180000       12.0110           0
     38002 MEMB     312      POPC     H8X      HAL2     0.900000E-01   1.00800           0
     38003 MEMB     312      POPC     H8Y      HAL2     0.900000E-01   1.00800           0
     38004 MEMB     312      POPC     C39      CTL2    -0.180000       12.0110           0
     38005 MEMB     312      POPC     H9X      HAL2     0.900000E-01   1.00800           0
     38006 MEMB     312      POPC     H9Y      HAL2     0.900000E-01   1.00800           0
     38007 MEMB     312      POPC     C310     CTL2    -0.180000       12.0110           0
     38008 MEMB     312      POPC     H10X     HAL2     0.900000E-01   1.00800           0
     38009 MEMB     312      POPC     H10Y     HAL2     0.900000E-01   1.00800           0
     38010 MEMB     312      POPC     C311     CTL2    -0.180000       12.0110           0
     38011 MEMB     312      POPC     H11X     HAL2     0.900000E-01   1.00800           0
     38012 MEMB     312      POPC     H11Y     HAL2     0.900000E-01   1.00800           0
     38013 MEMB     312      POPC     C312     CTL2    -0.180000       12.0110           0
     38014 MEMB     312      POPC     H12X     HAL2     0.900000E-01   1.00800           0
     38015 MEMB     312      POPC     H12Y     HAL2     0.900000E-01   1.00800           0
     38016 MEMB     312      POPC     C313     CTL2    -0.180000       12.0110           0
     38017 MEMB     312      POPC     H13X     HAL2     0.900000E-01   1.00800           0
     38018 MEMB     312      POPC     H13Y     HAL2     0.900000E-01   1.00800           0
     38019 MEMB     312      POPC     C314     CTL2    -0.180000       12.0110           0
     38020 MEMB     312      POPC     H14X     HAL2     0.900000E-01   1.00800           0
     38021 MEMB     312      POPC     H14Y     HAL2     0.900000E-01   1.00800           0
     38022 MEMB     312      POPC     C315     CTL2    -0.180000       12.0110           0
     38023 MEMB     312      POPC     H15X     HAL2     0.900000E-01   1.00800           0
     38024 MEMB     312      POPC     H15Y     HAL2     0.900000E-01   1.00800           0
     38025 MEMB     312      POPC     C316     CTL3    -0.270000       12.0110           0
     38026 MEMB     312      POPC     H16X     HAL3     0.900000E-01   1.00800           0
     38027 MEMB     312      POPC     H16Y     HAL3     0.900000E-01   1.00800           0
     38028 MEMB     312      POPC     H16Z     HAL3     0.900000E-01   1.00800           0

     37968 !NBOND: bonds
         1         3         1         2         3         4         1        47
        47        48        47        49        47        44        44        45
        44        46         1         5         5         6         5         7
         5         8         8        39        39        44        39        40
        40        41        40        42        40        43         8         9
         9        10         9        11        11        12        11        13
        11        14        14        15        14        37        37        38
        37        39        14        16        16        17        16        26
        26        31        31        32        31        33        31        34
        34        35        34        36        34        37        26        27
        27        28        27        29        27        30        16        18
        18        19        18        20        18        21        21        22
        21        23        21        24        24        25        24        26
        24        50        50        51        50        52        52        53
        52        54        52        55        50        56        56        57
        56        58        56        59        59        60        59        61
        59        62        62        63        62        64        62        65
        65        66        65        67        67        68        67        69
        67        70        65        71        71        72        71        73
        71        74        75        77        75        76        77        78
        75       121       121       122       121       123       121       118
       118       119       118       120        75        79        79        80
        79        81        79        82        82       113       113       118
       113       114       114       115       114       116       114       117
        82        83        83        84        83        85        85        86
        85        87        85        88        88        89        88       111
       111       112       111       113        88        90        90        91
        90       100       100       105       105       106       105       107
       105       108       108       109       108       110       108       111
       100       101       101       102       101       103       101       104
        90        92        92        93        92        94        92        95
        95        96        95        97        95        98        98        99
        98       100        98       124       124       125       124       126
       126       127       126       128       126       129       124       130
       130       131       130       132       130       133       133       134
       133       135       133       136       136       137       136       138
       136       139       139       140       139       141       141       142
       141       143       141       144       139       145       145       146
       145       147       145       148       149       151       149       150
       151       152       149       195       195       196       195       197
       195       192       192       193       192       194       149       153
       153       154       153       155       153       156       156       187
       187       192       187       188       188       189       188       190
       188       191       156       157       157       158       157       159
       159       160       159       161       159       162       162       163
       162       185       185       186       185       187       162       164
       164       165       164       174       174       179       179       180
       179       181       179       182       182       183       182       184
       182       185       174       175       175       176       175       177
       175       178       164       166       166       167       166       168
       166       169       169       170       169       171       169       172
       172       173       172       174       172       198       198       199
       198       200       200       201       200       202       200       203
       198       204       204       205       204       206       204       207
       207       208       207       209       207       210       210       211
       210       212       210       213       213       214       213       215
       215       216       215       217       215       218       213       219
       219       220       219       221       219       222       223       225
       223       224       225       226       223       269       269       270
       269       271       269       266       266       267       266       268
       223       227       227       228       227       229       227       230
       230       261       261       266       261       262       262       263
       262       264       262       265       230       231       231       232
       231       233       233       234       233       235       233       236
       236       237       236       259       259       260       259       261
       236       238       238       239       238       248       248       253
       253       254       253       255       253       256       256       257
       256       258       256       259       248       249       249       250
       249       251       249       252       238       240       240       241
       240       242       240       243       243       244       243       245
       243       246       246       247       246       248       246       272
       272       273       272       274       274       275       274       276
       274       277       272       278       278       279       278       280
       278       281       281       282       281       283       281       284
       284       285       284       286       284       287       287       288
       287       289       289       290       289       291       289       292
       287       293       293       294       293       295       293       296
       297       299       297       298       299       300       297       343
       343       344       343       345       343       340       340       341
       340       342       297       301       301       302       301       303
       301       304       304       335       335       340       335       336
       336       337       336       338       336       339       304       305
       305       306       305       307       307       308       307       309
       307       310       310       311       310       333       333       334
       333       335       310       312       312       313       312       322
       322       327       327       328       327       329       327       330
       330       331       330       332       330       333       322       323
       323       324       323       325       323       326       312       314
       314       315       314       316       314       317       317       318
       317       319       317       320       320       321       320       322
       320       346       346       347       346       348       348       349
       348       350       348       351       346       352       352       353
       352       354       352       355       355       356       355       357
       355       358       358       359       358       360       358       361
       361       362       361       363       363       364       363       365
       363       366       361       367       367       368       367       369
       367       370       371       373       371       372       373       374
       371       417       417       418       417       419       417       414
       414       415       414       416       371       375       375       376
       375       377       375       378       378       409       409       414
       409       410       410       411       410       412       410       413
       378       379       379       380       379       381       381       382
       381       383       381       384       384       385       384       407
       407       408       407       409       384       386       386       387
       386       396       396       401       401       402       401       403
       401       404       404       405       404       406       404       407
       396       397       397       398       397       399       397       400
       386       388       388       389       388       390       388       391
       391       392       391       393       391       394       394       395
       394       396       394       420       420       421       420       422
       422       423       422       424       422       425       420       426
       426       427       426       428       426       429       429       430
       429       431       429       432       432       433       432       434
       432       435       435       436       435       437       437       438
       437       439       437       440       435       441       441       442
       441       443       441       444       445       447       445       446
       447       448       445       491       491       492       491       493
       491       488       488       489       488       490       445       449
       449       450       449       451       449       452       452       483
       483       488       483       484       484       485       484       486
       484       487       452       453       453       454       453       455
       455       456       455       457       455       458       458       459
       458       481       481       482       481       483       458       460
       460       461       460       470       470       475       475       476
       475       477       475       478       478       479       478       480
       478       481       470       471       471       472       471       473
       471       474       460       462       462       463       462       464
       462       465       465       466       465       467       465       468
       468       469       468       470       468       494       494       495
       494       496       496       497       496       498       496       499
       494       500       500       501       500       502       500       503
       503       504       503       505       503       506       506       507
       506       508       506       509       509       510       509       511
       511       512       511       513       511       514       509       515
       515       516       515       517       515       518       519       521
       519       520       521       522       519       565       565       566
       565       567       565       562       562       563       562       564
       519       523       523       524       523       525       523       526
       526       557       557       562       557       558       558       559
       558       560       558       561       526       527       527       528
       527       529       529       530       529       531       529       532
       532       533       532       555       555       556       555       557
       532       534       534       535       534       544       544       549
       549       550       549       551       549       552       552       553
       552       554       552       555       544       545       545       546
       545       547       545       548       534       536       536       537
       536       538       536       539       539       540       539       541
       539       542       542       543       542       544       542       568
       568       569       568       570       570       571       570       572
       570       573       568       574       574       575       574       576
       574       577       577       578       577       579       577       580
       580       581       580       582       580       583       583       584
       583       585       585       586       585       587       585       588
       583       589       589       590       589       591       589       592
       593       595       593       594       595       596       593       639
       639       640       639       641       639       636       636       637
       636       638       593       597       597       598       597       599
       597       600       600       631       631       636       631       632
       632       633       632       634       632       635       600       601
       601       602       601       603       603       604       603       605
       603       606       606       607       606       629       629       630
       629       631       606       608       608       609       608       618
       618       623       623       624       623       625       623       626
       626       627       626       628       626       629       618       619
       619       620       619       621       619       622       608       610
       610       611       610       612       610       613       613       614
       613       615       613       616       616       617       616       618
       616       642       642       643       642       644       644       645
       644       646       644       647       642       648       648       649
       648       650       648       651       651       652       651       653
       651       654       654       655       654       656       654       657
       657       658       657       659       659       660       659       661
       659       662       657       663       663       664       663       665
       663       666       667       669       667       668       669       670
       667       713       713       714       713       715       713       710
       710       711       710       712       667       671       671       672
       671       673       671       674       674       705       705       710
       705       706       706       707       706       708       706       709
       674       675       675       676       675       677       677       678
       677       679       677       680       680       681       680       703
       703       704       703       705       680       682       682       683
       682       692       692       697       697       698       697       699
       697       700       700       701       700       702       700       703
       692       693       693       694       693       695       693       696
       682       684       684       685       684       686       684       687
       687       688       687       689       687       690       690       691
       690       692       690       716       716       717       716       718
       718       719       718       720       718       721       716       722
       722       723       722       724       722       725       725       726
       725       727       725       728       728       729       728       730
       728       731       731       732       731       733       733       734
       733       735       733       736       731       737       737       738
       737       739       737       740       741       743       741       742
       743       744       741       787       787       788       787       789
       787       784       784       785       784       786       741       745
       745       746       745       747       745       748       748       779
       779       784       779       780       780       781       780       782
       780       783       748       749       749       750       749       751
       751       752       751       753       751       754       754       755
       754       777       777       778       777       779       754       756
       756       757       756       766       766       771       771       772
       771       773       771       774       774       775       774       776
       774       777       766       767       767       768       767       769
       767       770       756       758       758       759       758       760
       758       761       761       762       761       763       761       764
       764       765       764       766       764       790       790       791
       790       792       792       793       792       794       792       795
       790       796       796       797       796       798       796       799
       799       800       799       801       799       802       802       803
       802       804       802       805       805       806       805       807
       807       808       807       809       807       810       805       811
       811       812       811       813       811       814       815       817
       815       816       817       818       815       861       861       862
       861       863       861       858       858       859       858       860
       815       819       819       820       819       821       819       822
       822       853       853       858       853       854       854       855
       854       856       854       857       822       823       823       824
       823       825       825       826       825       827       825       828
       828       829       828       851       851       852       851       853
       828       830       830       831       830       840       840       845
       845       846       845       847       845       848       848       849
       848       850       848       851       840       841       841       842
       841       843       841       844       830       832       832       833
       832       834       832       835       835       836       835       837
       835       838       838       839       838       840       838       864
       864       865       864       866       866       867       866       868
       866       869       864       870       870       871       870       872
       870       873       873       874       873       875       873       876
       876       877       876       878       876       879       879       880
       879       881       881       882       881       883       881       884
       879       885       885       886       885       887       885       888
       889       891       889       890       891       892       889       935
       935       936       935       937       935       932       932       933
       932       934       889       893       893       894       893       895
       893       896       896       927       927       932       927       928
       928       929       928       930       928       931       896       897
       897       898       897       899       899       900       899       901
       899       902       902       903       902       925       925       926
       925       927       902       904       904       905       904       914
       914       919       919       920       919       921       919       922
       922       923       922       924       922       925       914       915
       915       916       915       917       915       918       904       906
       906       907       906       908       906       909       909       910
       909       911       909       912       912       913       912       914
       912       938       938       939       938       940       940       941
       940       942       940       943       938       944       944       945
       944       946       944       947       947       948       947       949
       947       950       950       951       950       952       950       953
       953       954       953       955       955       956       955       957
       955       958       953       959       959       960       959       961
       959       962       963       965       963       964       965       966
       963      1009      1009      1010      1009      1011      1009      1006
      1006      1007      1006      1008       963       967       967       968
       967       969       967       970       970      1001      1001      1006
      1001      1002      1002      1003      1002      1004      1002      1005
       970       971       971       972       971       973       973       974
       973       975       973       976       976       977       976       999
       999      1000       999      1001       976       978       978       979
       978       988       988       993       993       994       993       995
       993       996       996       997       996       998       996       999
       988       989       989       990       989       991       989       992
       978       980       980       981       980       982       980       983
       983       984       983       985       983       986       986       987
       986       988       986      1012      1012      1013      1012      1014
      1014      1015      1014      1016      1014      1017      1012      1018
      1018      1019      1018      1020      1018      1021      1021      1022
      1021      1023      1021      1024      1024      1025      1024      1026
      1024      1027      1027      1028      1027      1029      1029      1030
      1029      1031      1029      1032      1027      1033      1033      1034
      1033      1035      1033      1036      1037      1039      1037      1038
      1039      1040      1037      1083      1083      1084      1083      1085
      1083      1080      1080      1081      1080      1082      1037      1041
      1041      1042      1041      1043      1041      1044      1044      1075
      1075      1080      1075      1076      1076      1077      1076      1078
      1076      1079      1044      1045      1045      1046      1045      1047
      1047      1048      1047      1049      1047      1050      1050      1051
      1050      1073      1073      1074      1073      1075      1050      1052
      1052      1053      1052      1062      1062      1067      1067      1068
      1067      1069      1067      1070      1070      1071      1070      1072
      1070      1073      1062      1063      1063      1064      1063      1065
      1063      1066      1052      1054      1054      1055      1054      1056
      1054      1057      1057      1058      1057      1059      1057      1060
      1060      1061      1060      1062      1060      1086      1086      1087
      1086      1088      1088      1089      1088      1090      1088      1091
      1086      1092      1092      1093      1092      1094      1092      1095
      1095      1096      1095      1097      1095      1098      1098      1099
      1098      1100      1098      1101      1101      1102      1101      1103
      1103      1104      1103      1105      1103      1106      1101      1107
      1107      1108      1107      1109      1107      1110      1111      1113
      1111      1112      1113      1114      1111      1157      1157      1158
      1157      1159      1157      1154      1154      1155      1154      1156
      1111      1115      1115      1116      1115      1117      1115      1118
      1118      1149      1149      1154      1149      1150      1150      1151
      1150      1152      1150      1153      1118      1119      1119      1120
      1119      1121      1121      1122      1121      1123      1121      1124
      1124      1125      1124      1147      1147      1148      1147      1149
      1124      1126      1126      1127      1126      1136      1136      1141
      1141      1142      1141      1143      1141      1144      1144      1145
      1144      1146      1144      1147      1136      1137      1137      1138
      1137      1139      1137      1140      1126      1128      1128      1129
      1128      1130      1128      1131      1131      1132      1131      1133
      1131      1134      1134      1135      1134      1136      1134      1160
      1160      1161      1160      1162      1162      1163      1162      1164
      1162      1165      1160      1166      1166      1167      1166      1168
      1166      1169      1169      1170      1169      1171      1169      1172
      1172      1173      1172      1174      1172      1175      1175      1176
      1175      1177      1177      1178      1177      1179      1177      1180
      1175      1181      1181      1182      1181      1183      1181      1184
      1185      1187      1185      1186      1187      1188      1185      1231
      1231      1232      1231      1233      1231      1228      1228      1229
      1228      1230      1185      1189      1189      1190      1189      1191
      1189      1192      1192      1223      1223      1228      1223      1224
      1224      1225      1224      1226      1224      1227      1192      1193
      1193      1194      1193      1195      1195      1196      1195      1197
      1195      1198      1198      1199      1198      1221      1221      1222
      1221      1223      1198      1200      1200      1201      1200      1210
      1210      1215      1215      1216      1215      1217      1215      1218
      1218      1219      1218      1220      1218      1221      1210      1211
      1211      1212      1211      1213      1211      1214      1200      1202
      1202      1203      1202      1204      1202      1205      1205      1206
      1205      1207      1205      1208      1208      1209      1208      1210
      1208      1234      1234      1235      1234      1236      1236      1237
      1236      1238      1236      1239      1234      1240      1240      1241
      1240      1242      1240      1243      1243      1244      1243      1245
      1243      1246      1246      1247      1246      1248      1246      1249
      1249      1250      1249      1251      1251      1252      1251      1253
      1251      1254      1249      1255      1255      1256      1255      1257
      1255      1258      1259      1261      1259      1260      1261      1262
      1259      1305      1305      1306      1305      1307      1305      1302
      1302      1303      1302      1304      1259      1263      1263      1264
      1263      1265      1263      1266      1266      1297      1297      1302
      1297      1298      1298      1299      1298      1300      1298      1301
      1266      1267      1267      1268      1267      1269      1269      1270
      1269      1271      1269      1272      1272      1273      1272      1295
      1295      1296      1295      1297      1272      1274      1274      1275
      1274      1284      1284      1289      1289      1290      1289      1291
      1289      1292      1292      1293      1292      1294      1292      1295
      1284      1285      1285      1286      1285      1287      1285      1288
      1274      1276      1276      1277      1276      1278      1276      1279
      1279      1280      1279      1281      1279      1282      1282      1283
      1282      1284      1282      1308      1308      1309      1308      1310
      1310      1311      1310      1312      1310      1313      1308      1314
      1314      1315      1314      1316      1314      1317      1317      1318
      1317      1319      1317      1320      1320      1321      1320      1322
      1320      1323      1323      1324      1323      1325      1325      1326
      1325      1327      1325      1328      1323      1329      1329      1330
      1329      1331      1329      1332      1333      1335      1333      1334
      1335      1336      1333      1379      1379      1380      1379      1381
      1379      1376      1376      1377      1376      1378      1333      1337
      1337      1338      1337      1339      1337      1340      1340      1371
      1371      1376      1371      1372      1372      1373      1372      1374
      1372      1375      1340      1341      1341      1342      1341      1343
      1343      1344      1343      1345      1343      1346      1346      1347
      1346      1369      1369      1370      1369      1371      1346      1348
      1348      1349      1348      1358      1358      1363      1363      1364
      1363      1365      1363      1366      1366      1367      1366      1368
      1366      1369      1358      1359      1359      1360      1359      1361
      1359      1362      1348      1350      1350      1351      1350      1352
      1350      1353      1353      1354      1353      1355      1353      1356
      1356      1357      1356      1358      1356      1382      1382      1383
      1382      1384      1384      1385      1384      1386      1384      1387
      1382      1388      1388      1389      1388      1390      1388      1391
      1391      1392      1391      1393      1391      1394      1394      1395
      1394      1396      1394      1397      1397      1398      1397      1399
      1399      1400      1399      1401      1399      1402      1397      1403
      1403      1404      1403      1405      1403      1406      1407      1409
      1407      1408      1409      1410      1407      1453      1453      1454
      1453      1455      1453      1450      1450      1451      1450      1452
      1407      1411      1411      1412      1411      1413      1411      1414
      1414      1445      1445      1450      1445      1446      1446      1447
      1446      1448      1446      1449      1414      1415      1415      1416
      1415      1417      1417      1418      1417      1419      1417      1420
      1420      1421      1420      1443      1443      1444      1443      1445
      1420      1422      1422      1423      1422      1432      1432      1437
      1437      1438      1437      1439      1437      1440      1440      1441
      1440      1442      1440      1443      1432      1433      1433      1434
      1433      1435      1433      1436      1422      1424      1424      1425
      1424      1426      1424      1427      1427      1428      1427      1429
      1427      1430      1430      1431      1430      1432      1430      1456
      1456      1457      1456      1458      1458      1459      1458      1460
      1458      1461      1456      1462      1462      1463      1462      1464
      1462      1465      1465      1466      1465      1467      1465      1468
      1468      1469      1468      1470      1468      1471      1471      1472
      1471      1473      1473      1474      1473      1475      1473      1476
      1471      1477      1477      1478      1477      1479      1477      1480
      1481      1483      1481      1482      1483      1484      1481      1527
      1527      1528      1527      1529      1527      1524      1524      1525
      1524      1526      1481      1485      1485      1486      1485      1487
      1485      1488      1488      1519      1519      1524      1519      1520
      1520      1521      1520      1522      1520      1523      1488      1489
      1489      1490      1489      1491      1491      1492      1491      1493
      1491      1494      1494      1495      1494      1517      1517      1518
      1517      1519      1494      1496      1496      1497      1496      1506
      1506      1511      1511      1512      1511      1513      1511      1514
      1514      1515      1514      1516      1514      1517      1506      1507
      1507      1508      1507      1509      1507      1510      1496      1498
      1498      1499      1498      1500      1498      1501      1501      1502
      1501      1503      1501      1504      1504      1505      1504      1506
      1504      1530      1530      1531      1530      1532      1532      1533
      1532      1534      1532      1535      1530      1536      1536      1537
      1536      1538      1536      1539      1539      1540      1539      1541
      1539      1542      1542      1543      1542      1544      1542      1545
      1545      1546      1545      1547      1547      1548      1547      1549
      1547      1550      1545      1551      1551      1552      1551      1553
      1551      1554      1555      1557      1555      1556      1557      1558
      1555      1601      1601      1602      1601      1603      1601      1598
      1598      1599      1598      1600      1555      1559      1559      1560
      1559      1561      1559      1562      1562      1593      1593      1598
      1593      1594      1594      1595      1594      1596      1594      1597
      1562      1563      1563      1564      1563      1565      1565      1566
      1565      1567      1565      1568      1568      1569      1568      1591
      1591      1592      1591      1593      1568      1570      1570      1571
      1570      1580      1580      1585      1585      1586      1585      1587
      1585      1588      1588      1589      1588      1590      1588      1591
      1580      1581      1581      1582      1581      1583      1581      1584
      1570      1572      1572      1573      1572      1574      1572      1575
      1575      1576      1575      1577      1575      1578      1578      1579
      1578      1580      1578      1604      1604      1605      1604      1606
      1606      1607      1606      1608      1606      1609      1604      1610
      1610      1611      1610      1612      1610      1613      1613      1614
      1613      1615      1613      1616      1616      1617      1616      1618
      1616      1619      1619      1620      1619      1621      1621      1622
      1621      1623      1621      1624      1619      1625      1625      1626
      1625      1627      1625      1628      1629      1631      1629      1630
      1631      1632      1629      1675      1675      1676      1675      1677
      1675      1672      1672      1673      1672      1674      1629      1633
      1633      1634      1633      1635      1633      1636      1636      1667
      1667      1672      1667      1668      1668      1669      1668      1670
      1668      1671      1636      1637      1637      1638      1637      1639
      1639      1640      1639      1641      1639      1642      1642      1643
      1642      1665      1665      1666      1665      1667      1642      1644
      1644      1645      1644      1654      1654      1659      1659      1660
      1659      1661      1659      1662      1662      1663      1662      1664
      1662      1665      1654      1655      1655      1656      1655      1657
      1655      1658      1644      1646      1646      1647      1646      1648
      1646      1649      1649      1650      1649      1651      1649      1652
      1652      1653      1652      1654      1652      1678      1678      1679
      1678      1680      1680      1681      1680      1682      1680      1683
      1678      1684      1684      1685      1684      1686      1684      1687
      1687      1688      1687      1689      1687      1690      1690      1691
      1690      1692      1690      1693      1693      1694      1693      1695
      1695      1696      1695      1697      1695      1698      1693      1699
      1699      1700      1699      1701      1699      1702      1703      1705
      1703      1704      1705      1706      1703      1749      1749      1750
      1749      1751      1749      1746      1746      1747      1746      1748
      1703      1707      1707      1708      1707      1709      1707      1710
      1710      1741      1741      1746      1741      1742      1742      1743
      1742      1744      1742      1745      1710      1711      1711      1712
      1711      1713      1713      1714      1713      1715      1713      1716
      1716      1717      1716      1739      1739      1740      1739      1741
      1716      1718      1718      1719      1718      1728      1728      1733
      1733      1734      1733      1735      1733      1736      1736      1737
      1736      1738      1736      1739      1728      1729      1729      1730
      1729      1731      1729      1732      1718      1720      1720      1721
      1720      1722      1720      1723      1723      1724      1723      1725
      1723      1726      1726      1727      1726      1728      1726      1752
      1752      1753      1752      1754      1754      1755      1754      1756
      1754      1757      1752      1758      1758      1759      1758      1760
      1758      1761      1761      1762      1761      1763      1761      1764
      1764      1765      1764      1766      1764      1767      1767      1768
      1767      1769      1769      1770      1769      1771      1769      1772
      1767      1773      1773      1774      1773      1775      1773      1776
      1777      1779      1777      1778      1779      1780      1777      1823
      1823      1824      1823      1825      1823      1820      1820      1821
      1820      1822      1777      1781      1781      1782      1781      1783
      1781      1784      1784      1815      1815      1820      1815      1816
      1816      1817      1816      1818      1816      1819      1784      1785
      1785      1786      1785      1787      1787      1788      1787      1789
      1787      1790      1790      1791      1790      1813      1813      1814
      1813      1815      1790      1792      1792      1793      1792      1802
      1802      1807      1807      1808      1807      1809      1807      1810
      1810      1811      1810      1812      1810      1813      1802      1803
      1803      1804      1803      1805      1803      1806      1792      1794
      1794      1795      1794      1796      1794      1797      1797      1798
      1797      1799      1797      1800      1800      1801      1800      1802
      1800      1826      1826      1827      1826      1828      1828      1829
      1828      1830      1828      1831      1826      1832      1832      1833
      1832      1834      1832      1835      1835      1836      1835      1837
      1835      1838      1838      1839      1838      1840      1838      1841
      1841      1842      1841      1843      1843      1844      1843      1845
      1843      1846      1841      1847      1847      1848      1847      1849
      1847      1850      1851      1853      1851      1852      1853      1854
      1851      1897      1897      1898      1897      1899      1897      1894
      1894      1895      1894      1896      1851      1855      1855      1856
      1855      1857      1855      1858      1858      1889      1889      1894
      1889      1890      1890      1891      1890      1892      1890      1893
      1858      1859      1859      1860      1859      1861      1861      1862
      1861      1863      1861      1864      1864      1865      1864      1887
      1887      1888      1887      1889      1864      1866      1866      1867
      1866      1876      1876      1881      1881      1882      1881      1883
      1881      1884      1884      1885      1884      1886      1884      1887
      1876      1877      1877      1878      1877      1879      1877      1880
      1866      1868      1868      1869      1868      1870      1868      1871
      1871      1872      1871      1873      1871      1874      1874      1875
      1874      1876      1874      1900      1900      1901      1900      1902
      1902      1903      1902      1904      1902      1905      1900      1906
      1906      1907      1906      1908      1906      1909      1909      1910
      1909      1911      1909      1912      1912      1913      1912      1914
      1912      1915      1915      1916      1915      1917      1917      1918
      1917      1919      1917      1920      1915      1921      1921      1922
      1921      1923      1921      1924      1925      1927      1925      1926
      1927      1928      1925      1971      1971      1972      1971      1973
      1971      1968      1968      1969      1968      1970      1925      1929
      1929      1930      1929      1931      1929      1932      1932      1963
      1963      1968      1963      1964      1964      1965      1964      1966
      1964      1967      1932      1933      1933      1934      1933      1935
      1935      1936      1935      1937      1935      1938      1938      1939
      1938      1961      1961      1962      1961      1963      1938      1940
      1940      1941      1940      1950      1950      1955      1955      1956
      1955      1957      1955      1958      1958      1959      1958      1960
      1958      1961      1950      1951      1951      1952      1951      1953
      1951      1954      1940      1942      1942      1943      1942      1944
      1942      1945      1945      1946      1945      1947      1945      1948
      1948      1949      1948      1950      1948      1974      1974      1975
      1974      1976      1976      1977      1976      1978      1976      1979
      1974      1980      1980      1981      1980      1982      1980      1983
      1983      1984      1983      1985      1983      1986      1986      1987
      1986      1988      1986      1989      1989      1990      1989      1991
      1991      1992      1991      1993      1991      1994      1989      1995
      1995      1996      1995      1997      1995      1998      1999      2001
      1999      2000      2001      2002      1999      2045      2045      2046
      2045      2047      2045      2042      2042      2043      2042      2044
      1999      2003      2003      2004      2003      2005      2003      2006
      2006      2037      2037      2042      2037      2038      2038      2039
      2038      2040      2038      2041      2006      2007      2007      2008
      2007      2009      2009      2010      2009      2011      2009      2012
      2012      2013      2012      2035      2035      2036      2035      2037
      2012      2014      2014      2015      2014      2024      2024      2029
      2029      2030      2029      2031      2029      2032      2032      2033
      2032      2034      2032      2035      2024      2025      2025      2026
      2025      2027      2025      2028      2014      2016      2016      2017
      2016      2018      2016      2019      2019      2020      2019      2021
      2019      2022      2022      2023      2022      2024      2022      2048
      2048      2049      2048      2050      2050      2051      2050      2052
      2050      2053      2048      2054      2054      2055      2054      2056
      2054      2057      2057      2058      2057      2059      2057      2060
      2060      2061      2060      2062      2060      2063      2063      2064
      2063      2065      2065      2066      2065      2067      2065      2068
      2063      2069      2069      2070      2069      2071      2069      2072
      2073      2075      2073      2074      2075      2076      2073      2119
      2119      2120      2119      2121      2119      2116      2116      2117
      2116      2118      2073      2077      2077      2078      2077      2079
      2077      2080      2080      2111      2111      2116      2111      2112
      2112      2113      2112      2114      2112      2115      2080      2081
      2081      2082      2081      2083      2083      2084      2083      2085
      2083      2086      2086      2087      2086      2109      2109      2110
      2109      2111      2086      2088      2088      2089      2088      2098
      2098      2103      2103      2104      2103      2105      2103      2106
      2106      2107      2106      2108      2106      2109      2098      2099
      2099      2100      2099      2101      2099      2102      2088      2090
      2090      2091      2090      2092      2090      2093      2093      2094
      2093      2095      2093      2096      2096      2097      2096      2098
      2096      2122      2122      2123      2122      2124      2124      2125
      2124      2126      2124      2127      2122      2128      2128      2129
      2128      2130      2128      2131      2131      2132      2131      2133
      2131      2134      2134      2135      2134      2136      2134      2137
      2137      2138      2137      2139      2139      2140      2139      2141
      2139      2142      2137      2143      2143      2144      2143      2145
      2143      2146      2147      2149      2147      2148      2149      2150
      2147      2193      2193      2194      2193      2195      2193      2190
      2190      2191      2190      2192      2147      2151      2151      2152
      2151      2153      2151      2154      2154      2185      2185      2190
      2185      2186      2186      2187      2186      2188      2186      2189
      2154      2155      2155      2156      2155      2157      2157      2158
      2157      2159      2157      2160      2160      2161      2160      2183
      2183      2184      2183      2185      2160      2162      2162      2163
      2162      2172      2172      2177      2177      2178      2177      2179
      2177      2180      2180      2181      2180      2182      2180      2183
      2172      2173      2173      2174      2173      2175      2173      2176
      2162      2164      2164      2165      2164      2166      2164      2167
      2167      2168      2167      2169      2167      2170      2170      2171
      2170      2172      2170      2196      2196      2197      2196      2198
      2198      2199      2198      2200      2198      2201      2196      2202
      2202      2203      2202      2204      2202      2205      2205      2206
      2205      2207      2205      2208      2208      2209      2208      2210
      2208      2211      2211      2212      2211      2213      2213      2214
      2213      2215      2213      2216      2211      2217      2217      2218
      2217      2219      2217      2220      2221      2223      2221      2222
      2223      2224      2221      2267      2267      2268      2267      2269
      2267      2264      2264      2265      2264      2266      2221      2225
      2225      2226      2225      2227      2225      2228      2228      2259
      2259      2264      2259      2260      2260      2261      2260      2262
      2260      2263      2228      2229      2229      2230      2229      2231
      2231      2232      2231      2233      2231      2234      2234      2235
      2234      2257      2257      2258      2257      2259      2234      2236
      2236      2237      2236      2246      2246      2251      2251      2252
      2251      2253      2251      2254      2254      2255      2254      2256
      2254      2257      2246      2247      2247      2248      2247      2249
      2247      2250      2236      2238      2238      2239      2238      2240
      2238      2241      2241      2242      2241      2243      2241      2244
      2244      2245      2244      2246      2244      2270      2270      2271
      2270      2272      2272      2273      2272      2274      2272      2275
      2270      2276      2276      2277      2276      2278      2276      2279
      2279      2280      2279      2281      2279      2282      2282      2283
      2282      2284      2282      2285      2285      2286      2285      2287
      2287      2288      2287      2289      2287      2290      2285      2291
      2291      2292      2291      2293      2291      2294      2295      2299
      2295      2303      2295      2307      2299      2300      2299      2301
      2299      2302      2303      2304      2303      2305      2303      2306
      2307      2308      2307      2309      2307      2310      2295      2296
      2296      2297      2296      2298      2296      2311      2311      2312
      2311      2313      2311      2317      2318      2319      2317      2314
      2314      2318      2314      2315      2314      2316      2319      2320
      2319      2321      2319      2322      2322      2323      2322      2330
      2322      2324      2330      2331      2330      2332      2330      2333
      2324      2325      2325      2327      2325      2326      2327      2328
      2327      2329      2327      2339      2339      2340      2339      2341
      2339      2342      2342      2343      2342      2344      2342      2345
      2345      2346      2345      2347      2345      2348      2348      2349
      2348      2350      2348      2351      2351      2352      2351      2353
      2351      2354      2354      2355      2354      2356      2354      2357
      2357      2358      2357      2359      2359      2360      2359      2361
      2361      2362      2361      2363      2361      2364      2364      2365
      2364      2366      2364      2367      2367      2368      2367      2369
      2367      2370      2370      2371      2370      2372      2370      2373
      2373      2374      2373      2375      2373      2376      2376      2377
      2376      2378      2376      2379      2379      2380      2379      2381
      2379      2382      2382      2383      2382      2384      2382      2385
      2333      2334      2334      2336      2334      2335      2336      2337
      2336      2338      2336      2386      2386      2387      2386      2388
      2386      2389      2389      2390      2389      2391      2389      2392
      2392      2393      2392      2394      2392      2395      2395      2396
      2395      2397      2395      2398      2398      2399      2398      2400
      2398      2401      2401      2402      2401      2403      2401      2404
      2404      2405      2404      2406      2404      2407      2407      2408
      2407      2409      2407      2410      2410      2411      2410      2412
      2410      2413      2413      2414      2413      2415      2413      2416
      2416      2417      2416      2418      2416      2419      2419      2420
      2419      2421      2419      2422      2422      2423      2422      2424
      2422      2425      2425      2426      2425      2427      2425      2428
      2429      2433      2429      2437      2429      2441      2433      2434
      2433      2435      2433      2436      2437      2438      2437      2439
      2437      2440      2441      2442      2441      2443      2441      2444
      2429      2430      2430      2431      2430      2432      2430      2445
      2445      2446      2445      2447      2445      2451      2452      2453
      2451      2448      2448      2452      2448      2449      2448      2450
      2453      2454      2453      2455      2453      2456      2456      2457
      2456      2464      2456      2458      2464      2465      2464      2466
      2464      2467      2458      2459      2459      2461      2459      2460
      2461      2462      2461      2463      2461      2473      2473      2474
      2473      2475      2473      2476      2476      2477      2476      2478
      2476      2479      2479      2480      2479      2481      2479      2482
      2482      2483      2482      2484      2482      2485      2485      2486
      2485      2487      2485      2488      2488      2489      2488      2490
      2488      2491      2491      2492      2491      2493      2493      2494
      2493      2495      2495      2496      2495      2497      2495      2498
      2498      2499      2498      2500      2498      2501      2501      2502
      2501      2503      2501      2504      2504      2505      2504      2506
      2504      2507      2507      2508      2507      2509      2507      2510
      2510      2511      2510      2512      2510      2513      2513      2514
      2513      2515      2513      2516      2516      2517      2516      2518
      2516      2519      2467      2468      2468      2470      2468      2469
      2470      2471      2470      2472      2470      2520      2520      2521
      2520      2522      2520      2523      2523      2524      2523      2525
      2523      2526      2526      2527      2526      2528      2526      2529
      2529      2530      2529      2531      2529      2532      2532      2533
      2532      2534      2532      2535      2535      2536      2535      2537
      2535      2538      2538      2539      2538      2540      2538      2541
      2541      2542      2541      2543      2541      2544      2544      2545
      2544      2546      2544      2547      2547      2548      2547      2549
      2547      2550      2550      2551      2550      2552      2550      2553
      2553      2554      2553      2555      2553      2556      2556      2557
      2556      2558      2556      2559      2559      2560      2559      2561
      2559      2562      2563      2567      2563      2571      2563      2575
      2567      2568      2567      2569      2567      2570      2571      2572
      2571      2573      2571      2574      2575      2576      2575      2577
      2575      2578      2563      2564      2564      2565      2564      2566
      2564      2579      2579      2580      2579      2581      2579      2585
      2586      2587      2585      2582      2582      2586      2582      2583
      2582      2584      2587      2588      2587      2589      2587      2590
      2590      2591      2590      2598      2590      2592      2598      2599
      2598      2600      2598      2601      2592      2593      2593      2595
      2593      2594      2595      2596      2595      2597      2595      2607
      2607      2608      2607      2609      2607      2610      2610      2611
      2610      2612      2610      2613      2613      2614      2613      2615
      2613      2616      2616      2617      2616      2618      2616      2619
      2619      2620      2619      2621      2619      2622      2622      2623
      2622      2624      2622      2625      2625      2626      2625      2627
      2627      2628      2627      2629      2629      2630      2629      2631
      2629      2632      2632      2633      2632      2634      2632      2635
      2635      2636      2635      2637      2635      2638      2638      2639
      2638      2640      2638      2641      2641      2642      2641      2643
      2641      2644      2644      2645      2644      2646      2644      2647
      2647      2648      2647      2649      2647      2650      2650      2651
      2650      2652      2650      2653      2601      2602      2602      2604
      2602      2603      2604      2605      2604      2606      2604      2654
      2654      2655      2654      2656      2654      2657      2657      2658
      2657      2659      2657      2660      2660      2661      2660      2662
      2660      2663      2663      2664      2663      2665      2663      2666
      2666      2667      2666      2668      2666      2669      2669      2670
      2669      2671      2669      2672      2672      2673      2672      2674
      2672      2675      2675      2676      2675      2677      2675      2678
      2678      2679      2678      2680      2678      2681      2681      2682
      2681      2683      2681      2684      2684      2685      2684      2686
      2684      2687      2687      2688      2687      2689      2687      2690
      2690      2691      2690      2692      2690      2693      2693      2694
      2693      2695      2693      2696      2697      2701      2697      2705
      2697      2709      2701      2702      2701      2703      2701      2704
      2705      2706      2705      2707      2705      2708      2709      2710
      2709      2711      2709      2712      2697      2698      2698      2699
      2698      2700      2698      2713      2713      2714      2713      2715
      2713      2719      2720      2721      2719      2716      2716      2720
      2716      2717      2716      2718      2721      2722      2721      2723
      2721      2724      2724      2725      2724      2732      2724      2726
      2732      2733      2732      2734      2732      2735      2726      2727
      2727      2729      2727      2728      2729      2730      2729      2731
      2729      2741      2741      2742      2741      2743      2741      2744
      2744      2745      2744      2746      2744      2747      2747      2748
      2747      2749      2747      2750      2750      2751      2750      2752
      2750      2753      2753      2754      2753      2755      2753      2756
      2756      2757      2756      2758      2756      2759      2759      2760
      2759      2761      2761      2762      2761      2763      2763      2764
      2763      2765      2763      2766      2766      2767      2766      2768
      2766      2769      2769      2770      2769      2771      2769      2772
      2772      2773      2772      2774      2772      2775      2775      2776
      2775      2777      2775      2778      2778      2779      2778      2780
      2778      2781      2781      2782      2781      2783      2781      2784
      2784      2785      2784      2786      2784      2787      2735      2736
      2736      2738      2736      2737      2738      2739      2738      2740
      2738      2788      2788      2789      2788      2790      2788      2791
      2791      2792      2791      2793      2791      2794      2794      2795
      2794      2796      2794      2797      2797      2798      2797      2799
      2797      2800      2800      2801      2800      2802      2800      2803
      2803      2804      2803      2805      2803      2806      2806      2807
      2806      2808      2806      2809      2809      2810      2809      2811
      2809      2812      2812      2813      2812      2814      2812      2815
      2815      2816      2815      2817      2815      2818      2818      2819
      2818      2820      2818      2821      2821      2822      2821      2823
      2821      2824      2824      2825      2824      2826      2824      2827
      2827      2828      2827      2829      2827      2830      2831      2835
      2831      2839      2831      2843      2835      2836      2835      2837
      2835      2838      2839      2840      2839      2841      2839      2842
      2843      2844      2843      2845      2843      2846      2831      2832
      2832      2833      2832      2834      2832      2847      2847      2848
      2847      2849      2847      2853      2854      2855      2853      2850
      2850      2854      2850      2851      2850      2852      2855      2856
      2855      2857      2855      2858      2858      2859      2858      2866
      2858      2860      2866      2867      2866      2868      2866      2869
      2860      2861      2861      2863      2861      2862      2863      2864
      2863      2865      2863      2875      2875      2876      2875      2877
      2875      2878      2878      2879      2878      2880      2878      2881
      2881      2882      2881      2883      2881      2884      2884      2885
      2884      2886      2884      2887      2887      2888      2887      2889
      2887      2890      2890      2891      2890      2892      2890      2893
      2893      2894      2893      2895      2895      2896      2895      2897
      2897      2898      2897      2899      2897      2900      2900      2901
      2900      2902      2900      2903      2903      2904      2903      2905
      2903      2906      2906      2907      2906      2908      2906      2909
      2909      2910      2909      2911      2909      2912      2912      2913
      2912      2914      2912      2915      2915      2916      2915      2917
      2915      2918      2918      2919      2918      2920      2918      2921
      2869      2870      2870      2872      2870      2871      2872      2873
      2872      2874      2872      2922      2922      2923      2922      2924
      2922      2925      2925      2926      2925      2927      2925      2928
      2928      2929      2928      2930      2928      2931      2931      2932
      2931      2933      2931      2934      2934      2935      2934      2936
      2934      2937      2937      2938      2937      2939      2937      2940
      2940      2941      2940      2942      2940      2943      2943      2944
      2943      2945      2943      2946      2946      2947      2946      2948
      2946      2949      2949      2950      2949      2951      2949      2952
      2952      2953      2952      2954      2952      2955      2955      2956
      2955      2957      2955      2958      2958      2959      2958      2960
      2958      2961      2961      2962      2961      2963      2961      2964
      2965      2969      2965      2973      2965      2977      2969      2970
      2969      2971      2969      2972      2973      2974      2973      2975
      2973      2976      2977      2978      2977      2979      2977      2980
      2965      2966      2966      2967      2966      2968      2966      2981
      2981      2982      2981      2983      2981      2987      2988      2989
      2987      2984      2984      2988      2984      2985      2984      2986
      2989      2990      2989      2991      2989      2992      2992      2993
      2992      3000      2992      2994      3000      3001      3000      3002
      3000      3003      2994      2995      2995      2997      2995      2996
      2997      2998      2997      2999      2997      3009      3009      3010
      3009      3011      3009      3012      3012      3013      3012      3014
      3012      3015      3015      3016      3015      3017      3015      3018
      3018      3019      3018      3020      3018      3021      3021      3022
      3021      3023      3021      3024      3024      3025      3024      3026
      3024      3027      3027      3028      3027      3029      3029      3030
      3029      3031      3031      3032      3031      3033      3031      3034
      3034      3035      3034      3036      3034      3037      3037      3038
      3037      3039      3037      3040      3040      3041      3040      3042
      3040      3043      3043      3044      3043      3045      3043      3046
      3046      3047      3046      3048      3046      3049      3049      3050
      3049      3051      3049      3052      3052      3053      3052      3054
      3052      3055      3003      3004      3004      3006      3004      3005
      3006      3007      3006      3008      3006      3056      3056      3057
      3056      3058      3056      3059      3059      3060      3059      3061
      3059      3062      3062      3063      3062      3064      3062      3065
      3065      3066      3065      3067      3065      3068      3068      3069
      3068      3070      3068      3071      3071      3072      3071      3073
      3071      3074      3074      3075      3074      3076      3074      3077
      3077      3078      3077      3079      3077      3080      3080      3081
      3080      3082      3080      3083      3083      3084      3083      3085
      3083      3086      3086      3087      3086      3088      3086      3089
      3089      3090      3089      3091      3089      3092      3092      3093
      3092      3094      3092      3095      3095      3096      3095      3097
      3095      3098      3099      3103      3099      3107      3099      3111
      3103      3104      3103      3105      3103      3106      3107      3108
      3107      3109      3107      3110      3111      3112      3111      3113
      3111      3114      3099      3100      3100      3101      3100      3102
      3100      3115      3115      3116      3115      3117      3115      3121
      3122      3123      3121      3118      3118      3122      3118      3119
      3118      3120      3123      3124      3123      3125      3123      3126
      3126      3127      3126      3134      3126      3128      3134      3135
      3134      3136      3134      3137      3128      3129      3129      3131
      3129      3130      3131      3132      3131      3133      3131      3143
      3143      3144      3143      3145      3143      3146      3146      3147
      3146      3148      3146      3149      3149      3150      3149      3151
      3149      3152      3152      3153      3152      3154      3152      3155
      3155      3156      3155      3157      3155      3158      3158      3159
      3158      3160      3158      3161      3161      3162      3161      3163
      3163      3164      3163      3165      3165      3166      3165      3167
      3165      3168      3168      3169      3168      3170      3168      3171
      3171      3172      3171      3173      3171      3174      3174      3175
      3174      3176      3174      3177      3177      3178      3177      3179
      3177      3180      3180      3181      3180      3182      3180      3183
      3183      3184      3183      3185      3183      3186      3186      3187
      3186      3188      3186      3189      3137      3138      3138      3140
      3138      3139      3140      3141      3140      3142      3140      3190
      3190      3191      3190      3192      3190      3193      3193      3194
      3193      3195      3193      3196      3196      3197      3196      3198
      3196      3199      3199      3200      3199      3201      3199      3202
      3202      3203      3202      3204      3202      3205      3205      3206
      3205      3207      3205      3208      3208      3209      3208      3210
      3208      3211      3211      3212      3211      3213      3211      3214
      3214      3215      3214      3216      3214      3217      3217      3218
      3217      3219      3217      3220      3220      3221      3220      3222
      3220      3223      3223      3224      3223      3225      3223      3226
      3226      3227      3226      3228      3226      3229      3229      3230
      3229      3231      3229      3232      3233      3237      3233      3241
      3233      3245      3237      3238      3237      3239      3237      3240
      3241      3242      3241      3243      3241      3244      3245      3246
      3245      3247      3245      3248      3233      3234      3234      3235
      3234      3236      3234      3249      3249      3250      3249      3251
      3249      3255      3256      3257      3255      3252      3252      3256
      3252      3253      3252      3254      3257      3258      3257      3259
      3257      3260      3260      3261      3260      3268      3260      3262
      3268      3269      3268      3270      3268      3271      3262      3263
      3263      3265      3263      3264      3265      3266      3265      3267
      3265      3277      3277      3278      3277      3279      3277      3280
      3280      3281      3280      3282      3280      3283      3283      3284
      3283      3285      3283      3286      3286      3287      3286      3288
      3286      3289      3289      3290      3289      3291      3289      3292
      3292      3293      3292      3294      3292      3295      3295      3296
      3295      3297      3297      3298      3297      3299      3299      3300
      3299      3301      3299      3302      3302      3303      3302      3304
      3302      3305      3305      3306      3305      3307      3305      3308
      3308      3309      3308      3310      3308      3311      3311      3312
      3311      3313      3311      3314      3314      3315      3314      3316
      3314      3317      3317      3318      3317      3319      3317      3320
      3320      3321      3320      3322      3320      3323      3271      3272
      3272      3274      3272      3273      3274      3275      3274      3276
      3274      3324      3324      3325      3324      3326      3324      3327
      3327      3328      3327      3329      3327      3330      3330      3331
      3330      3332      3330      3333      3333      3334      3333      3335
      3333      3336      3336      3337      3336      3338      3336      3339
      3339      3340      3339      3341      3339      3342      3342      3343
      3342      3344      3342      3345      3345      3346      3345      3347
      3345      3348      3348      3349      3348      3350      3348      3351
      3351      3352      3351      3353      3351      3354      3354      3355
      3354      3356      3354      3357      3357      3358      3357      3359
      3357      3360      3360      3361      3360      3362      3360      3363
      3363      3364      3363      3365      3363      3366      3367      3371
      3367      3375      3367      3379      3371      3372      3371      3373
      3371      3374      3375      3376      3375      3377      3375      3378
      3379      3380      3379      3381      3379      3382      3367      3368
      3368      3369      3368      3370      3368      3383      3383      3384
      3383      3385      3383      3389      3390      3391      3389      3386
      3386      3390      3386      3387      3386      3388      3391      3392
      3391      3393      3391      3394      3394      3395      3394      3402
      3394      3396      3402      3403      3402      3404      3402      3405
      3396      3397      3397      3399      3397      3398      3399      3400
      3399      3401      3399      3411      3411      3412      3411      3413
      3411      3414      3414      3415      3414      3416      3414      3417
      3417      3418      3417      3419      3417      3420      3420      3421
      3420      3422      3420      3423      3423      3424      3423      3425
      3423      3426      3426      3427      3426      3428      3426      3429
      3429      3430      3429      3431      3431      3432      3431      3433
      3433      3434      3433      3435      3433      3436      3436      3437
      3436      3438      3436      3439      3439      3440      3439      3441
      3439      3442      3442      3443      3442      3444      3442      3445
      3445      3446      3445      3447      3445      3448      3448      3449
      3448      3450      3448      3451      3451      3452      3451      3453
      3451      3454      3454      3455      3454      3456      3454      3457
      3405      3406      3406      3408      3406      3407      3408      3409
      3408      3410      3408      3458      3458      3459      3458      3460
      3458      3461      3461      3462      3461      3463      3461      3464
      3464      3465      3464      3466      3464      3467      3467      3468
      3467      3469      3467      3470      3470      3471      3470      3472
      3470      3473      3473      3474      3473      3475      3473      3476
      3476      3477      3476      3478      3476      3479      3479      3480
      3479      3481      3479      3482      3482      3483      3482      3484
      3482      3485      3485      3486      3485      3487      3485      3488
      3488      3489      3488      3490      3488      3491      3491      3492
      3491      3493      3491      3494      3494      3495      3494      3496
      3494      3497      3497      3498      3497      3499      3497      3500
      3501      3505      3501      3509      3501      3513      3505      3506
      3505      3507      3505      3508      3509      3510      3509      3511
      3509      3512      3513      3514      3513      3515      3513      3516
      3501      3502      3502      3503      3502      3504      3502      3517
      3517      3518      3517      3519      3517      3523      3524      3525
      3523      3520      3520      3524      3520      3521      3520      3522
      3525      3526      3525      3527      3525      3528      3528      3529
      3528      3536      3528      3530      3536      3537      3536      3538
      3536      3539      3530      3531      3531      3533      3531      3532
      3533      3534      3533      3535      3533      3545      3545      3546
      3545      3547      3545      3548      3548      3549      3548      3550
      3548      3551      3551      3552      3551      3553      3551      3554
      3554      3555      3554      3556      3554      3557      3557      3558
      3557      3559      3557      3560      3560      3561      3560      3562
      3560      3563      3563      3564      3563      3565      3565      3566
      3565      3567      3567      3568      3567      3569      3567      3570
      3570      3571      3570      3572      3570      3573      3573      3574
      3573      3575      3573      3576      3576      3577      3576      3578
      3576      3579      3579      3580      3579      3581      3579      3582
      3582      3583      3582      3584      3582      3585      3585      3586
      3585      3587      3585      3588      3588      3589      3588      3590
      3588      3591      3539      3540      3540      3542      3540      3541
      3542      3543      3542      3544      3542      3592      3592      3593
      3592      3594      3592      3595      3595      3596      3595      3597
      3595      3598      3598      3599      3598      3600      3598      3601
      3601      3602      3601      3603      3601      3604      3604      3605
      3604      3606      3604      3607      3607      3608      3607      3609
      3607      3610      3610      3611      3610      3612      3610      3613
      3613      3614      3613      3615      3613      3616      3616      3617
      3616      3618      3616      3619      3619      3620      3619      3621
      3619      3622      3622      3623      3622      3624      3622      3625
      3625      3626      3625      3627      3625      3628      3628      3629
      3628      3630      3628      3631      3631      3632      3631      3633
      3631      3634      3635      3639      3635      3643      3635      3647
      3639      3640      3639      3641      3639      3642      3643      3644
      3643      3645      3643      3646      3647      3648      3647      3649
      3647      3650      3635      3636      3636      3637      3636      3638
      3636      3651      3651      3652      3651      3653      3651      3657
      3658      3659      3657      3654      3654      3658      3654      3655
      3654      3656      3659      3660      3659      3661      3659      3662
      3662      3663      3662      3670      3662      3664      3670      3671
      3670      3672      3670      3673      3664      3665      3665      3667
      3665      3666      3667      3668      3667      3669      3667      3679
      3679      3680      3679      3681      3679      3682      3682      3683
      3682      3684      3682      3685      3685      3686      3685      3687
      3685      3688      3688      3689      3688      3690      3688      3691
      3691      3692      3691      3693      3691      3694      3694      3695
      3694      3696      3694      3697      3697      3698      3697      3699
      3699      3700      3699      3701      3701      3702      3701      3703
      3701      3704      3704      3705      3704      3706      3704      3707
      3707      3708      3707      3709      3707      3710      3710      3711
      3710      3712      3710      3713      3713      3714      3713      3715
      3713      3716      3716      3717      3716      3718      3716      3719
      3719      3720      3719      3721      3719      3722      3722      3723
      3722      3724      3722      3725      3673      3674      3674      3676
      3674      3675      3676      3677      3676      3678      3676      3726
      3726      3727      3726      3728      3726      3729      3729      3730
      3729      3731      3729      3732      3732      3733      3732      3734
      3732      3735      3735      3736      3735      3737      3735      3738
      3738      3739      3738      3740      3738      3741      3741      3742
      3741      3743      3741      3744      3744      3745      3744      3746
      3744      3747      3747      3748      3747      3749      3747      3750
      3750      3751      3750      3752      3750      3753      3753      3754
      3753      3755      3753      3756      3756      3757      3756      3758
      3756      3759      3759      3760      3759      3761      3759      3762
      3762      3763      3762      3764      3762      3765      3765      3766
      3765      3767      3765      3768      3769      3773      3769      3777
      3769      3781      3773      3774      3773      3775      3773      3776
      3777      3778      3777      3779      3777      3780      3781      3782
      3781      3783      3781      3784      3769      3770      3770      3771
      3770      3772      3770      3785      3785      3786      3785      3787
      3785      3791      3792      3793      3791      3788      3788      3792
      3788      3789      3788      3790      3793      3794      3793      3795
      3793      3796      3796      3797      3796      3804      3796      3798
      3804      3805      3804      3806      3804      3807      3798      3799
      3799      3801      3799      3800      3801      3802      3801      3803
      3801      3813      3813      3814      3813      3815      3813      3816
      3816      3817      3816      3818      3816      3819      3819      3820
      3819      3821      3819      3822      3822      3823      3822      3824
      3822      3825      3825      3826      3825      3827      3825      3828
      3828      3829      3828      3830      3828      3831      3831      3832
      3831      3833      3833      3834      3833      3835      3835      3836
      3835      3837      3835      3838      3838      3839      3838      3840
      3838      3841      3841      3842      3841      3843      3841      3844
      3844      3845      3844      3846      3844      3847      3847      3848
      3847      3849      3847      3850      3850      3851      3850      3852
      3850      3853      3853      3854      3853      3855      3853      3856
      3856      3857      3856      3858      3856      3859      3807      3808
      3808      3810      3808      3809      3810      3811      3810      3812
      3810      3860      3860      3861      3860      3862      3860      3863
      3863      3864      3863      3865      3863      3866      3866      3867
      3866      3868      3866      3869      3869      3870      3869      3871
      3869      3872      3872      3873      3872      3874      3872      3875
      3875      3876      3875      3877      3875      3878      3878      3879
      3878      3880      3878      3881      3881      3882      3881      3883
      3881      3884      3884      3885      3884      3886      3884      3887
      3887      3888      3887      3889      3887      3890      3890      3891
      3890      3892      3890      3893      3893      3894      3893      3895
      3893      3896      3896      3897      3896      3898      3896      3899
      3899      3900      3899      3901      3899      3902      3903      3907
      3903      3911      3903      3915      3907      3908      3907      3909
      3907      3910      3911      3912      3911      3913      3911      3914
      3915      3916      3915      3917      3915      3918      3903      3904
      3904      3905      3904      3906      3904      3919      3919      3920
      3919      3921      3919      3925      3926      3927      3925      3922
      3922      3926      3922      3923      3922      3924      3927      3928
      3927      3929      3927      3930      3930      3931      3930      3938
      3930      3932      3938      3939      3938      3940      3938      3941
      3932      3933      3933      3935      3933      3934      3935      3936
      3935      3937      3935      3947      3947      3948      3947      3949
      3947      3950      3950      3951      3950      3952      3950      3953
      3953      3954      3953      3955      3953      3956      3956      3957
      3956      3958      3956      3959      3959      3960      3959      3961
      3959      3962      3962      3963      3962      3964      3962      3965
      3965      3966      3965      3967      3967      3968      3967      3969
      3969      3970      3969      3971      3969      3972      3972      3973
      3972      3974      3972      3975      3975      3976      3975      3977
      3975      3978      3978      3979      3978      3980      3978      3981
      3981      3982      3981      3983      3981      3984      3984      3985
      3984      3986      3984      3987      3987      3988      3987      3989
      3987      3990      3990      3991      3990      3992      3990      3993
      3941      3942      3942      3944      3942      3943      3944      3945
      3944      3946      3944      3994      3994      3995      3994      3996
      3994      3997      3997      3998      3997      3999      3997      4000
      4000      4001      4000      4002      4000      4003      4003      4004
      4003      4005      4003      4006      4006      4007      4006      4008
      4006      4009      4009      4010      4009      4011      4009      4012
      4012      4013      4012      4014      4012      4015      4015      4016
      4015      4017      4015      4018      4018      4019      4018      4020
      4018      4021      4021      4022      4021      4023      4021      4024
      4024      4025      4024      4026      4024      4027      4027      4028
      4027      4029      4027      4030      4030      4031      4030      4032
      4030      4033      4033      4034      4033      4035      4033      4036
      4037      4041      4037      4045      4037      4049      4041      4042
      4041      4043      4041      4044      4045      4046      4045      4047
      4045      4048      4049      4050      4049      4051      4049      4052
      4037      4038      4038      4039      4038      4040      4038      4053
      4053      4054      4053      4055      4053      4059      4060      4061
      4059      4056      4056      4060      4056      4057      4056      4058
      4061      4062      4061      4063      4061      4064      4064      4065
      4064      4072      4064      4066      4072      4073      4072      4074
      4072      4075      4066      4067      4067      4069      4067      4068
      4069      4070      4069      4071      4069      4081      4081      4082
      4081      4083      4081      4084      4084      4085      4084      4086
      4084      4087      4087      4088      4087      4089      4087      4090
      4090      4091      4090      4092      4090      4093      4093      4094
      4093      4095      4093      4096      4096      4097      4096      4098
      4096      4099      4099      4100      4099      4101      4101      4102
      4101      4103      4103      4104      4103      4105      4103      4106
      4106      4107      4106      4108      4106      4109      4109      4110
      4109      4111      4109      4112      4112      4113      4112      4114
      4112      4115      4115      4116      4115      4117      4115      4118
      4118      4119      4118      4120      4118      4121      4121      4122
      4121      4123      4121      4124      4124      4125      4124      4126
      4124      4127      4075      4076      4076      4078      4076      4077
      4078      4079      4078      4080      4078      4128      4128      4129
      4128      4130      4128      4131      4131      4132      4131      4133
      4131      4134      4134      4135      4134      4136      4134      4137
      4137      4138      4137      4139      4137      4140      4140      4141
      4140      4142      4140      4143      4143      4144      4143      4145
      4143      4146      4146      4147      4146      4148      4146      4149
      4149      4150      4149      4151      4149      4152      4152      4153
      4152      4154      4152      4155      4155      4156      4155      4157
      4155      4158      4158      4159      4158      4160      4158      4161
      4161      4162      4161      4163      4161      4164      4164      4165
      4164      4166      4164      4167      4167      4168      4167      4169
      4167      4170      4171      4175      4171      4179      4171      4183
      4175      4176      4175      4177      4175      4178      4179      4180
      4179      4181      4179      4182      4183      4184      4183      4185
      4183      4186      4171      4172      4172      4173      4172      4174
      4172      4187      4187      4188      4187      4189      4187      4193
      4194      4195      4193      4190      4190      4194      4190      4191
      4190      4192      4195      4196      4195      4197      4195      4198
      4198      4199      4198      4206      4198      4200      4206      4207
      4206      4208      4206      4209      4200      4201      4201      4203
      4201      4202      4203      4204      4203      4205      4203      4215
      4215      4216      4215      4217      4215      4218      4218      4219
      4218      4220      4218      4221      4221      4222      4221      4223
      4221      4224      4224      4225      4224      4226      4224      4227
      4227      4228      4227      4229      4227      4230      4230      4231
      4230      4232      4230      4233      4233      4234      4233      4235
      4235      4236      4235      4237      4237      4238      4237      4239
      4237      4240      4240      4241      4240      4242      4240      4243
      4243      4244      4243      4245      4243      4246      4246      4247
      4246      4248      4246      4249      4249      4250      4249      4251
      4249      4252      4252      4253      4252      4254      4252      4255
      4255      4256      4255      4257      4255      4258      4258      4259
      4258      4260      4258      4261      4209      4210      4210      4212
      4210      4211      4212      4213      4212      4214      4212      4262
      4262      4263      4262      4264      4262      4265      4265      4266
      4265      4267      4265      4268      4268      4269      4268      4270
      4268      4271      4271      4272      4271      4273      4271      4274
      4274      4275      4274      4276      4274      4277      4277      4278
      4277      4279      4277      4280      4280      4281      4280      4282
      4280      4283      4283      4284      4283      4285      4283      4286
      4286      4287      4286      4288      4286      4289      4289      4290
      4289      4291      4289      4292      4292      4293      4292      4294
      4292      4295      4295      4296      4295      4297      4295      4298
      4298      4299      4298      4300      4298      4301      4301      4302
      4301      4303      4301      4304      4305      4309      4305      4313
      4305      4317      4309      4310      4309      4311      4309      4312
      4313      4314      4313      4315      4313      4316      4317      4318
      4317      4319      4317      4320      4305      4306      4306      4307
      4306      4308      4306      4321      4321      4322      4321      4323
      4321      4327      4328      4329      4327      4324      4324      4328
      4324      4325      4324      4326      4329      4330      4329      4331
      4329      4332      4332      4333      4332      4340      4332      4334
      4340      4341      4340      4342      4340      4343      4334      4335
      4335      4337      4335      4336      4337      4338      4337      4339
      4337      4349      4349      4350      4349      4351      4349      4352
      4352      4353      4352      4354      4352      4355      4355      4356
      4355      4357      4355      4358      4358      4359      4358      4360
      4358      4361      4361      4362      4361      4363      4361      4364
      4364      4365      4364      4366      4364      4367      4367      4368
      4367      4369      4369      4370      4369      4371      4371      4372
      4371      4373      4371      4374      4374      4375      4374      4376
      4374      4377      4377      4378      4377      4379      4377      4380
      4380      4381      4380      4382      4380      4383      4383      4384
      4383      4385      4383      4386      4386      4387      4386      4388
      4386      4389      4389      4390      4389      4391      4389      4392
      4392      4393      4392      4394      4392      4395      4343      4344
      4344      4346      4344      4345      4346      4347      4346      4348
      4346      4396      4396      4397      4396      4398      4396      4399
      4399      4400      4399      4401      4399      4402      4402      4403
      4402      4404      4402      4405      4405      4406      4405      4407
      4405      4408      4408      4409      4408      4410      4408      4411
      4411      4412      4411      4413      4411      4414      4414      4415
      4414      4416      4414      4417      4417      4418      4417      4419
      4417      4420      4420      4421      4420      4422      4420      4423
      4423      4424      4423      4425      4423      4426      4426      4427
      4426      4428      4426      4429      4429      4430      4429      4431
      4429      4432      4432      4433      4432      4434      4432      4435
      4435      4436      4435      4437      4435      4438      4439      4443
      4439      4447      4439      4451      4443      4444      4443      4445
      4443      4446      4447      4448      4447      4449      4447      4450
      4451      4452      4451      4453      4451      4454      4439      4440
      4440      4441      4440      4442      4440      4455      4455      4456
      4455      4457      4455      4461      4462      4463      4461      4458
      4458      4462      4458      4459      4458      4460      4463      4464
      4463      4465      4463      4466      4466      4467      4466      4474
      4466      4468      4474      4475      4474      4476      4474      4477
      4468      4469      4469      4471      4469      4470      4471      4472
      4471      4473      4471      4483      4483      4484      4483      4485
      4483      4486      4486      4487      4486      4488      4486      4489
      4489      4490      4489      4491      4489      4492      4492      4493
      4492      4494      4492      4495      4495      4496      4495      4497
      4495      4498      4498      4499      4498      4500      4498      4501
      4501      4502      4501      4503      4503      4504      4503      4505
      4505      4506      4505      4507      4505      4508      4508      4509
      4508      4510      4508      4511      4511      4512      4511      4513
      4511      4514      4514      4515      4514      4516      4514      4517
      4517      4518      4517      4519      4517      4520      4520      4521
      4520      4522      4520      4523      4523      4524      4523      4525
      4523      4526      4526      4527      4526      4528      4526      4529
      4477      4478      4478      4480      4478      4479      4480      4481
      4480      4482      4480      4530      4530      4531      4530      4532
      4530      4533      4533      4534      4533      4535      4533      4536
      4536      4537      4536      4538      4536      4539      4539      4540
      4539      4541      4539      4542      4542      4543      4542      4544
      4542      4545      4545      4546      4545      4547      4545      4548
      4548      4549      4548      4550      4548      4551      4551      4552
      4551      4553      4551      4554      4554      4555      4554      4556
      4554      4557      4557      4558      4557      4559      4557      4560
      4560      4561      4560      4562      4560      4563      4563      4564
      4563      4565      4563      4566      4566      4567      4566      4568
      4566      4569      4569      4570      4569      4571      4569      4572
      4573      4577      4573      4581      4573      4585      4577      4578
      4577      4579      4577      4580      4581      4582      4581      4583
      4581      4584      4585      4586      4585      4587      4585      4588
      4573      4574      4574      4575      4574      4576      4574      4589
      4589      4590      4589      4591      4589      4595      4596      4597
      4595      4592      4592      4596      4592      4593      4592      4594
      4597      4598      4597      4599      4597      4600      4600      4601
      4600      4608      4600      4602      4608      4609      4608      4610
      4608      4611      4602      4603      4603      4605      4603      4604
      4605      4606      4605      4607      4605      4617      4617      4618
      4617      4619      4617      4620      4620      4621      4620      4622
      4620      4623      4623      4624      4623      4625      4623      4626
      4626      4627      4626      4628      4626      4629      4629      4630
      4629      4631      4629      4632      4632      4633      4632      4634
      4632      4635      4635      4636      4635      4637      4637      4638
      4637      4639      4639      4640      4639      4641      4639      4642
      4642      4643      4642      4644      4642      4645      4645      4646
      4645      4647      4645      4648      4648      4649      4648      4650
      4648      4651      4651      4652      4651      4653      4651      4654
      4654      4655      4654      4656      4654      4657      4657      4658
      4657      4659      4657      4660      4660      4661      4660      4662
      4660      4663      4611      4612      4612      4614      4612      4613
      4614      4615      4614      4616      4614      4664      4664      4665
      4664      4666      4664      4667      4667      4668      4667      4669
      4667      4670      4670      4671      4670      4672      4670      4673
      4673      4674      4673      4675      4673      4676      4676      4677
      4676      4678      4676      4679      4679      4680      4679      4681
      4679      4682      4682      4683      4682      4684      4682      4685
      4685      4686      4685      4687      4685      4688      4688      4689
      4688      4690      4688      4691      4691      4692      4691      4693
      4691      4694      4694      4695      4694      4696      4694      4697
      4697      4698      4697      4699      4697      4700      4700      4701
      4700      4702      4700      4703      4703      4704      4703      4705
      4703      4706      4707      4711      4707      4715      4707      4719
      4711      4712      4711      4713      4711      4714      4715      4716
      4715      4717      4715      4718      4719      4720      4719      4721
      4719      4722      4707      4708      4708      4709      4708      4710
      4708      4723      4723      4724      4723      4725      4723      4729
      4730      4731      4729      4726      4726      4730      4726      4727
      4726      4728      4731      4732      4731      4733      4731      4734
      4734      4735      4734      4742      4734      4736      4742      4743
      4742      4744      4742      4745      4736      4737      4737      4739
      4737      4738      4739      4740      4739      4741      4739      4751
      4751      4752      4751      4753      4751      4754      4754      4755
      4754      4756      4754      4757      4757      4758      4757      4759
      4757      4760      4760      4761      4760      4762      4760      4763
      4763      4764      4763      4765      4763      4766      4766      4767
      4766      4768      4766      4769      4769      4770      4769      4771
      4771      4772      4771      4773      4773      4774      4773      4775
      4773      4776      4776      4777      4776      4778      4776      4779
      4779      4780      4779      4781      4779      4782      4782      4783
      4782      4784      4782      4785      4785      4786      4785      4787
      4785      4788      4788      4789      4788      4790      4788      4791
      4791      4792      4791      4793      4791      4794      4794      4795
      4794      4796      4794      4797      4745      4746      4746      4748
      4746      4747      4748      4749      4748      4750      4748      4798
      4798      4799      4798      4800      4798      4801      4801      4802
      4801      4803      4801      4804      4804      4805      4804      4806
      4804      4807      4807      4808      4807      4809      4807      4810
      4810      4811      4810      4812      4810      4813      4813      4814
      4813      4815      4813      4816      4816      4817      4816      4818
      4816      4819      4819      4820      4819      4821      4819      4822
      4822      4823      4822      4824      4822      4825      4825      4826
      4825      4827      4825      4828      4828      4829      4828      4830
      4828      4831      4831      4832      4831      4833      4831      4834
      4834      4835      4834      4836      4834      4837      4837      4838
      4837      4839      4837      4840      4841      4845      4841      4849
      4841      4853      4845      4846      4845      4847      4845      4848
      4849      4850      4849      4851      4849      4852      4853      4854
      4853      4855      4853      4856      4841      4842      4842      4843
      4842      4844      4842      4857      4857      4858      4857      4859
      4857      4863      4864      4865      4863      4860      4860      4864
      4860      4861      4860      4862      4865      4866      4865      4867
      4865      4868      4868      4869      4868      4876      4868      4870
      4876      4877      4876      4878      4876      4879      4870      4871
      4871      4873      4871      4872      4873      4874      4873      4875
      4873      4885      4885      4886      4885      4887      4885      4888
      4888      4889      4888      4890      4888      4891      4891      4892
      4891      4893      4891      4894      4894      4895      4894      4896
      4894      4897      4897      4898      4897      4899      4897      4900
      4900      4901      4900      4902      4900      4903      4903      4904
      4903      4905      4905      4906      4905      4907      4907      4908
      4907      4909      4907      4910      4910      4911      4910      4912
      4910      4913      4913      4914      4913      4915      4913      4916
      4916      4917      4916      4918      4916      4919      4919      4920
      4919      4921      4919      4922      4922      4923      4922      4924
      4922      4925      4925      4926      4925      4927      4925      4928
      4928      4929      4928      4930      4928      4931      4879      4880
      4880      4882      4880      4881      4882      4883      4882      4884
      4882      4932      4932      4933      4932      4934      4932      4935
      4935      4936      4935      4937      4935      4938      4938      4939
      4938      4940      4938      4941      4941      4942      4941      4943
      4941      4944      4944      4945      4944      4946      4944      4947
      4947      4948      4947      4949      4947      4950      4950      4951
      4950      4952      4950      4953      4953      4954      4953      4955
      4953      4956      4956      4957      4956      4958      4956      4959
      4959      4960      4959      4961      4959      4962      4962      4963
      4962      4964      4962      4965      4965      4966      4965      4967
      4965      4968      4968      4969      4968      4970      4968      4971
      4971      4972      4971      4973      4971      4974      4975      4979
      4975      4983      4975      4987      4979      4980      4979      4981
      4979      4982      4983      4984      4983      4985      4983      4986
      4987      4988      4987      4989      4987      4990      4975      4976
      4976      4977      4976      4978      4976      4991      4991      4992
      4991      4993      4991      4997      4998      4999      4997      4994
      4994      4998      4994      4995      4994      4996      4999      5000
      4999      5001      4999      5002      5002      5003      5002      5010
      5002      5004      5010      5011      5010      5012      5010      5013
      5004      5005      5005      5007      5005      5006      5007      5008
      5007      5009      5007      5019      5019      5020      5019      5021
      5019      5022      5022      5023      5022      5024      5022      5025
      5025      5026      5025      5027      5025      5028      5028      5029
      5028      5030      5028      5031      5031      5032      5031      5033
      5031      5034      5034      5035      5034      5036      5034      5037
      5037      5038      5037      5039      5039      5040      5039      5041
      5041      5042      5041      5043      5041      5044      5044      5045
      5044      5046      5044      5047      5047      5048      5047      5049
      5047      5050      5050      5051      5050      5052      5050      5053
      5053      5054      5053      5055      5053      5056      5056      5057
      5056      5058      5056      5059      5059      5060      5059      5061
      5059      5062      5062      5063      5062      5064      5062      5065
      5013      5014      5014      5016      5014      5015      5016      5017
      5016      5018      5016      5066      5066      5067      5066      5068
      5066      5069      5069      5070      5069      5071      5069      5072
      5072      5073      5072      5074      5072      5075      5075      5076
      5075      5077      5075      5078      5078      5079      5078      5080
      5078      5081      5081      5082      5081      5083      5081      5084
      5084      5085      5084      5086      5084      5087      5087      5088
      5087      5089      5087      5090      5090      5091      5090      5092
      5090      5093      5093      5094      5093      5095      5093      5096
      5096      5097      5096      5098      5096      5099      5099      5100
      5099      5101      5099      5102      5102      5103      5102      5104
      5102      5105      5105      5106      5105      5107      5105      5108
      5109      5113      5109      5117      5109      5121      5113      5114
      5113      5115      5113      5116      5117      5118      5117      5119
      5117      5120      5121      5122      5121      5123      5121      5124
      5109      5110      5110      5111      5110      5112      5110      5125
      5125      5126      5125      5127      5125      5131      5132      5133
      5131      5128      5128      5132      5128      5129      5128      5130
      5133      5134      5133      5135      5133      5136      5136      5137
      5136      5144      5136      5138      5144      5145      5144      5146
      5144      5147      5138      5139      5139      5141      5139      5140
      5141      5142      5141      5143      5141      5153      5153      5154
      5153      5155      5153      5156      5156      5157      5156      5158
      5156      5159      5159      5160      5159      5161      5159      5162
      5162      5163      5162      5164      5162      5165      5165      5166
      5165      5167      5165      5168      5168      5169      5168      5170
      5168      5171      5171      5172      5171      5173      5173      5174
      5173      5175      5175      5176      5175      5177      5175      5178
      5178      5179      5178      5180      5178      5181      5181      5182
      5181      5183      5181      5184      5184      5185      5184      5186
      5184      5187      5187      5188      5187      5189      5187      5190
      5190      5191      5190      5192      5190      5193      5193      5194
      5193      5195      5193      5196      5196      5197      5196      5198
      5196      5199      5147      5148      5148      5150      5148      5149
      5150      5151      5150      5152      5150      5200      5200      5201
      5200      5202      5200      5203      5203      5204      5203      5205
      5203      5206      5206      5207      5206      5208      5206      5209
      5209      5210      5209      5211      5209      5212      5212      5213
      5212      5214      5212      5215      5215      5216      5215      5217
      5215      5218      5218      5219      5218      5220      5218      5221
      5221      5222      5221      5223      5221      5224      5224      5225
      5224      5226      5224      5227      5227      5228      5227      5229
      5227      5230      5230      5231      5230      5232      5230      5233
      5233      5234      5233      5235      5233      5236      5236      5237
      5236      5238      5236      5239      5239      5240      5239      5241
      5239      5242      5243      5247      5243      5251      5243      5255
      5247      5248      5247      5249      5247      5250      5251      5252
      5251      5253      5251      5254      5255      5256      5255      5257
      5255      5258      5243      5244      5244      5245      5244      5246
      5244      5259      5259      5260      5259      5261      5259      5265
      5266      5267      5265      5262      5262      5266      5262      5263
      5262      5264      5267      5268      5267      5269      5267      5270
      5270      5271      5270      5278      5270      5272      5278      5279
      5278      5280      5278      5281      5272      5273      5273      5275
      5273      5274      5275      5276      5275      5277      5275      5287
      5287      5288      5287      5289      5287      5290      5290      5291
      5290      5292      5290      5293      5293      5294      5293      5295
      5293      5296      5296      5297      5296      5298      5296      5299
      5299      5300      5299      5301      5299      5302      5302      5303
      5302      5304      5302      5305      5305      5306      5305      5307
      5307      5308      5307      5309      5309      5310      5309      5311
      5309      5312      5312      5313      5312      5314      5312      5315
      5315      5316      5315      5317      5315      5318      5318      5319
      5318      5320      5318      5321      5321      5322      5321      5323
      5321      5324      5324      5325      5324      5326      5324      5327
      5327      5328      5327      5329      5327      5330      5330      5331
      5330      5332      5330      5333      5281      5282      5282      5284
      5282      5283      5284      5285      5284      5286      5284      5334
      5334      5335      5334      5336      5334      5337      5337      5338
      5337      5339      5337      5340      5340      5341      5340      5342
      5340      5343      5343      5344      5343      5345      5343      5346
      5346      5347      5346      5348      5346      5349      5349      5350
      5349      5351      5349      5352      5352      5353      5352      5354
      5352      5355      5355      5356      5355      5357      5355      5358
      5358      5359      5358      5360      5358      5361      5361      5362
      5361      5363      5361      5364      5364      5365      5364      5366
      5364      5367      5367      5368      5367      5369      5367      5370
      5370      5371      5370      5372      5370      5373      5373      5374
      5373      5375      5373      5376      5377      5381      5377      5385
      5377      5389      5381      5382      5381      5383      5381      5384
      5385      5386      5385      5387      5385      5388      5389      5390
      5389      5391      5389      5392      5377      5378      5378      5379
      5378      5380      5378      5393      5393      5394      5393      5395
      5393      5399      5400      5401      5399      5396      5396      5400
      5396      5397      5396      5398      5401      5402      5401      5403
      5401      5404      5404      5405      5404      5412      5404      5406
      5412      5413      5412      5414      5412      5415      5406      5407
      5407      5409      5407      5408      5409      5410      5409      5411
      5409      5421      5421      5422      5421      5423      5421      5424
      5424      5425      5424      5426      5424      5427      5427      5428
      5427      5429      5427      5430      5430      5431      5430      5432
      5430      5433      5433      5434      5433      5435      5433      5436
      5436      5437      5436      5438      5436      5439      5439      5440
      5439      5441      5441      5442      5441      5443      5443      5444
      5443      5445      5443      5446      5446      5447      5446      5448
      5446      5449      5449      5450      5449      5451      5449      5452
      5452      5453      5452      5454      5452      5455      5455      5456
      5455      5457      5455      5458      5458      5459      5458      5460
      5458      5461      5461      5462      5461      5463      5461      5464
      5464      5465      5464      5466      5464      5467      5415      5416
      5416      5418      5416      5417      5418      5419      5418      5420
      5418      5468      5468      5469      5468      5470      5468      5471
      5471      5472      5471      5473      5471      5474      5474      5475
      5474      5476      5474      5477      5477      5478      5477      5479
      5477      5480      5480      5481      5480      5482      5480      5483
      5483      5484      5483      5485      5483      5486      5486      5487
      5486      5488      5486      5489      5489      5490      5489      5491
      5489      5492      5492      5493      5492      5494      5492      5495
      5495      5496      5495      5497      5495      5498      5498      5499
      5498      5500      5498      5501      5501      5502      5501      5503
      5501      5504      5504      5505      5504      5506      5504      5507
      5507      5508      5507      5509      5507      5510      5511      5515
      5511      5519      5511      5523      5515      5516      5515      5517
      5515      5518      5519      5520      5519      5521      5519      5522
      5523      5524      5523      5525      5523      5526      5511      5512
      5512      5513      5512      5514      5512      5527      5527      5528
      5527      5529      5527      5533      5534      5535      5533      5530
      5530      5534      5530      5531      5530      5532      5535      5536
      5535      5537      5535      5538      5538      5539      5538      5546
      5538      5540      5546      5547      5546      5548      5546      5549
      5540      5541      5541      5543      5541      5542      5543      5544
      5543      5545      5543      5555      5555      5556      5555      5557
      5555      5558      5558      5559      5558      5560      5558      5561
      5561      5562      5561      5563      5561      5564      5564      5565
      5564      5566      5564      5567      5567      5568      5567      5569
      5567      5570      5570      5571      5570      5572      5570      5573
      5573      5574      5573      5575      5575      5576      5575      5577
      5577      5578      5577      5579      5577      5580      5580      5581
      5580      5582      5580      5583      5583      5584      5583      5585
      5583      5586      5586      5587      5586      5588      5586      5589
      5589      5590      5589      5591      5589      5592      5592      5593
      5592      5594      5592      5595      5595      5596      5595      5597
      5595      5598      5598      5599      5598      5600      5598      5601
      5549      5550      5550      5552      5550      5551      5552      5553
      5552      5554      5552      5602      5602      5603      5602      5604
      5602      5605      5605      5606      5605      5607      5605      5608
      5608      5609      5608      5610      5608      5611      5611      5612
      5611      5613      5611      5614      5614      5615      5614      5616
      5614      5617      5617      5618      5617      5619      5617      5620
      5620      5621      5620      5622      5620      5623      5623      5624
      5623      5625      5623      5626      5626      5627      5626      5628
      5626      5629      5629      5630      5629      5631      5629      5632
      5632      5633      5632      5634      5632      5635      5635      5636
      5635      5637      5635      5638      5638      5639      5638      5640
      5638      5641      5641      5642      5641      5643      5641      5644
      5645      5649      5645      5653      5645      5657      5649      5650
      5649      5651      5649      5652      5653      5654      5653      5655
      5653      5656      5657      5658      5657      5659      5657      5660
      5645      5646      5646      5647      5646      5648      5646      5661
      5661      5662      5661      5663      5661      5667      5668      5669
      5667      5664      5664      5668      5664      5665      5664      5666
      5669      5670      5669      5671      5669      5672      5672      5673
      5672      5680      5672      5674      5680      5681      5680      5682
      5680      5683      5674      5675      5675      5677      5675      5676
      5677      5678      5677      5679      5677      5689      5689      5690
      5689      5691      5689      5692      5692      5693      5692      5694
      5692      5695      5695      5696      5695      5697      5695      5698
      5698      5699      5698      5700      5698      5701      5701      5702
      5701      5703      5701      5704      5704      5705      5704      5706
      5704      5707      5707      5708      5707      5709      5709      5710
      5709      5711      5711      5712      5711      5713      5711      5714
      5714      5715      5714      5716      5714      5717      5717      5718
      5717      5719      5717      5720      5720      5721      5720      5722
      5720      5723      5723      5724      5723      5725      5723      5726
      5726      5727      5726      5728      5726      5729      5729      5730
      5729      5731      5729      5732      5732      5733      5732      5734
      5732      5735      5683      5684      5684      5686      5684      5685
      5686      5687      5686      5688      5686      5736      5736      5737
      5736      5738      5736      5739      5739      5740      5739      5741
      5739      5742      5742      5743      5742      5744      5742      5745
      5745      5746      5745      5747      5745      5748      5748      5749
      5748      5750      5748      5751      5751      5752      5751      5753
      5751      5754      5754      5755      5754      5756      5754      5757
      5757      5758      5757      5759      5757      5760      5760      5761
      5760      5762      5760      5763      5763      5764      5763      5765
      5763      5766      5766      5767      5766      5768      5766      5769
      5769      5770      5769      5771      5769      5772      5772      5773
      5772      5774      5772      5775      5775      5776      5775      5777
      5775      5778      5779      5783      5779      5787      5779      5791
      5783      5784      5783      5785      5783      5786      5787      5788
      5787      5789      5787      5790      5791      5792      5791      5793
      5791      5794      5779      5780      5780      5781      5780      5782
      5780      5795      5795      5796      5795      5797      5795      5801
      5802      5803      5801      5798      5798      5802      5798      5799
      5798      5800      5803      5804      5803      5805      5803      5806
      5806      5807      5806      5814      5806      5808      5814      5815
      5814      5816      5814      5817      5808      5809      5809      5811
      5809      5810      5811      5812      5811      5813      5811      5823
      5823      5824      5823      5825      5823      5826      5826      5827
      5826      5828      5826      5829      5829      5830      5829      5831
      5829      5832      5832      5833      5832      5834      5832      5835
      5835      5836      5835      5837      5835      5838      5838      5839
      5838      5840      5838      5841      5841      5842      5841      5843
      5843      5844      5843      5845      5845      5846      5845      5847
      5845      5848      5848      5849      5848      5850      5848      5851
      5851      5852      5851      5853      5851      5854      5854      5855
      5854      5856      5854      5857      5857      5858      5857      5859
      5857      5860      5860      5861      5860      5862      5860      5863
      5863      5864      5863      5865      5863      5866      5866      5867
      5866      5868      5866      5869      5817      5818      5818      5820
      5818      5819      5820      5821      5820      5822      5820      5870
      5870      5871      5870      5872      5870      5873      5873      5874
      5873      5875      5873      5876      5876      5877      5876      5878
      5876      5879      5879      5880      5879      5881      5879      5882
      5882      5883      5882      5884      5882      5885      5885      5886
      5885      5887      5885      5888      5888      5889      5888      5890
      5888      5891      5891      5892      5891      5893      5891      5894
      5894      5895      5894      5896      5894      5897      5897      5898
      5897      5899      5897      5900      5900      5901      5900      5902
      5900      5903      5903      5904      5903      5905      5903      5906
      5906      5907      5906      5908      5906      5909      5909      5910
      5909      5911      5909      5912      5913      5917      5913      5921
      5913      5925      5917      5918      5917      5919      5917      5920
      5921      5922      5921      5923      5921      5924      5925      5926
      5925      5927      5925      5928      5913      5914      5914      5915
      5914      5916      5914      5929      5929      5930      5929      5931
      5929      5935      5936      5937      5935      5932      5932      5936
      5932      5933      5932      5934      5937      5938      5937      5939
      5937      5940      5940      5941      5940      5948      5940      5942
      5948      5949      5948      5950      5948      5951      5942      5943
      5943      5945      5943      5944      5945      5946      5945      5947
      5945      5957      5957      5958      5957      5959      5957      5960
      5960      5961      5960      5962      5960      5963      5963      5964
      5963      5965      5963      5966      5966      5967      5966      5968
      5966      5969      5969      5970      5969      5971      5969      5972
      5972      5973      5972      5974      5972      5975      5975      5976
      5975      5977      5977      5978      5977      5979      5979      5980
      5979      5981      5979      5982      5982      5983      5982      5984
      5982      5985      5985      5986      5985      5987      5985      5988
      5988      5989      5988      5990      5988      5991      5991      5992
      5991      5993      5991      5994      5994      5995      5994      5996
      5994      5997      5997      5998      5997      5999      5997      6000
      6000      6001      6000      6002      6000      6003      5951      5952
      5952      5954      5952      5953      5954      5955      5954      5956
      5954      6004      6004      6005      6004      6006      6004      6007
      6007      6008      6007      6009      6007      6010      6010      6011
      6010      6012      6010      6013      6013      6014      6013      6015
      6013      6016      6016      6017      6016      6018      6016      6019
      6019      6020      6019      6021      6019      6022      6022      6023
      6022      6024      6022      6025      6025      6026      6025      6027
      6025      6028      6028      6029      6028      6030      6028      6031
      6031      6032      6031      6033      6031      6034      6034      6035
      6034      6036      6034      6037      6037      6038      6037      6039
      6037      6040      6040      6041      6040      6042      6040      6043
      6043      6044      6043      6045      6043      6046      6047      6051
      6047      6055      6047      6059      6051      6052      6051      6053
      6051      6054      6055      6056      6055      6057      6055      6058
      6059      6060      6059      6061      6059      6062      6047      6048
      6048      6049      6048      6050      6048      6063      6063      6064
      6063      6065      6063      6069      6070      6071      6069      6066
      6066      6070      6066      6067      6066      6068      6071      6072
      6071      6073      6071      6074      6074      6075      6074      6082
      6074      6076      6082      6083      6082      6084      6082      6085
      6076      6077      6077      6079      6077      6078      6079      6080
      6079      6081      6079      6091      6091      6092      6091      6093
      6091      6094      6094      6095      6094      6096      6094      6097
      6097      6098      6097      6099      6097      6100      6100      6101
      6100      6102      6100      6103      6103      6104      6103      6105
      6103      6106      6106      6107      6106      6108      6106      6109
      6109      6110      6109      6111      6111      6112      6111      6113
      6113      6114      6113      6115      6113      6116      6116      6117
      6116      6118      6116      6119      6119      6120      6119      6121
      6119      6122      6122      6123      6122      6124      6122      6125
      6125      6126      6125      6127      6125      6128      6128      6129
      6128      6130      6128      6131      6131      6132      6131      6133
      6131      6134      6134      6135      6134      6136      6134      6137
      6085      6086      6086      6088      6086      6087      6088      6089
      6088      6090      6088      6138      6138      6139      6138      6140
      6138      6141      6141      6142      6141      6143      6141      6144
      6144      6145      6144      6146      6144      6147      6147      6148
      6147      6149      6147      6150      6150      6151      6150      6152
      6150      6153      6153      6154      6153      6155      6153      6156
      6156      6157      6156      6158      6156      6159      6159      6160
      6159      6161      6159      6162      6162      6163      6162      6164
      6162      6165      6165      6166      6165      6167      6165      6168
      6168      6169      6168      6170      6168      6171      6171      6172
      6171      6173      6171      6174      6174      6175      6174      6176
      6174      6177      6177      6178      6177      6179      6177      6180
      6181      6185      6181      6189      6181      6193      6185      6186
      6185      6187      6185      6188      6189      6190      6189      6191
      6189      6192      6193      6194      6193      6195      6193      6196
      6181      6182      6182      6183      6182      6184      6182      6197
      6197      6198      6197      6199      6197      6203      6204      6205
      6203      6200      6200      6204      6200      6201      6200      6202
      6205      6206      6205      6207      6205      6208      6208      6209
      6208      6216      6208      6210      6216      6217      6216      6218
      6216      6219      6210      6211      6211      6213      6211      6212
      6213      6214      6213      6215      6213      6225      6225      6226
      6225      6227      6225      6228      6228      6229      6228      6230
      6228      6231      6231      6232      6231      6233      6231      6234
      6234      6235      6234      6236      6234      6237      6237      6238
      6237      6239      6237      6240      6240      6241      6240      6242
      6240      6243      6243      6244      6243      6245      6245      6246
      6245      6247      6247      6248      6247      6249      6247      6250
      6250      6251      6250      6252      6250      6253      6253      6254
      6253      6255      6253      6256      6256      6257      6256      6258
      6256      6259      6259      6260      6259      6261      6259      6262
      6262      6263      6262      6264      6262      6265      6265      6266
      6265      6267      6265      6268      6268      6269      6268      6270
      6268      6271      6219      6220      6220      6222      6220      6221
      6222      6223      6222      6224      6222      6272      6272      6273
      6272      6274      6272      6275      6275      6276      6275      6277
      6275      6278      6278      6279      6278      6280      6278      6281
      6281      6282      6281      6283      6281      6284      6284      6285
      6284      6286      6284      6287      6287      6288      6287      6289
      6287      6290      6290      6291      6290      6292      6290      6293
      6293      6294      6293      6295      6293      6296      6296      6297
      6296      6298      6296      6299      6299      6300      6299      6301
      6299      6302      6302      6303      6302      6304      6302      6305
      6305      6306      6305      6307      6305      6308      6308      6309
      6308      6310      6308      6311      6311      6312      6311      6313
      6311      6314      6315      6319      6315      6323      6315      6327
      6319      6320      6319      6321      6319      6322      6323      6324
      6323      6325      6323      6326      6327      6328      6327      6329
      6327      6330      6315      6316      6316      6317      6316      6318
      6316      6331      6331      6332      6331      6333      6331      6337
      6338      6339      6337      6334      6334      6338      6334      6335
      6334      6336      6339      6340      6339      6341      6339      6342
      6342      6343      6342      6350      6342      6344      6350      6351
      6350      6352      6350      6353      6344      6345      6345      6347
      6345      6346      6347      6348      6347      6349      6347      6359
      6359      6360      6359      6361      6359      6362      6362      6363
      6362      6364      6362      6365      6365      6366      6365      6367
      6365      6368      6368      6369      6368      6370      6368      6371
      6371      6372      6371      6373      6371      6374      6374      6375
      6374      6376      6374      6377      6377      6378      6377      6379
      6379      6380      6379      6381      6381      6382      6381      6383
      6381      6384      6384      6385      6384      6386      6384      6387
      6387      6388      6387      6389      6387      6390      6390      6391
      6390      6392      6390      6393      6393      6394      6393      6395
      6393      6396      6396      6397      6396      6398      6396      6399
      6399      6400      6399      6401      6399      6402      6402      6403
      6402      6404      6402      6405      6353      6354      6354      6356
      6354      6355      6356      6357      6356      6358      6356      6406
      6406      6407      6406      6408      6406      6409      6409      6410
      6409      6411      6409      6412      6412      6413      6412      6414
      6412      6415      6415      6416      6415      6417      6415      6418
      6418      6419      6418      6420      6418      6421      6421      6422
      6421      6423      6421      6424      6424      6425      6424      6426
      6424      6427      6427      6428      6427      6429      6427      6430
      6430      6431      6430      6432      6430      6433      6433      6434
      6433      6435      6433      6436      6436      6437      6436      6438
      6436      6439      6439      6440      6439      6441      6439      6442
      6442      6443      6442      6444      6442      6445      6445      6446
      6445      6447      6445      6448      6449      6453      6449      6457
      6449      6461      6453      6454      6453      6455      6453      6456
      6457      6458      6457      6459      6457      6460      6461      6462
      6461      6463      6461      6464      6449      6450      6450      6451
      6450      6452      6450      6465      6465      6466      6465      6467
      6465      6471      6472      6473      6471      6468      6468      6472
      6468      6469      6468      6470      6473      6474      6473      6475
      6473      6476      6476      6477      6476      6484      6476      6478
      6484      6485      6484      6486      6484      6487      6478      6479
      6479      6481      6479      6480      6481      6482      6481      6483
      6481      6493      6493      6494      6493      6495      6493      6496
      6496      6497      6496      6498      6496      6499      6499      6500
      6499      6501      6499      6502      6502      6503      6502      6504
      6502      6505      6505      6506      6505      6507      6505      6508
      6508      6509      6508      6510      6508      6511      6511      6512
      6511      6513      6513      6514      6513      6515      6515      6516
      6515      6517      6515      6518      6518      6519      6518      6520
      6518      6521      6521      6522      6521      6523      6521      6524
      6524      6525      6524      6526      6524      6527      6527      6528
      6527      6529      6527      6530      6530      6531      6530      6532
      6530      6533      6533      6534      6533      6535      6533      6536
      6536      6537      6536      6538      6536      6539      6487      6488
      6488      6490      6488      6489      6490      6491      6490      6492
      6490      6540      6540      6541      6540      6542      6540      6543
      6543      6544      6543      6545      6543      6546      6546      6547
      6546      6548      6546      6549      6549      6550      6549      6551
      6549      6552      6552      6553      6552      6554      6552      6555
      6555      6556      6555      6557      6555      6558      6558      6559
      6558      6560      6558      6561      6561      6562      6561      6563
      6561      6564      6564      6565      6564      6566      6564      6567
      6567      6568      6567      6569      6567      6570      6570      6571
      6570      6572      6570      6573      6573      6574      6573      6575
      6573      6576      6576      6577      6576      6578      6576      6579
      6579      6580      6579      6581      6579      6582      6583      6587
      6583      6591      6583      6595      6587      6588      6587      6589
      6587      6590      6591      6592      6591      6593      6591      6594
      6595      6596      6595      6597      6595      6598      6583      6584
      6584      6585      6584      6586      6584      6599      6599      6600
      6599      6601      6599      6605      6606      6607      6605      6602
      6602      6606      6602      6603      6602      6604      6607      6608
      6607      6609      6607      6610      6610      6611      6610      6618
      6610      6612      6618      6619      6618      6620      6618      6621
      6612      6613      6613      6615      6613      6614      6615      6616
      6615      6617      6615      6627      6627      6628      6627      6629
      6627      6630      6630      6631      6630      6632      6630      6633
      6633      6634      6633      6635      6633      6636      6636      6637
      6636      6638      6636      6639      6639      6640      6639      6641
      6639      6642      6642      6643      6642      6644      6642      6645
      6645      6646      6645      6647      6647      6648      6647      6649
      6649      6650      6649      6651      6649      6652      6652      6653
      6652      6654      6652      6655      6655      6656      6655      6657
      6655      6658      6658      6659      6658      6660      6658      6661
      6661      6662      6661      6663      6661      6664      6664      6665
      6664      6666      6664      6667      6667      6668      6667      6669
      6667      6670      6670      6671      6670      6672      6670      6673
      6621      6622      6622      6624      6622      6623      6624      6625
      6624      6626      6624      6674      6674      6675      6674      6676
      6674      6677      6677      6678      6677      6679      6677      6680
      6680      6681      6680      6682      6680      6683      6683      6684
      6683      6685      6683      6686      6686      6687      6686      6688
      6686      6689      6689      6690      6689      6691      6689      6692
      6692      6693      6692      6694      6692      6695      6695      6696
      6695      6697      6695      6698      6698      6699      6698      6700
      6698      6701      6701      6702      6701      6703      6701      6704
      6704      6705      6704      6706      6704      6707      6707      6708
      6707      6709      6707      6710      6710      6711      6710      6712
      6710      6713      6713      6714      6713      6715      6713      6716
      6717      6721      6717      6725      6717      6729      6721      6722
      6721      6723      6721      6724      6725      6726      6725      6727
      6725      6728      6729      6730      6729      6731      6729      6732
      6717      6718      6718      6719      6718      6720      6718      6733
      6733      6734      6733      6735      6733      6739      6740      6741
      6739      6736      6736      6740      6736      6737      6736      6738
      6741      6742      6741      6743      6741      6744      6744      6745
      6744      6752      6744      6746      6752      6753      6752      6754
      6752      6755      6746      6747      6747      6749      6747      6748
      6749      6750      6749      6751      6749      6761      6761      6762
      6761      6763      6761      6764      6764      6765      6764      6766
      6764      6767      6767      6768      6767      6769      6767      6770
      6770      6771      6770      6772      6770      6773      6773      6774
      6773      6775      6773      6776      6776      6777      6776      6778
      6776      6779      6779      6780      6779      6781      6781      6782
      6781      6783      6783      6784      6783      6785      6783      6786
      6786      6787      6786      6788      6786      6789      6789      6790
      6789      6791      6789      6792      6792      6793      6792      6794
      6792      6795      6795      6796      6795      6797      6795      6798
      6798      6799      6798      6800      6798      6801      6801      6802
      6801      6803      6801      6804      6804      6805      6804      6806
      6804      6807      6755      6756      6756      6758      6756      6757
      6758      6759      6758      6760      6758      6808      6808      6809
      6808      6810      6808      6811      6811      6812      6811      6813
      6811      6814      6814      6815      6814      6816      6814      6817
      6817      6818      6817      6819      6817      6820      6820      6821
      6820      6822      6820      6823      6823      6824      6823      6825
      6823      6826      6826      6827      6826      6828      6826      6829
      6829      6830      6829      6831      6829      6832      6832      6833
      6832      6834      6832      6835      6835      6836      6835      6837
      6835      6838      6838      6839      6838      6840      6838      6841
      6841      6842      6841      6843      6841      6844      6844      6845
      6844      6846      6844      6847      6847      6848      6847      6849
      6847      6850      6851      6855      6851      6859      6851      6863
      6855      6856      6855      6857      6855      6858      6859      6860
      6859      6861      6859      6862      6863      6864      6863      6865
      6863      6866      6851      6852      6852      6853      6852      6854
      6852      6867      6867      6868      6867      6869      6867      6873
      6874      6875      6873      6870      6870      6874      6870      6871
      6870      6872      6875      6876      6875      6877      6875      6878
      6878      6879      6878      6886      6878      6880      6886      6887
      6886      6888      6886      6889      6880      6881      6881      6883
      6881      6882      6883      6884      6883      6885      6883      6895
      6895      6896      6895      6897      6895      6898      6898      6899
      6898      6900      6898      6901      6901      6902      6901      6903
      6901      6904      6904      6905      6904      6906      6904      6907
      6907      6908      6907      6909      6907      6910      6910      6911
      6910      6912      6910      6913      6913      6914      6913      6915
      6915      6916      6915      6917      6917      6918      6917      6919
      6917      6920      6920      6921      6920      6922      6920      6923
      6923      6924      6923      6925      6923      6926      6926      6927
      6926      6928      6926      6929      6929      6930      6929      6931
      6929      6932      6932      6933      6932      6934      6932      6935
      6935      6936      6935      6937      6935      6938      6938      6939
      6938      6940      6938      6941      6889      6890      6890      6892
      6890      6891      6892      6893      6892      6894      6892      6942
      6942      6943      6942      6944      6942      6945      6945      6946
      6945      6947      6945      6948      6948      6949      6948      6950
      6948      6951      6951      6952      6951      6953      6951      6954
      6954      6955      6954      6956      6954      6957      6957      6958
      6957      6959      6957      6960      6960      6961      6960      6962
      6960      6963      6963      6964      6963      6965      6963      6966
      6966      6967      6966      6968      6966      6969      6969      6970
      6969      6971      6969      6972      6972      6973      6972      6974
      6972      6975      6975      6976      6975      6977      6975      6978
      6978      6979      6978      6980      6978      6981      6981      6982
      6981      6983      6981      6984      6985      6989      6985      6993
      6985      6997      6989      6990      6989      6991      6989      6992
      6993      6994      6993      6995      6993      6996      6997      6998
      6997      6999      6997      7000      6985      6986      6986      6987
      6986      6988      6986      7001      7001      7002      7001      7003
      7001      7007      7008      7009      7007      7004      7004      7008
      7004      7005      7004      7006      7009      7010      7009      7011
      7009      7012      7012      7013      7012      7020      7012      7014
      7020      7021      7020      7022      7020      7023      7014      7015
      7015      7017      7015      7016      7017      7018      7017      7019
      7017      7029      7029      7030      7029      7031      7029      7032
      7032      7033      7032      7034      7032      7035      7035      7036
      7035      7037      7035      7038      7038      7039      7038      7040
      7038      7041      7041      7042      7041      7043      7041      7044
      7044      7045      7044      7046      7044      7047      7047      7048
      7047      7049      7049      7050      7049      7051      7051      7052
      7051      7053      7051      7054      7054      7055      7054      7056
      7054      7057      7057      7058      7057      7059      7057      7060
      7060      7061      7060      7062      7060      7063      7063      7064
      7063      7065      7063      7066      7066      7067      7066      7068
      7066      7069      7069      7070      7069      7071      7069      7072
      7072      7073      7072      7074      7072      7075      7023      7024
      7024      7026      7024      7025      7026      7027      7026      7028
      7026      7076      7076      7077      7076      7078      7076      7079
      7079      7080      7079      7081      7079      7082      7082      7083
      7082      7084      7082      7085      7085      7086      7085      7087
      7085      7088      7088      7089      7088      7090      7088      7091
      7091      7092      7091      7093      7091      7094      7094      7095
      7094      7096      7094      7097      7097      7098      7097      7099
      7097      7100      7100      7101      7100      7102      7100      7103
      7103      7104      7103      7105      7103      7106      7106      7107
      7106      7108      7106      7109      7109      7110      7109      7111
      7109      7112      7112      7113      7112      7114      7112      7115
      7115      7116      7115      7117      7115      7118      7119      7123
      7119      7127      7119      7131      7123      7124      7123      7125
      7123      7126      7127      7128      7127      7129      7127      7130
      7131      7132      7131      7133      7131      7134      7119      7120
      7120      7121      7120      7122      7120      7135      7135      7136
      7135      7137      7135      7141      7142      7143      7141      7138
      7138      7142      7138      7139      7138      7140      7143      7144
      7143      7145      7143      7146      7146      7147      7146      7154
      7146      7148      7154      7155      7154      7156      7154      7157
      7148      7149      7149      7151      7149      7150      7151      7152
      7151      7153      7151      7163      7163      7164      7163      7165
      7163      7166      7166      7167      7166      7168      7166      7169
      7169      7170      7169      7171      7169      7172      7172      7173
      7172      7174      7172      7175      7175      7176      7175      7177
      7175      7178      7178      7179      7178      7180      7178      7181
      7181      7182      7181      7183      7183      7184      7183      7185
      7185      7186      7185      7187      7185      7188      7188      7189
      7188      7190      7188      7191      7191      7192      7191      7193
      7191      7194      7194      7195      7194      7196      7194      7197
      7197      7198      7197      7199      7197      7200      7200      7201
      7200      7202      7200      7203      7203      7204      7203      7205
      7203      7206      7206      7207      7206      7208      7206      7209
      7157      7158      7158      7160      7158      7159      7160      7161
      7160      7162      7160      7210      7210      7211      7210      7212
      7210      7213      7213      7214      7213      7215      7213      7216
      7216      7217      7216      7218      7216      7219      7219      7220
      7219      7221      7219      7222      7222      7223      7222      7224
      7222      7225      7225      7226      7225      7227      7225      7228
      7228      7229      7228      7230      7228      7231      7231      7232
      7231      7233      7231      7234      7234      7235      7234      7236
      7234      7237      7237      7238      7237      7239      7237      7240
      7240      7241      7240      7242      7240      7243      7243      7244
      7243      7245      7243      7246      7246      7247      7246      7248
      7246      7249      7249      7250      7249      7251      7249      7252
      7253      7257      7253      7261      7253      7265      7257      7258
      7257      7259      7257      7260      7261      7262      7261      7263
      7261      7264      7265      7266      7265      7267      7265      7268
      7253      7254      7254      7255      7254      7256      7254      7269
      7269      7270      7269      7271      7269      7275      7276      7277
      7275      7272      7272      7276      7272      7273      7272      7274
      7277      7278      7277      7279      7277      7280      7280      7281
      7280      7288      7280      7282      7288      7289      7288      7290
      7288      7291      7282      7283      7283      7285      7283      7284
      7285      7286      7285      7287      7285      7297      7297      7298
      7297      7299      7297      7300      7300      7301      7300      7302
      7300      7303      7303      7304      7303      7305      7303      7306
      7306      7307      7306      7308      7306      7309      7309      7310
      7309      7311      7309      7312      7312      7313      7312      7314
      7312      7315      7315      7316      7315      7317      7317      7318
      7317      7319      7319      7320      7319      7321      7319      7322
      7322      7323      7322      7324      7322      7325      7325      7326
      7325      7327      7325      7328      7328      7329      7328      7330
      7328      7331      7331      7332      7331      7333      7331      7334
      7334      7335      7334      7336      7334      7337      7337      7338
      7337      7339      7337      7340      7340      7341      7340      7342
      7340      7343      7291      7292      7292      7294      7292      7293
      7294      7295      7294      7296      7294      7344      7344      7345
      7344      7346      7344      7347      7347      7348      7347      7349
      7347      7350      7350      7351      7350      7352      7350      7353
      7353      7354      7353      7355      7353      7356      7356      7357
      7356      7358      7356      7359      7359      7360      7359      7361
      7359      7362      7362      7363      7362      7364      7362      7365
      7365      7366      7365      7367      7365      7368      7368      7369
      7368      7370      7368      7371      7371      7372      7371      7373
      7371      7374      7374      7375      7374      7376      7374      7377
      7377      7378      7377      7379      7377      7380      7380      7381
      7380      7382      7380      7383      7383      7384      7383      7385
      7383      7386      7387      7391      7387      7395      7387      7399
      7391      7392      7391      7393      7391      7394      7395      7396
      7395      7397      7395      7398      7399      7400      7399      7401
      7399      7402      7387      7388      7388      7389      7388      7390
      7388      7403      7403      7404      7403      7405      7403      7409
      7410      7411      7409      7406      7406      7410      7406      7407
      7406      7408      7411      7412      7411      7413      7411      7414
      7414      7415      7414      7422      7414      7416      7422      7423
      7422      7424      7422      7425      7416      7417      7417      7419
      7417      7418      7419      7420      7419      7421      7419      7431
      7431      7432      7431      7433      7431      7434      7434      7435
      7434      7436      7434      7437      7437      7438      7437      7439
      7437      7440      7440      7441      7440      7442      7440      7443
      7443      7444      7443      7445      7443      7446      7446      7447
      7446      7448      7446      7449      7449      7450      7449      7451
      7451      7452      7451      7453      7453      7454      7453      7455
      7453      7456      7456      7457      7456      7458      7456      7459
      7459      7460      7459      7461      7459      7462      7462      7463
      7462      7464      7462      7465      7465      7466      7465      7467
      7465      7468      7468      7469      7468      7470      7468      7471
      7471      7472      7471      7473      7471      7474      7474      7475
      7474      7476      7474      7477      7425      7426      7426      7428
      7426      7427      7428      7429      7428      7430      7428      7478
      7478      7479      7478      7480      7478      7481      7481      7482
      7481      7483      7481      7484      7484      7485      7484      7486
      7484      7487      7487      7488      7487      7489      7487      7490
      7490      7491      7490      7492      7490      7493      7493      7494
      7493      7495      7493      7496      7496      7497      7496      7498
      7496      7499      7499      7500      7499      7501      7499      7502
      7502      7503      7502      7504      7502      7505      7505      7506
      7505      7507      7505      7508      7508      7509      7508      7510
      7508      7511      7511      7512      7511      7513      7511      7514
      7514      7515      7514      7516      7514      7517      7517      7518
      7517      7519      7517      7520      7521      7525      7521      7529
      7521      7533      7525      7526      7525      7527      7525      7528
      7529      7530      7529      7531      7529      7532      7533      7534
      7533      7535      7533      7536      7521      7522      7522      7523
      7522      7524      7522      7537      7537      7538      7537      7539
      7537      7543      7544      7545      7543      7540      7540      7544
      7540      7541      7540      7542      7545      7546      7545      7547
      7545      7548      7548      7549      7548      7556      7548      7550
      7556      7557      7556      7558      7556      7559      7550      7551
      7551      7553      7551      7552      7553      7554      7553      7555
      7553      7565      7565      7566      7565      7567      7565      7568
      7568      7569      7568      7570      7568      7571      7571      7572
      7571      7573      7571      7574      7574      7575      7574      7576
      7574      7577      7577      7578      7577      7579      7577      7580
      7580      7581      7580      7582      7580      7583      7583      7584
      7583      7585      7585      7586      7585      7587      7587      7588
      7587      7589      7587      7590      7590      7591      7590      7592
      7590      7593      7593      7594      7593      7595      7593      7596
      7596      7597      7596      7598      7596      7599      7599      7600
      7599      7601      7599      7602      7602      7603      7602      7604
      7602      7605      7605      7606      7605      7607      7605      7608
      7608      7609      7608      7610      7608      7611      7559      7560
      7560      7562      7560      7561      7562      7563      7562      7564
      7562      7612      7612      7613      7612      7614      7612      7615
      7615      7616      7615      7617      7615      7618      7618      7619
      7618      7620      7618      7621      7621      7622      7621      7623
      7621      7624      7624      7625      7624      7626      7624      7627
      7627      7628      7627      7629      7627      7630      7630      7631
      7630      7632      7630      7633      7633      7634      7633      7635
      7633      7636      7636      7637      7636      7638      7636      7639
      7639      7640      7639      7641      7639      7642      7642      7643
      7642      7644      7642      7645      7645      7646      7645      7647
      7645      7648      7648      7649      7648      7650      7648      7651
      7651      7652      7651      7653      7651      7654      7655      7659
      7655      7663      7655      7667      7659      7660      7659      7661
      7659      7662      7663      7664      7663      7665      7663      7666
      7667      7668      7667      7669      7667      7670      7655      7656
      7656      7657      7656      7658      7656      7671      7671      7672
      7671      7673      7671      7677      7678      7679      7677      7674
      7674      7678      7674      7675      7674      7676      7679      7680
      7679      7681      7679      7682      7682      7683      7682      7690
      7682      7684      7690      7691      7690      7692      7690      7693
      7684      7685      7685      7687      7685      7686      7687      7688
      7687      7689      7687      7699      7699      7700      7699      7701
      7699      7702      7702      7703      7702      7704      7702      7705
      7705      7706      7705      7707      7705      7708      7708      7709
      7708      7710      7708      7711      7711      7712      7711      7713
      7711      7714      7714      7715      7714      7716      7714      7717
      7717      7718      7717      7719      7719      7720      7719      7721
      7721      7722      7721      7723      7721      7724      7724      7725
      7724      7726      7724      7727      7727      7728      7727      7729
      7727      7730      7730      7731      7730      7732      7730      7733
      7733      7734      7733      7735      7733      7736      7736      7737
      7736      7738      7736      7739      7739      7740      7739      7741
      7739      7742      7742      7743      7742      7744      7742      7745
      7693      7694      7694      7696      7694      7695      7696      7697
      7696      7698      7696      7746      7746      7747      7746      7748
      7746      7749      7749      7750      7749      7751      7749      7752
      7752      7753      7752      7754      7752      7755      7755      7756
      7755      7757      7755      7758      7758      7759      7758      7760
      7758      7761      7761      7762      7761      7763      7761      7764
      7764      7765      7764      7766      7764      7767      7767      7768
      7767      7769      7767      7770      7770      7771      7770      7772
      7770      7773      7773      7774      7773      7775      7773      7776
      7776      7777      7776      7778      7776      7779      7779      7780
      7779      7781      7779      7782      7782      7783      7782      7784
      7782      7785      7785      7786      7785      7787      7785      7788
      7789      7793      7789      7797      7789      7801      7793      7794
      7793      7795      7793      7796      7797      7798      7797      7799
      7797      7800      7801      7802      7801      7803      7801      7804
      7789      7790      7790      7791      7790      7792      7790      7805
      7805      7806      7805      7807      7805      7811      7812      7813
      7811      7808      7808      7812      7808      7809      7808      7810
      7813      7814      7813      7815      7813      7816      7816      7817
      7816      7824      7816      7818      7824      7825      7824      7826
      7824      7827      7818      7819      7819      7821      7819      7820
      7821      7822      7821      7823      7821      7833      7833      7834
      7833      7835      7833      7836      7836      7837      7836      7838
      7836      7839      7839      7840      7839      7841      7839      7842
      7842      7843      7842      7844      7842      7845      7845      7846
      7845      7847      7845      7848      7848      7849      7848      7850
      7848      7851      7851      7852      7851      7853      7853      7854
      7853      7855      7855      7856      7855      7857      7855      7858
      7858      7859      7858      7860      7858      7861      7861      7862
      7861      7863      7861      7864      7864      7865      7864      7866
      7864      7867      7867      7868      7867      7869      7867      7870
      7870      7871      7870      7872      7870      7873      7873      7874
      7873      7875      7873      7876      7876      7877      7876      7878
      7876      7879      7827      7828      7828      7830      7828      7829
      7830      7831      7830      7832      7830      7880      7880      7881
      7880      7882      7880      7883      7883      7884      7883      7885
      7883      7886      7886      7887      7886      7888      7886      7889
      7889      7890      7889      7891      7889      7892      7892      7893
      7892      7894      7892      7895      7895      7896      7895      7897
      7895      7898      7898      7899      7898      7900      7898      7901
      7901      7902      7901      7903      7901      7904      7904      7905
      7904      7906      7904      7907      7907      7908      7907      7909
      7907      7910      7910      7911      7910      7912      7910      7913
      7913      7914      7913      7915      7913      7916      7916      7917
      7916      7918      7916      7919      7919      7920      7919      7921
      7919      7922      7923      7927      7923      7931      7923      7935
      7927      7928      7927      7929      7927      7930      7931      7932
      7931      7933      7931      7934      7935      7936      7935      7937
      7935      7938      7923      7924      7924      7925      7924      7926
      7924      7939      7939      7940      7939      7941      7939      7945
      7946      7947      7945      7942      7942      7946      7942      7943
      7942      7944      7947      7948      7947      7949      7947      7950
      7950      7951      7950      7958      7950      7952      7958      7959
      7958      7960      7958      7961      7952      7953      7953      7955
      7953      7954      7955      7956      7955      7957      7955      7967
      7967      7968      7967      7969      7967      7970      7970      7971
      7970      7972      7970      7973      7973      7974      7973      7975
      7973      7976      7976      7977      7976      7978      7976      7979
      7979      7980      7979      7981      7979      7982      7982      7983
      7982      7984      7982      7985      7985      7986      7985      7987
      7987      7988      7987      7989      7989      7990      7989      7991
      7989      7992      7992      7993      7992      7994      7992      7995
      7995      7996      7995      7997      7995      7998      7998      7999
      7998      8000      7998      8001      8001      8002      8001      8003
      8001      8004      8004      8005      8004      8006      8004      8007
      8007      8008      8007      8009      8007      8010      8010      8011
      8010      8012      8010      8013      7961      7962      7962      7964
      7962      7963      7964      7965      7964      7966      7964      8014
      8014      8015      8014      8016      8014      8017      8017      8018
      8017      8019      8017      8020      8020      8021      8020      8022
      8020      8023      8023      8024      8023      8025      8023      8026
      8026      8027      8026      8028      8026      8029      8029      8030
      8029      8031      8029      8032      8032      8033      8032      8034
      8032      8035      8035      8036      8035      8037      8035      8038
      8038      8039      8038      8040      8038      8041      8041      8042
      8041      8043      8041      8044      8044      8045      8044      8046
      8044      8047      8047      8048      8047      8049      8047      8050
      8050      8051      8050      8052      8050      8053      8053      8054
      8053      8055      8053      8056      8057      8061      8057      8065
      8057      8069      8061      8062      8061      8063      8061      8064
      8065      8066      8065      8067      8065      8068      8069      8070
      8069      8071      8069      8072      8057      8058      8058      8059
      8058      8060      8058      8073      8073      8074      8073      8075
      8073      8079      8080      8081      8079      8076      8076      8080
      8076      8077      8076      8078      8081      8082      8081      8083
      8081      8084      8084      8085      8084      8092      8084      8086
      8092      8093      8092      8094      8092      8095      8086      8087
      8087      8089      8087      8088      8089      8090      8089      8091
      8089      8101      8101      8102      8101      8103      8101      8104
      8104      8105      8104      8106      8104      8107      8107      8108
      8107      8109      8107      8110      8110      8111      8110      8112
      8110      8113      8113      8114      8113      8115      8113      8116
      8116      8117      8116      8118      8116      8119      8119      8120
      8119      8121      8121      8122      8121      8123      8123      8124
      8123      8125      8123      8126      8126      8127      8126      8128
      8126      8129      8129      8130      8129      8131      8129      8132
      8132      8133      8132      8134      8132      8135      8135      8136
      8135      8137      8135      8138      8138      8139      8138      8140
      8138      8141      8141      8142      8141      8143      8141      8144
      8144      8145      8144      8146      8144      8147      8095      8096
      8096      8098      8096      8097      8098      8099      8098      8100
      8098      8148      8148      8149      8148      8150      8148      8151
      8151      8152      8151      8153      8151      8154      8154      8155
      8154      8156      8154      8157      8157      8158      8157      8159
      8157      8160      8160      8161      8160      8162      8160      8163
      8163      8164      8163      8165      8163      8166      8166      8167
      8166      8168      8166      8169      8169      8170      8169      8171
      8169      8172      8172      8173      8172      8174      8172      8175
      8175      8176      8175      8177      8175      8178      8178      8179
      8178      8180      8178      8181      8181      8182      8181      8183
      8181      8184      8184      8185      8184      8186      8184      8187
      8187      8188      8187      8189      8187      8190      8191      8195
      8191      8199      8191      8203      8195      8196      8195      8197
      8195      8198      8199      8200      8199      8201      8199      8202
      8203      8204      8203      8205      8203      8206      8191      8192
      8192      8193      8192      8194      8192      8207      8207      8208
      8207      8209      8207      8213      8214      8215      8213      8210
      8210      8214      8210      8211      8210      8212      8215      8216
      8215      8217      8215      8218      8218      8219      8218      8226
      8218      8220      8226      8227      8226      8228      8226      8229
      8220      8221      8221      8223      8221      8222      8223      8224
      8223      8225      8223      8235      8235      8236      8235      8237
      8235      8238      8238      8239      8238      8240      8238      8241
      8241      8242      8241      8243      8241      8244      8244      8245
      8244      8246      8244      8247      8247      8248      8247      8249
      8247      8250      8250      8251      8250      8252      8250      8253
      8253      8254      8253      8255      8255      8256      8255      8257
      8257      8258      8257      8259      8257      8260      8260      8261
      8260      8262      8260      8263      8263      8264      8263      8265
      8263      8266      8266      8267      8266      8268      8266      8269
      8269      8270      8269      8271      8269      8272      8272      8273
      8272      8274      8272      8275      8275      8276      8275      8277
      8275      8278      8278      8279      8278      8280      8278      8281
      8229      8230      8230      8232      8230      8231      8232      8233
      8232      8234      8232      8282      8282      8283      8282      8284
      8282      8285      8285      8286      8285      8287      8285      8288
      8288      8289      8288      8290      8288      8291      8291      8292
      8291      8293      8291      8294      8294      8295      8294      8296
      8294      8297      8297      8298      8297      8299      8297      8300
      8300      8301      8300      8302      8300      8303      8303      8304
      8303      8305      8303      8306      8306      8307      8306      8308
      8306      8309      8309      8310      8309      8311      8309      8312
      8312      8313      8312      8314      8312      8315      8315      8316
      8315      8317      8315      8318      8318      8319      8318      8320
      8318      8321      8321      8322      8321      8323      8321      8324
      8325      8329      8325      8333      8325      8337      8329      8330
      8329      8331      8329      8332      8333      8334      8333      8335
      8333      8336      8337      8338      8337      8339      8337      8340
      8325      8326      8326      8327      8326      8328      8326      8341
      8341      8342      8341      8343      8341      8347      8348      8349
      8347      8344      8344      8348      8344      8345      8344      8346
      8349      8350      8349      8351      8349      8352      8352      8353
      8352      8360      8352      8354      8360      8361      8360      8362
      8360      8363      8354      8355      8355      8357      8355      8356
      8357      8358      8357      8359      8357      8369      8369      8370
      8369      8371      8369      8372      8372      8373      8372      8374
      8372      8375      8375      8376      8375      8377      8375      8378
      8378      8379      8378      8380      8378      8381      8381      8382
      8381      8383      8381      8384      8384      8385      8384      8386
      8384      8387      8387      8388      8387      8389      8389      8390
      8389      8391      8391      8392      8391      8393      8391      8394
      8394      8395      8394      8396      8394      8397      8397      8398
      8397      8399      8397      8400      8400      8401      8400      8402
      8400      8403      8403      8404      8403      8405      8403      8406
      8406      8407      8406      8408      8406      8409      8409      8410
      8409      8411      8409      8412      8412      8413      8412      8414
      8412      8415      8363      8364      8364      8366      8364      8365
      8366      8367      8366      8368      8366      8416      8416      8417
      8416      8418      8416      8419      8419      8420      8419      8421
      8419      8422      8422      8423      8422      8424      8422      8425
      8425      8426      8425      8427      8425      8428      8428      8429
      8428      8430      8428      8431      8431      8432      8431      8433
      8431      8434      8434      8435      8434      8436      8434      8437
      8437      8438      8437      8439      8437      8440      8440      8441
      8440      8442      8440      8443      8443      8444      8443      8445
      8443      8446      8446      8447      8446      8448      8446      8449
      8449      8450      8449      8451      8449      8452      8452      8453
      8452      8454      8452      8455      8455      8456      8455      8457
      8455      8458      8459      8463      8459      8467      8459      8471
      8463      8464      8463      8465      8463      8466      8467      8468
      8467      8469      8467      8470      8471      8472      8471      8473
      8471      8474      8459      8460      8460      8461      8460      8462
      8460      8475      8475      8476      8475      8477      8475      8481
      8482      8483      8481      8478      8478      8482      8478      8479
      8478      8480      8483      8484      8483      8485      8483      8486
      8486      8487      8486      8494      8486      8488      8494      8495
      8494      8496      8494      8497      8488      8489      8489      8491
      8489      8490      8491      8492      8491      8493      8491      8503
      8503      8504      8503      8505      8503      8506      8506      8507
      8506      8508      8506      8509      8509      8510      8509      8511
      8509      8512      8512      8513      8512      8514      8512      8515
      8515      8516      8515      8517      8515      8518      8518      8519
      8518      8520      8518      8521      8521      8522      8521      8523
      8523      8524      8523      8525      8525      8526      8525      8527
      8525      8528      8528      8529      8528      8530      8528      8531
      8531      8532      8531      8533      8531      8534      8534      8535
      8534      8536      8534      8537      8537      8538      8537      8539
      8537      8540      8540      8541      8540      8542      8540      8543
      8543      8544      8543      8545      8543      8546      8546      8547
      8546      8548      8546      8549      8497      8498      8498      8500
      8498      8499      8500      8501      8500      8502      8500      8550
      8550      8551      8550      8552      8550      8553      8553      8554
      8553      8555      8553      8556      8556      8557      8556      8558
      8556      8559      8559      8560      8559      8561      8559      8562
      8562      8563      8562      8564      8562      8565      8565      8566
      8565      8567      8565      8568      8568      8569      8568      8570
      8568      8571      8571      8572      8571      8573      8571      8574
      8574      8575      8574      8576      8574      8577      8577      8578
      8577      8579      8577      8580      8580      8581      8580      8582
      8580      8583      8583      8584      8583      8585      8583      8586
      8586      8587      8586      8588      8586      8589      8589      8590
      8589      8591      8589      8592      8593      8597      8593      8601
      8593      8605      8597      8598      8597      8599      8597      8600
      8601      8602      8601      8603      8601      8604      8605      8606
      8605      8607      8605      8608      8593      8594      8594      8595
      8594      8596      8594      8609      8609      8610      8609      8611
      8609      8615      8616      8617      8615      8612      8612      8616
      8612      8613      8612      8614      8617      8618      8617      8619
      8617      8620      8620      8621      8620      8628      8620      8622
      8628      8629      8628      8630      8628      8631      8622      8623
      8623      8625      8623      8624      8625      8626      8625      8627
      8625      8637      8637      8638      8637      8639      8637      8640
      8640      8641      8640      8642      8640      8643      8643      8644
      8643      8645      8643      8646      8646      8647      8646      8648
      8646      8649      8649      8650      8649      8651      8649      8652
      8652      8653      8652      8654      8652      8655      8655      8656
      8655      8657      8657      8658      8657      8659      8659      8660
      8659      8661      8659      8662      8662      8663      8662      8664
      8662      8665      8665      8666      8665      8667      8665      8668
      8668      8669      8668      8670      8668      8671      8671      8672
      8671      8673      8671      8674      8674      8675      8674      8676
      8674      8677      8677      8678      8677      8679      8677      8680
      8680      8681      8680      8682      8680      8683      8631      8632
      8632      8634      8632      8633      8634      8635      8634      8636
      8634      8684      8684      8685      8684      8686      8684      8687
      8687      8688      8687      8689      8687      8690      8690      8691
      8690      8692      8690      8693      8693      8694      8693      8695
      8693      8696      8696      8697      8696      8698      8696      8699
      8699      8700      8699      8701      8699      8702      8702      8703
      8702      8704      8702      8705      8705      8706      8705      8707
      8705      8708      8708      8709      8708      8710      8708      8711
      8711      8712      8711      8713      8711      8714      8714      8715
      8714      8716      8714      8717      8717      8718      8717      8719
      8717      8720      8720      8721      8720      8722      8720      8723
      8723      8724      8723      8725      8723      8726      8727      8731
      8727      8735      8727      8739      8731      8732      8731      8733
      8731      8734      8735      8736      8735      8737      8735      8738
      8739      8740      8739      8741      8739      8742      8727      8728
      8728      8729      8728      8730      8728      8743      8743      8744
      8743      8745      8743      8749      8750      8751      8749      8746
      8746      8750      8746      8747      8746      8748      8751      8752
      8751      8753      8751      8754      8754      8755      8754      8762
      8754      8756      8762      8763      8762      8764      8762      8765
      8756      8757      8757      8759      8757      8758      8759      8760
      8759      8761      8759      8771      8771      8772      8771      8773
      8771      8774      8774      8775      8774      8776      8774      8777
      8777      8778      8777      8779      8777      8780      8780      8781
      8780      8782      8780      8783      8783      8784      8783      8785
      8783      8786      8786      8787      8786      8788      8786      8789
      8789      8790      8789      8791      8791      8792      8791      8793
      8793      8794      8793      8795      8793      8796      8796      8797
      8796      8798      8796      8799      8799      8800      8799      8801
      8799      8802      8802      8803      8802      8804      8802      8805
      8805      8806      8805      8807      8805      8808      8808      8809
      8808      8810      8808      8811      8811      8812      8811      8813
      8811      8814      8814      8815      8814      8816      8814      8817
      8765      8766      8766      8768      8766      8767      8768      8769
      8768      8770      8768      8818      8818      8819      8818      8820
      8818      8821      8821      8822      8821      8823      8821      8824
      8824      8825      8824      8826      8824      8827      8827      8828
      8827      8829      8827      8830      8830      8831      8830      8832
      8830      8833      8833      8834      8833      8835      8833      8836
      8836      8837      8836      8838      8836      8839      8839      8840
      8839      8841      8839      8842      8842      8843      8842      8844
      8842      8845      8845      8846      8845      8847      8845      8848
      8848      8849      8848      8850      8848      8851      8851      8852
      8851      8853      8851      8854      8854      8855      8854      8856
      8854      8857      8857      8858      8857      8859      8857      8860
      8861      8865      8861      8869      8861      8873      8865      8866
      8865      8867      8865      8868      8869      8870      8869      8871
      8869      8872      8873      8874      8873      8875      8873      8876
      8861      8862      8862      8863      8862      8864      8862      8877
      8877      8878      8877      8879      8877      8883      8884      8885
      8883      8880      8880      8884      8880      8881      8880      8882
      8885      8886      8885      8887      8885      8888      8888      8889
      8888      8896      8888      8890      8896      8897      8896      8898
      8896      8899      8890      8891      8891      8893      8891      8892
      8893      8894      8893      8895      8893      8905      8905      8906
      8905      8907      8905      8908      8908      8909      8908      8910
      8908      8911      8911      8912      8911      8913      8911      8914
      8914      8915      8914      8916      8914      8917      8917      8918
      8917      8919      8917      8920      8920      8921      8920      8922
      8920      8923      8923      8924      8923      8925      8925      8926
      8925      8927      8927      8928      8927      8929      8927      8930
      8930      8931      8930      8932      8930      8933      8933      8934
      8933      8935      8933      8936      8936      8937      8936      8938
      8936      8939      8939      8940      8939      8941      8939      8942
      8942      8943      8942      8944      8942      8945      8945      8946
      8945      8947      8945      8948      8948      8949      8948      8950
      8948      8951      8899      8900      8900      8902      8900      8901
      8902      8903      8902      8904      8902      8952      8952      8953
      8952      8954      8952      8955      8955      8956      8955      8957
      8955      8958      8958      8959      8958      8960      8958      8961
      8961      8962      8961      8963      8961      8964      8964      8965
      8964      8966      8964      8967      8967      8968      8967      8969
      8967      8970      8970      8971      8970      8972      8970      8973
      8973      8974      8973      8975      8973      8976      8976      8977
      8976      8978      8976      8979      8979      8980      8979      8981
      8979      8982      8982      8983      8982      8984      8982      8985
      8985      8986      8985      8987      8985      8988      8988      8989
      8988      8990      8988      8991      8991      8992      8991      8993
      8991      8994      8995      8999      8995      9003      8995      9007
      8999      9000      8999      9001      8999      9002      9003      9004
      9003      9005      9003      9006      9007      9008      9007      9009
      9007      9010      8995      8996      8996      8997      8996      8998
      8996      9011      9011      9012      9011      9013      9011      9017
      9018      9019      9017      9014      9014      9018      9014      9015
      9014      9016      9019      9020      9019      9021      9019      9022
      9022      9023      9022      9030      9022      9024      9030      9031
      9030      9032      9030      9033      9024      9025      9025      9027
      9025      9026      9027      9028      9027      9029      9027      9039
      9039      9040      9039      9041      9039      9042      9042      9043
      9042      9044      9042      9045      9045      9046      9045      9047
      9045      9048      9048      9049      9048      9050      9048      9051
      9051      9052      9051      9053      9051      9054      9054      9055
      9054      9056      9054      9057      9057      9058      9057      9059
      9059      9060      9059      9061      9061      9062      9061      9063
      9061      9064      9064      9065      9064      9066      9064      9067
      9067      9068      9067      9069      9067      9070      9070      9071
      9070      9072      9070      9073      9073      9074      9073      9075
      9073      9076      9076      9077      9076      9078      9076      9079
      9079      9080      9079      9081      9079      9082      9082      9083
      9082      9084      9082      9085      9033      9034      9034      9036
      9034      9035      9036      9037      9036      9038      9036      9086
      9086      9087      9086      9088      9086      9089      9089      9090
      9089      9091      9089      9092      9092      9093      9092      9094
      9092      9095      9095      9096      9095      9097      9095      9098
      9098      9099      9098      9100      9098      9101      9101      9102
      9101      9103      9101      9104      9104      9105      9104      9106
      9104      9107      9107      9108      9107      9109      9107      9110
      9110      9111      9110      9112      9110      9113      9113      9114
      9113      9115      9113      9116      9116      9117      9116      9118
      9116      9119      9119      9120      9119      9121      9119      9122
      9122      9123      9122      9124      9122      9125      9125      9126
      9125      9127      9125      9128      9129      9133      9129      9137
      9129      9141      9133      9134      9133      9135      9133      9136
      9137      9138      9137      9139      9137      9140      9141      9142
      9141      9143      9141      9144      9129      9130      9130      9131
      9130      9132      9130      9145      9145      9146      9145      9147
      9145      9151      9152      9153      9151      9148      9148      9152
      9148      9149      9148      9150      9153      9154      9153      9155
      9153      9156      9156      9157      9156      9164      9156      9158
      9164      9165      9164      9166      9164      9167      9158      9159
      9159      9161      9159      9160      9161      9162      9161      9163
      9161      9173      9173      9174      9173      9175      9173      9176
      9176      9177      9176      9178      9176      9179      9179      9180
      9179      9181      9179      9182      9182      9183      9182      9184
      9182      9185      9185      9186      9185      9187      9185      9188
      9188      9189      9188      9190      9188      9191      9191      9192
      9191      9193      9193      9194      9193      9195      9195      9196
      9195      9197      9195      9198      9198      9199      9198      9200
      9198      9201      9201      9202      9201      9203      9201      9204
      9204      9205      9204      9206      9204      9207      9207      9208
      9207      9209      9207      9210      9210      9211      9210      9212
      9210      9213      9213      9214      9213      9215      9213      9216
      9216      9217      9216      9218      9216      9219      9167      9168
      9168      9170      9168      9169      9170      9171      9170      9172
      9170      9220      9220      9221      9220      9222      9220      9223
      9223      9224      9223      9225      9223      9226      9226      9227
      9226      9228      9226      9229      9229      9230      9229      9231
      9229      9232      9232      9233      9232      9234      9232      9235
      9235      9236      9235      9237      9235      9238      9238      9239
      9238      9240      9238      9241      9241      9242      9241      9243
      9241      9244      9244      9245      9244      9246      9244      9247
      9247      9248      9247      9249      9247      9250      9250      9251
      9250      9252      9250      9253      9253      9254      9253      9255
      9253      9256      9256      9257      9256      9258      9256      9259
      9259      9260      9259      9261      9259      9262      9263      9267
      9263      9271      9263      9275      9267      9268      9267      9269
      9267      9270      9271      9272      9271      9273      9271      9274
      9275      9276      9275      9277      9275      9278      9263      9264
      9264      9265      9264      9266      9264      9279      9279      9280
      9279      9281      9279      9285      9286      9287      9285      9282
      9282      9286      9282      9283      9282      9284      9287      9288
      9287      9289      9287      9290      9290      9291      9290      9298
      9290      9292      9298      9299      9298      9300      9298      9301
      9292      9293      9293      9295      9293      9294      9295      9296
      9295      9297      9295      9307      9307      9308      9307      9309
      9307      9310      9310      9311      9310      9312      9310      9313
      9313      9314      9313      9315      9313      9316      9316      9317
      9316      9318      9316      9319      9319      9320      9319      9321
      9319      9322      9322      9323      9322      9324      9322      9325
      9325      9326      9325      9327      9327      9328      9327      9329
      9329      9330      9329      9331      9329      9332      9332      9333
      9332      9334      9332      9335      9335      9336      9335      9337
      9335      9338      9338      9339      9338      9340      9338      9341
      9341      9342      9341      9343      9341      9344      9344      9345
      9344      9346      9344      9347      9347      9348      9347      9349
      9347      9350      9350      9351      9350      9352      9350      9353
      9301      9302      9302      9304      9302      9303      9304      9305
      9304      9306      9304      9354      9354      9355      9354      9356
      9354      9357      9357      9358      9357      9359      9357      9360
      9360      9361      9360      9362      9360      9363      9363      9364
      9363      9365      9363      9366      9366      9367      9366      9368
      9366      9369      9369      9370      9369      9371      9369      9372
      9372      9373      9372      9374      9372      9375      9375      9376
      9375      9377      9375      9378      9378      9379      9378      9380
      9378      9381      9381      9382      9381      9383      9381      9384
      9384      9385      9384      9386      9384      9387      9387      9388
      9387      9389      9387      9390      9390      9391      9390      9392
      9390      9393      9393      9394      9393      9395      9393      9396
      9397      9401      9397      9405      9397      9409      9401      9402
      9401      9403      9401      9404      9405      9406      9405      9407
      9405      9408      9409      9410      9409      9411      9409      9412
      9397      9398      9398      9399      9398      9400      9398      9413
      9413      9414      9413      9415      9413      9419      9420      9421
      9419      9416      9416      9420      9416      9417      9416      9418
      9421      9422      9421      9423      9421      9424      9424      9425
      9424      9432      9424      9426      9432      9433      9432      9434
      9432      9435      9426      9427      9427      9429      9427      9428
      9429      9430      9429      9431      9429      9441      9441      9442
      9441      9443      9441      9444      9444      9445      9444      9446
      9444      9447      9447      9448      9447      9449      9447      9450
      9450      9451      9450      9452      9450      9453      9453      9454
      9453      9455      9453      9456      9456      9457      9456      9458
      9456      9459      9459      9460      9459      9461      9461      9462
      9461      9463      9463      9464      9463      9465      9463      9466
      9466      9467      9466      9468      9466      9469      9469      9470
      9469      9471      9469      9472      9472      9473      9472      9474
      9472      9475      9475      9476      9475      9477      9475      9478
      9478      9479      9478      9480      9478      9481      9481      9482
      9481      9483      9481      9484      9484      9485      9484      9486
      9484      9487      9435      9436      9436      9438      9436      9437
      9438      9439      9438      9440      9438      9488      9488      9489
      9488      9490      9488      9491      9491      9492      9491      9493
      9491      9494      9494      9495      9494      9496      9494      9497
      9497      9498      9497      9499      9497      9500      9500      9501
      9500      9502      9500      9503      9503      9504      9503      9505
      9503      9506      9506      9507      9506      9508      9506      9509
      9509      9510      9509      9511      9509      9512      9512      9513
      9512      9514      9512      9515      9515      9516      9515      9517
      9515      9518      9518      9519      9518      9520      9518      9521
      9521      9522      9521      9523      9521      9524      9524      9525
      9524      9526      9524      9527      9527      9528      9527      9529
      9527      9530      9531      9535      9531      9539      9531      9543
      9535      9536      9535      9537      9535      9538      9539      9540
      9539      9541      9539      9542      9543      9544      9543      9545
      9543      9546      9531      9532      9532      9533      9532      9534
      9532      9547      9547      9548      9547      9549      9547      9553
      9554      9555      9553      9550      9550      9554      9550      9551
      9550      9552      9555      9556      9555      9557      9555      9558
      9558      9559      9558      9566      9558      9560      9566      9567
      9566      9568      9566      9569      9560      9561      9561      9563
      9561      9562      9563      9564      9563      9565      9563      9575
      9575      9576      9575      9577      9575      9578      9578      9579
      9578      9580      9578      9581      9581      9582      9581      9583
      9581      9584      9584      9585      9584      9586      9584      9587
      9587      9588      9587      9589      9587      9590      9590      9591
      9590      9592      9590      9593      9593      9594      9593      9595
      9595      9596      9595      9597      9597      9598      9597      9599
      9597      9600      9600      9601      9600      9602      9600      9603
      9603      9604      9603      9605      9603      9606      9606      9607
      9606      9608      9606      9609      9609      9610      9609      9611
      9609      9612      9612      9613      9612      9614      9612      9615
      9615      9616      9615      9617      9615      9618      9618      9619
      9618      9620      9618      9621      9569      9570      9570      9572
      9570      9571      9572      9573      9572      9574      9572      9622
      9622      9623      9622      9624      9622      9625      9625      9626
      9625      9627      9625      9628      9628      9629      9628      9630
      9628      9631      9631      9632      9631      9633      9631      9634
      9634      9635      9634      9636      9634      9637      9637      9638
      9637      9639      9637      9640      9640      9641      9640      9642
      9640      9643      9643      9644      9643      9645      9643      9646
      9646      9647      9646      9648      9646      9649      9649      9650
      9649      9651      9649      9652      9652      9653      9652      9654
      9652      9655      9655      9656      9655      9657      9655      9658
      9658      9659      9658      9660      9658      9661      9661      9662
      9661      9663      9661      9664      9665      9669      9665      9673
      9665      9677      9669      9670      9669      9671      9669      9672
      9673      9674      9673      9675      9673      9676      9677      9678
      9677      9679      9677      9680      9665      9666      9666      9667
      9666      9668      9666      9681      9681      9682      9681      9683
      9681      9687      9688      9689      9687      9684      9684      9688
      9684      9685      9684      9686      9689      9690      9689      9691
      9689      9692      9692      9693      9692      9700      9692      9694
      9700      9701      9700      9702      9700      9703      9694      9695
      9695      9697      9695      9696      9697      9698      9697      9699
      9697      9709      9709      9710      9709      9711      9709      9712
      9712      9713      9712      9714      9712      9715      9715      9716
      9715      9717      9715      9718      9718      9719      9718      9720
      9718      9721      9721      9722      9721      9723      9721      9724
      9724      9725      9724      9726      9724      9727      9727      9728
      9727      9729      9729      9730      9729      9731      9731      9732
      9731      9733      9731      9734      9734      9735      9734      9736
      9734      9737      9737      9738      9737      9739      9737      9740
      9740      9741      9740      9742      9740      9743      9743      9744
      9743      9745      9743      9746      9746      9747      9746      9748
      9746      9749      9749      9750      9749      9751      9749      9752
      9752      9753      9752      9754      9752      9755      9703      9704
      9704      9706      9704      9705      9706      9707      9706      9708
      9706      9756      9756      9757      9756      9758      9756      9759
      9759      9760      9759      9761      9759      9762      9762      9763
      9762      9764      9762      9765      9765      9766      9765      9767
      9765      9768      9768      9769      9768      9770      9768      9771
      9771      9772      9771      9773      9771      9774      9774      9775
      9774      9776      9774      9777      9777      9778      9777      9779
      9777      9780      9780      9781      9780      9782      9780      9783
      9783      9784      9783      9785      9783      9786      9786      9787
      9786      9788      9786      9789      9789      9790      9789      9791
      9789      9792      9792      9793      9792      9794      9792      9795
      9795      9796      9795      9797      9795      9798      9799      9803
      9799      9807      9799      9811      9803      9804      9803      9805
      9803      9806      9807      9808      9807      9809      9807      9810
      9811      9812      9811      9813      9811      9814      9799      9800
      9800      9801      9800      9802      9800      9815      9815      9816
      9815      9817      9815      9821      9822      9823      9821      9818
      9818      9822      9818      9819      9818      9820      9823      9824
      9823      9825      9823      9826      9826      9827      9826      9834
      9826      9828      9834      9835      9834      9836      9834      9837
      9828      9829      9829      9831      9829      9830      9831      9832
      9831      9833      9831      9843      9843      9844      9843      9845
      9843      9846      9846      9847      9846      9848      9846      9849
      9849      9850      9849      9851      9849      9852      9852      9853
      9852      9854      9852      9855      9855      9856      9855      9857
      9855      9858      9858      9859      9858      9860      9858      9861
      9861      9862      9861      9863      9863      9864      9863      9865
      9865      9866      9865      9867      9865      9868      9868      9869
      9868      9870      9868      9871      9871      9872      9871      9873
      9871      9874      9874      9875      9874      9876      9874      9877
      9877      9878      9877      9879      9877      9880      9880      9881
      9880      9882      9880      9883      9883      9884      9883      9885
      9883      9886      9886      9887      9886      9888      9886      9889
      9837      9838      9838      9840      9838      9839      9840      9841
      9840      9842      9840      9890      9890      9891      9890      9892
      9890      9893      9893      9894      9893      9895      9893      9896
      9896      9897      9896      9898      9896      9899      9899      9900
      9899      9901      9899      9902      9902      9903      9902      9904
      9902      9905      9905      9906      9905      9907      9905      9908
      9908      9909      9908      9910      9908      9911      9911      9912
      9911      9913      9911      9914      9914      9915      9914      9916
      9914      9917      9917      9918      9917      9919      9917      9920
      9920      9921      9920      9922      9920      9923      9923      9924
      9923      9925      9923      9926      9926      9927      9926      9928
      9926      9929      9929      9930      9929      9931      9929      9932
      9933      9937      9933      9941      9933      9945      9937      9938
      9937      9939      9937      9940      9941      9942      9941      9943
      9941      9944      9945      9946      9945      9947      9945      9948
      9933      9934      9934      9935      9934      9936      9934      9949
      9949      9950      9949      9951      9949      9955      9956      9957
      9955      9952      9952      9956      9952      9953      9952      9954
      9957      9958      9957      9959      9957      9960      9960      9961
      9960      9968      9960      9962      9968      9969      9968      9970
      9968      9971      9962      9963      9963      9965      9963      9964
      9965      9966      9965      9967      9965      9977      9977      9978
      9977      9979      9977      9980      9980      9981      9980      9982
      9980      9983      9983      9984      9983      9985      9983      9986
      9986      9987      9986      9988      9986      9989      9989      9990
      9989      9991      9989      9992      9992      9993      9992      9994
      9992      9995      9995      9996      9995      9997      9997      9998
      9997      9999      9999     10000      9999     10001      9999     10002
     10002     10003     10002     10004     10002     10005     10005     10006
     10005     10007     10005     10008     10008     10009     10008     10010
     10008     10011     10011     10012     10011     10013     10011     10014
     10014     10015     10014     10016     10014     10017     10017     10018
     10017     10019     10017     10020     10020     10021     10020     10022
     10020     10023      9971      9972      9972      9974      9972      9973
      9974      9975      9974      9976      9974     10024     10024     10025
     10024     10026     10024     10027     10027     10028     10027     10029
     10027     10030     10030     10031     10030     10032     10030     10033
     10033     10034     10033     10035     10033     10036     10036     10037
     10036     10038     10036     10039     10039     10040     10039     10041
     10039     10042     10042     10043     10042     10044     10042     10045
     10045     10046     10045     10047     10045     10048     10048     10049
     10048     10050     10048     10051     10051     10052     10051     10053
     10051     10054     10054     10055     10054     10056     10054     10057
     10057     10058     10057     10059     10057     10060     10060     10061
     10060     10062     10060     10063     10063     10064     10063     10065
     10063     10066     10067     10071     10067     10075     10067     10079
     10071     10072     10071     10073     10071     10074     10075     10076
     10075     10077     10075     10078     10079     10080     10079     10081
     10079     10082     10067     10068     10068     10069     10068     10070
     10068     10083     10083     10084     10083     10085     10083     10089
     10090     10091     10089     10086     10086     10090     10086     10087
     10086     10088     10091     10092     10091     10093     10091     10094
     10094     10095     10094     10102     10094     10096     10102     10103
     10102     10104     10102     10105     10096     10097     10097     10099
     10097     10098     10099     10100     10099     10101     10099     10111
     10111     10112     10111     10113     10111     10114     10114     10115
     10114     10116     10114     10117     10117     10118     10117     10119
     10117     10120     10120     10121     10120     10122     10120     10123
     10123     10124     10123     10125     10123     10126     10126     10127
     10126     10128     10126     10129     10129     10130     10129     10131
     10131     10132     10131     10133     10133     10134     10133     10135
     10133     10136     10136     10137     10136     10138     10136     10139
     10139     10140     10139     10141     10139     10142     10142     10143
     10142     10144     10142     10145     10145     10146     10145     10147
     10145     10148     10148     10149     10148     10150     10148     10151
     10151     10152     10151     10153     10151     10154     10154     10155
     10154     10156     10154     10157     10105     10106     10106     10108
     10106     10107     10108     10109     10108     10110     10108     10158
     10158     10159     10158     10160     10158     10161     10161     10162
     10161     10163     10161     10164     10164     10165     10164     10166
     10164     10167     10167     10168     10167     10169     10167     10170
     10170     10171     10170     10172     10170     10173     10173     10174
     10173     10175     10173     10176     10176     10177     10176     10178
     10176     10179     10179     10180     10179     10181     10179     10182
     10182     10183     10182     10184     10182     10185     10185     10186
     10185     10187     10185     10188     10188     10189     10188     10190
     10188     10191     10191     10192     10191     10193     10191     10194
     10194     10195     10194     10196     10194     10197     10197     10198
     10197     10199     10197     10200     10201     10205     10201     10209
     10201     10213     10205     10206     10205     10207     10205     10208
     10209     10210     10209     10211     10209     10212     10213     10214
     10213     10215     10213     10216     10201     10202     10202     10203
     10202     10204     10202     10217     10217     10218     10217     10219
     10217     10223     10224     10225     10223     10220     10220     10224
     10220     10221     10220     10222     10225     10226     10225     10227
     10225     10228     10228     10229     10228     10236     10228     10230
     10236     10237     10236     10238     10236     10239     10230     10231
     10231     10233     10231     10232     10233     10234     10233     10235
     10233     10245     10245     10246     10245     10247     10245     10248
     10248     10249     10248     10250     10248     10251     10251     10252
     10251     10253     10251     10254     10254     10255     10254     10256
     10254     10257     10257     10258     10257     10259     10257     10260
     10260     10261     10260     10262     10260     10263     10263     10264
     10263     10265     10265     10266     10265     10267     10267     10268
     10267     10269     10267     10270     10270     10271     10270     10272
     10270     10273     10273     10274     10273     10275     10273     10276
     10276     10277     10276     10278     10276     10279     10279     10280
     10279     10281     10279     10282     10282     10283     10282     10284
     10282     10285     10285     10286     10285     10287     10285     10288
     10288     10289     10288     10290     10288     10291     10239     10240
     10240     10242     10240     10241     10242     10243     10242     10244
     10242     10292     10292     10293     10292     10294     10292     10295
     10295     10296     10295     10297     10295     10298     10298     10299
     10298     10300     10298     10301     10301     10302     10301     10303
     10301     10304     10304     10305     10304     10306     10304     10307
     10307     10308     10307     10309     10307     10310     10310     10311
     10310     10312     10310     10313     10313     10314     10313     10315
     10313     10316     10316     10317     10316     10318     10316     10319
     10319     10320     10319     10321     10319     10322     10322     10323
     10322     10324     10322     10325     10325     10326     10325     10327
     10325     10328     10328     10329     10328     10330     10328     10331
     10331     10332     10331     10333     10331     10334     10335     10339
     10335     10343     10335     10347     10339     10340     10339     10341
     10339     10342     10343     10344     10343     10345     10343     10346
     10347     10348     10347     10349     10347     10350     10335     10336
     10336     10337     10336     10338     10336     10351     10351     10352
     10351     10353     10351     10357     10358     10359     10357     10354
     10354     10358     10354     10355     10354     10356     10359     10360
     10359     10361     10359     10362     10362     10363     10362     10370
     10362     10364     10370     10371     10370     10372     10370     10373
     10364     10365     10365     10367     10365     10366     10367     10368
     10367     10369     10367     10379     10379     10380     10379     10381
     10379     10382     10382     10383     10382     10384     10382     10385
     10385     10386     10385     10387     10385     10388     10388     10389
     10388     10390     10388     10391     10391     10392     10391     10393
     10391     10394     10394     10395     10394     10396     10394     10397
     10397     10398     10397     10399     10399     10400     10399     10401
     10401     10402     10401     10403     10401     10404     10404     10405
     10404     10406     10404     10407     10407     10408     10407     10409
     10407     10410     10410     10411     10410     10412     10410     10413
     10413     10414     10413     10415     10413     10416     10416     10417
     10416     10418     10416     10419     10419     10420     10419     10421
     10419     10422     10422     10423     10422     10424     10422     10425
     10373     10374     10374     10376     10374     10375     10376     10377
     10376     10378     10376     10426     10426     10427     10426     10428
     10426     10429     10429     10430     10429     10431     10429     10432
     10432     10433     10432     10434     10432     10435     10435     10436
     10435     10437     10435     10438     10438     10439     10438     10440
     10438     10441     10441     10442     10441     10443     10441     10444
     10444     10445     10444     10446     10444     10447     10447     10448
     10447     10449     10447     10450     10450     10451     10450     10452
     10450     10453     10453     10454     10453     10455     10453     10456
     10456     10457     10456     10458     10456     10459     10459     10460
     10459     10461     10459     10462     10462     10463     10462     10464
     10462     10465     10465     10466     10465     10467     10465     10468
     10469     10473     10469     10477     10469     10481     10473     10474
     10473     10475     10473     10476     10477     10478     10477     10479
     10477     10480     10481     10482     10481     10483     10481     10484
     10469     10470     10470     10471     10470     10472     10470     10485
     10485     10486     10485     10487     10485     10491     10492     10493
     10491     10488     10488     10492     10488     10489     10488     10490
     10493     10494     10493     10495     10493     10496     10496     10497
     10496     10504     10496     10498     10504     10505     10504     10506
     10504     10507     10498     10499     10499     10501     10499     10500
     10501     10502     10501     10503     10501     10513     10513     10514
     10513     10515     10513     10516     10516     10517     10516     10518
     10516     10519     10519     10520     10519     10521     10519     10522
     10522     10523     10522     10524     10522     10525     10525     10526
     10525     10527     10525     10528     10528     10529     10528     10530
     10528     10531     10531     10532     10531     10533     10533     10534
     10533     10535     10535     10536     10535     10537     10535     10538
     10538     10539     10538     10540     10538     10541     10541     10542
     10541     10543     10541     10544     10544     10545     10544     10546
     10544     10547     10547     10548     10547     10549     10547     10550
     10550     10551     10550     10552     10550     10553     10553     10554
     10553     10555     10553     10556     10556     10557     10556     10558
     10556     10559     10507     10508     10508     10510     10508     10509
     10510     10511     10510     10512     10510     10560     10560     10561
     10560     10562     10560     10563     10563     10564     10563     10565
     10563     10566     10566     10567     10566     10568     10566     10569
     10569     10570     10569     10571     10569     10572     10572     10573
     10572     10574     10572     10575     10575     10576     10575     10577
     10575     10578     10578     10579     10578     10580     10578     10581
     10581     10582     10581     10583     10581     10584     10584     10585
     10584     10586     10584     10587     10587     10588     10587     10589
     10587     10590     10590     10591     10590     10592     10590     10593
     10593     10594     10593     10595     10593     10596     10596     10597
     10596     10598     10596     10599     10599     10600     10599     10601
     10599     10602     10603     10607     10603     10611     10603     10615
     10607     10608     10607     10609     10607     10610     10611     10612
     10611     10613     10611     10614     10615     10616     10615     10617
     10615     10618     10603     10604     10604     10605     10604     10606
     10604     10619     10619     10620     10619     10621     10619     10625
     10626     10627     10625     10622     10622     10626     10622     10623
     10622     10624     10627     10628     10627     10629     10627     10630
     10630     10631     10630     10638     10630     10632     10638     10639
     10638     10640     10638     10641     10632     10633     10633     10635
     10633     10634     10635     10636     10635     10637     10635     10647
     10647     10648     10647     10649     10647     10650     10650     10651
     10650     10652     10650     10653     10653     10654     10653     10655
     10653     10656     10656     10657     10656     10658     10656     10659
     10659     10660     10659     10661     10659     10662     10662     10663
     10662     10664     10662     10665     10665     10666     10665     10667
     10667     10668     10667     10669     10669     10670     10669     10671
     10669     10672     10672     10673     10672     10674     10672     10675
     10675     10676     10675     10677     10675     10678     10678     10679
     10678     10680     10678     10681     10681     10682     10681     10683
     10681     10684     10684     10685     10684     10686     10684     10687
     10687     10688     10687     10689     10687     10690     10690     10691
     10690     10692     10690     10693     10641     10642     10642     10644
     10642     10643     10644     10645     10644     10646     10644     10694
     10694     10695     10694     10696     10694     10697     10697     10698
     10697     10699     10697     10700     10700     10701     10700     10702
     10700     10703     10703     10704     10703     10705     10703     10706
     10706     10707     10706     10708     10706     10709     10709     10710
     10709     10711     10709     10712     10712     10713     10712     10714
     10712     10715     10715     10716     10715     10717     10715     10718
     10718     10719     10718     10720     10718     10721     10721     10722
     10721     10723     10721     10724     10724     10725     10724     10726
     10724     10727     10727     10728     10727     10729     10727     10730
     10730     10731     10730     10732     10730     10733     10733     10734
     10733     10735     10733     10736     10737     10741     10737     10745
     10737     10749     10741     10742     10741     10743     10741     10744
     10745     10746     10745     10747     10745     10748     10749     10750
     10749     10751     10749     10752     10737     10738     10738     10739
     10738     10740     10738     10753     10753     10754     10753     10755
     10753     10759     10760     10761     10759     10756     10756     10760
     10756     10757     10756     10758     10761     10762     10761     10763
     10761     10764     10764     10765     10764     10772     10764     10766
     10772     10773     10772     10774     10772     10775     10766     10767
     10767     10769     10767     10768     10769     10770     10769     10771
     10769     10781     10781     10782     10781     10783     10781     10784
     10784     10785     10784     10786     10784     10787     10787     10788
     10787     10789     10787     10790     10790     10791     10790     10792
     10790     10793     10793     10794     10793     10795     10793     10796
     10796     10797     10796     10798     10796     10799     10799     10800
     10799     10801     10801     10802     10801     10803     10803     10804
     10803     10805     10803     10806     10806     10807     10806     10808
     10806     10809     10809     10810     10809     10811     10809     10812
     10812     10813     10812     10814     10812     10815     10815     10816
     10815     10817     10815     10818     10818     10819     10818     10820
     10818     10821     10821     10822     10821     10823     10821     10824
     10824     10825     10824     10826     10824     10827     10775     10776
     10776     10778     10776     10777     10778     10779     10778     10780
     10778     10828     10828     10829     10828     10830     10828     10831
     10831     10832     10831     10833     10831     10834     10834     10835
     10834     10836     10834     10837     10837     10838     10837     10839
     10837     10840     10840     10841     10840     10842     10840     10843
     10843     10844     10843     10845     10843     10846     10846     10847
     10846     10848     10846     10849     10849     10850     10849     10851
     10849     10852     10852     10853     10852     10854     10852     10855
     10855     10856     10855     10857     10855     10858     10858     10859
     10858     10860     10858     10861     10861     10862     10861     10863
     10861     10864     10864     10865     10864     10866     10864     10867
     10867     10868     10867     10869     10867     10870     10871     10875
     10871     10879     10871     10883     10875     10876     10875     10877
     10875     10878     10879     10880     10879     10881     10879     10882
     10883     10884     10883     10885     10883     10886     10871     10872
     10872     10873     10872     10874     10872     10887     10887     10888
     10887     10889     10887     10893     10894     10895     10893     10890
     10890     10894     10890     10891     10890     10892     10895     10896
     10895     10897     10895     10898     10898     10899     10898     10906
     10898     10900     10906     10907     10906     10908     10906     10909
     10900     10901     10901     10903     10901     10902     10903     10904
     10903     10905     10903     10915     10915     10916     10915     10917
     10915     10918     10918     10919     10918     10920     10918     10921
     10921     10922     10921     10923     10921     10924     10924     10925
     10924     10926     10924     10927     10927     10928     10927     10929
     10927     10930     10930     10931     10930     10932     10930     10933
     10933     10934     10933     10935     10935     10936     10935     10937
     10937     10938     10937     10939     10937     10940     10940     10941
     10940     10942     10940     10943     10943     10944     10943     10945
     10943     10946     10946     10947     10946     10948     10946     10949
     10949     10950     10949     10951     10949     10952     10952     10953
     10952     10954     10952     10955     10955     10956     10955     10957
     10955     10958     10958     10959     10958     10960     10958     10961
     10909     10910     10910     10912     10910     10911     10912     10913
     10912     10914     10912     10962     10962     10963     10962     10964
     10962     10965     10965     10966     10965     10967     10965     10968
     10968     10969     10968     10970     10968     10971     10971     10972
     10971     10973     10971     10974     10974     10975     10974     10976
     10974     10977     10977     10978     10977     10979     10977     10980
     10980     10981     10980     10982     10980     10983     10983     10984
     10983     10985     10983     10986     10986     10987     10986     10988
     10986     10989     10989     10990     10989     10991     10989     10992
     10992     10993     10992     10994     10992     10995     10995     10996
     10995     10997     10995     10998     10998     10999     10998     11000
     10998     11001     11001     11002     11001     11003     11001     11004
     11005     11009     11005     11013     11005     11017     11009     11010
     11009     11011     11009     11012     11013     11014     11013     11015
     11013     11016     11017     11018     11017     11019     11017     11020
     11005     11006     11006     11007     11006     11008     11006     11021
     11021     11022     11021     11023     11021     11027     11028     11029
     11027     11024     11024     11028     11024     11025     11024     11026
     11029     11030     11029     11031     11029     11032     11032     11033
     11032     11040     11032     11034     11040     11041     11040     11042
     11040     11043     11034     11035     11035     11037     11035     11036
     11037     11038     11037     11039     11037     11049     11049     11050
     11049     11051     11049     11052     11052     11053     11052     11054
     11052     11055     11055     11056     11055     11057     11055     11058
     11058     11059     11058     11060     11058     11061     11061     11062
     11061     11063     11061     11064     11064     11065     11064     11066
     11064     11067     11067     11068     11067     11069     11069     11070
     11069     11071     11071     11072     11071     11073     11071     11074
     11074     11075     11074     11076     11074     11077     11077     11078
     11077     11079     11077     11080     11080     11081     11080     11082
     11080     11083     11083     11084     11083     11085     11083     11086
     11086     11087     11086     11088     11086     11089     11089     11090
     11089     11091     11089     11092     11092     11093     11092     11094
     11092     11095     11043     11044     11044     11046     11044     11045
     11046     11047     11046     11048     11046     11096     11096     11097
     11096     11098     11096     11099     11099     11100     11099     11101
     11099     11102     11102     11103     11102     11104     11102     11105
     11105     11106     11105     11107     11105     11108     11108     11109
     11108     11110     11108     11111     11111     11112     11111     11113
     11111     11114     11114     11115     11114     11116     11114     11117
     11117     11118     11117     11119     11117     11120     11120     11121
     11120     11122     11120     11123     11123     11124     11123     11125
     11123     11126     11126     11127     11126     11128     11126     11129
     11129     11130     11129     11131     11129     11132     11132     11133
     11132     11134     11132     11135     11135     11136     11135     11137
     11135     11138     11139     11143     11139     11147     11139     11151
     11143     11144     11143     11145     11143     11146     11147     11148
     11147     11149     11147     11150     11151     11152     11151     11153
     11151     11154     11139     11140     11140     11141     11140     11142
     11140     11155     11155     11156     11155     11157     11155     11161
     11162     11163     11161     11158     11158     11162     11158     11159
     11158     11160     11163     11164     11163     11165     11163     11166
     11166     11167     11166     11174     11166     11168     11174     11175
     11174     11176     11174     11177     11168     11169     11169     11171
     11169     11170     11171     11172     11171     11173     11171     11183
     11183     11184     11183     11185     11183     11186     11186     11187
     11186     11188     11186     11189     11189     11190     11189     11191
     11189     11192     11192     11193     11192     11194     11192     11195
     11195     11196     11195     11197     11195     11198     11198     11199
     11198     11200     11198     11201     11201     11202     11201     11203
     11203     11204     11203     11205     11205     11206     11205     11207
     11205     11208     11208     11209     11208     11210     11208     11211
     11211     11212     11211     11213     11211     11214     11214     11215
     11214     11216     11214     11217     11217     11218     11217     11219
     11217     11220     11220     11221     11220     11222     11220     11223
     11223     11224     11223     11225     11223     11226     11226     11227
     11226     11228     11226     11229     11177     11178     11178     11180
     11178     11179     11180     11181     11180     11182     11180     11230
     11230     11231     11230     11232     11230     11233     11233     11234
     11233     11235     11233     11236     11236     11237     11236     11238
     11236     11239     11239     11240     11239     11241     11239     11242
     11242     11243     11242     11244     11242     11245     11245     11246
     11245     11247     11245     11248     11248     11249     11248     11250
     11248     11251     11251     11252     11251     11253     11251     11254
     11254     11255     11254     11256     11254     11257     11257     11258
     11257     11259     11257     11260     11260     11261     11260     11262
     11260     11263     11263     11264     11263     11265     11263     11266
     11266     11267     11266     11268     11266     11269     11269     11270
     11269     11271     11269     11272     11273     11277     11273     11281
     11273     11285     11277     11278     11277     11279     11277     11280
     11281     11282     11281     11283     11281     11284     11285     11286
     11285     11287     11285     11288     11273     11274     11274     11275
     11274     11276     11274     11289     11289     11290     11289     11291
     11289     11295     11296     11297     11295     11292     11292     11296
     11292     11293     11292     11294     11297     11298     11297     11299
     11297     11300     11300     11301     11300     11308     11300     11302
     11308     11309     11308     11310     11308     11311     11302     11303
     11303     11305     11303     11304     11305     11306     11305     11307
     11305     11317     11317     11318     11317     11319     11317     11320
     11320     11321     11320     11322     11320     11323     11323     11324
     11323     11325     11323     11326     11326     11327     11326     11328
     11326     11329     11329     11330     11329     11331     11329     11332
     11332     11333     11332     11334     11332     11335     11335     11336
     11335     11337     11337     11338     11337     11339     11339     11340
     11339     11341     11339     11342     11342     11343     11342     11344
     11342     11345     11345     11346     11345     11347     11345     11348
     11348     11349     11348     11350     11348     11351     11351     11352
     11351     11353     11351     11354     11354     11355     11354     11356
     11354     11357     11357     11358     11357     11359     11357     11360
     11360     11361     11360     11362     11360     11363     11311     11312
     11312     11314     11312     11313     11314     11315     11314     11316
     11314     11364     11364     11365     11364     11366     11364     11367
     11367     11368     11367     11369     11367     11370     11370     11371
     11370     11372     11370     11373     11373     11374     11373     11375
     11373     11376     11376     11377     11376     11378     11376     11379
     11379     11380     11379     11381     11379     11382     11382     11383
     11382     11384     11382     11385     11385     11386     11385     11387
     11385     11388     11388     11389     11388     11390     11388     11391
     11391     11392     11391     11393     11391     11394     11394     11395
     11394     11396     11394     11397     11397     11398     11397     11399
     11397     11400     11400     11401     11400     11402     11400     11403
     11403     11404     11403     11405     11403     11406     11407     11411
     11407     11415     11407     11419     11411     11412     11411     11413
     11411     11414     11415     11416     11415     11417     11415     11418
     11419     11420     11419     11421     11419     11422     11407     11408
     11408     11409     11408     11410     11408     11423     11423     11424
     11423     11425     11423     11429     11430     11431     11429     11426
     11426     11430     11426     11427     11426     11428     11431     11432
     11431     11433     11431     11434     11434     11435     11434     11442
     11434     11436     11442     11443     11442     11444     11442     11445
     11436     11437     11437     11439     11437     11438     11439     11440
     11439     11441     11439     11451     11451     11452     11451     11453
     11451     11454     11454     11455     11454     11456     11454     11457
     11457     11458     11457     11459     11457     11460     11460     11461
     11460     11462     11460     11463     11463     11464     11463     11465
     11463     11466     11466     11467     11466     11468     11466     11469
     11469     11470     11469     11471     11471     11472     11471     11473
     11473     11474     11473     11475     11473     11476     11476     11477
     11476     11478     11476     11479     11479     11480     11479     11481
     11479     11482     11482     11483     11482     11484     11482     11485
     11485     11486     11485     11487     11485     11488     11488     11489
     11488     11490     11488     11491     11491     11492     11491     11493
     11491     11494     11494     11495     11494     11496     11494     11497
     11445     11446     11446     11448     11446     11447     11448     11449
     11448     11450     11448     11498     11498     11499     11498     11500
     11498     11501     11501     11502     11501     11503     11501     11504
     11504     11505     11504     11506     11504     11507     11507     11508
     11507     11509     11507     11510     11510     11511     11510     11512
     11510     11513     11513     11514     11513     11515     11513     11516
     11516     11517     11516     11518     11516     11519     11519     11520
     11519     11521     11519     11522     11522     11523     11522     11524
     11522     11525     11525     11526     11525     11527     11525     11528
     11528     11529     11528     11530     11528     11531     11531     11532
     11531     11533     11531     11534     11534     11535     11534     11536
     11534     11537     11537     11538     11537     11539     11537     11540
     11541     11545     11541     11549     11541     11553     11545     11546
     11545     11547     11545     11548     11549     11550     11549     11551
     11549     11552     11553     11554     11553     11555     11553     11556
     11541     11542     11542     11543     11542     11544     11542     11557
     11557     11558     11557     11559     11557     11563     11564     11565
     11563     11560     11560     11564     11560     11561     11560     11562
     11565     11566     11565     11567     11565     11568     11568     11569
     11568     11576     11568     11570     11576     11577     11576     11578
     11576     11579     11570     11571     11571     11573     11571     11572
     11573     11574     11573     11575     11573     11585     11585     11586
     11585     11587     11585     11588     11588     11589     11588     11590
     11588     11591     11591     11592     11591     11593     11591     11594
     11594     11595     11594     11596     11594     11597     11597     11598
     11597     11599     11597     11600     11600     11601     11600     11602
     11600     11603     11603     11604     11603     11605     11605     11606
     11605     11607     11607     11608     11607     11609     11607     11610
     11610     11611     11610     11612     11610     11613     11613     11614
     11613     11615     11613     11616     11616     11617     11616     11618
     11616     11619     11619     11620     11619     11621     11619     11622
     11622     11623     11622     11624     11622     11625     11625     11626
     11625     11627     11625     11628     11628     11629     11628     11630
     11628     11631     11579     11580     11580     11582     11580     11581
     11582     11583     11582     11584     11582     11632     11632     11633
     11632     11634     11632     11635     11635     11636     11635     11637
     11635     11638     11638     11639     11638     11640     11638     11641
     11641     11642     11641     11643     11641     11644     11644     11645
     11644     11646     11644     11647     11647     11648     11647     11649
     11647     11650     11650     11651     11650     11652     11650     11653
     11653     11654     11653     11655     11653     11656     11656     11657
     11656     11658     11656     11659     11659     11660     11659     11661
     11659     11662     11662     11663     11662     11664     11662     11665
     11665     11666     11665     11667     11665     11668     11668     11669
     11668     11670     11668     11671     11671     11672     11671     11673
     11671     11674     11675     11679     11675     11683     11675     11687
     11679     11680     11679     11681     11679     11682     11683     11684
     11683     11685     11683     11686     11687     11688     11687     11689
     11687     11690     11675     11676     11676     11677     11676     11678
     11676     11691     11691     11692     11691     11693     11691     11697
     11698     11699     11697     11694     11694     11698     11694     11695
     11694     11696     11699     11700     11699     11701     11699     11702
     11702     11703     11702     11710     11702     11704     11710     11711
     11710     11712     11710     11713     11704     11705     11705     11707
     11705     11706     11707     11708     11707     11709     11707     11719
     11719     11720     11719     11721     11719     11722     11722     11723
     11722     11724     11722     11725     11725     11726     11725     11727
     11725     11728     11728     11729     11728     11730     11728     11731
     11731     11732     11731     11733     11731     11734     11734     11735
     11734     11736     11734     11737     11737     11738     11737     11739
     11739     11740     11739     11741     11741     11742     11741     11743
     11741     11744     11744     11745     11744     11746     11744     11747
     11747     11748     11747     11749     11747     11750     11750     11751
     11750     11752     11750     11753     11753     11754     11753     11755
     11753     11756     11756     11757     11756     11758     11756     11759
     11759     11760     11759     11761     11759     11762     11762     11763
     11762     11764     11762     11765     11713     11714     11714     11716
     11714     11715     11716     11717     11716     11718     11716     11766
     11766     11767     11766     11768     11766     11769     11769     11770
     11769     11771     11769     11772     11772     11773     11772     11774
     11772     11775     11775     11776     11775     11777     11775     11778
     11778     11779     11778     11780     11778     11781     11781     11782
     11781     11783     11781     11784     11784     11785     11784     11786
     11784     11787     11787     11788     11787     11789     11787     11790
     11790     11791     11790     11792     11790     11793     11793     11794
     11793     11795     11793     11796     11796     11797     11796     11798
     11796     11799     11799     11800     11799     11801     11799     11802
     11802     11803     11802     11804     11802     11805     11805     11806
     11805     11807     11805     11808     11809     11813     11809     11817
     11809     11821     11813     11814     11813     11815     11813     11816
     11817     11818     11817     11819     11817     11820     11821     11822
     11821     11823     11821     11824     11809     11810     11810     11811
     11810     11812     11810     11825     11825     11826     11825     11827
     11825     11831     11832     11833     11831     11828     11828     11832
     11828     11829     11828     11830     11833     11834     11833     11835
     11833     11836     11836     11837     11836     11844     11836     11838
     11844     11845     11844     11846     11844     11847     11838     11839
     11839     11841     11839     11840     11841     11842     11841     11843
     11841     11853     11853     11854     11853     11855     11853     11856
     11856     11857     11856     11858     11856     11859     11859     11860
     11859     11861     11859     11862     11862     11863     11862     11864
     11862     11865     11865     11866     11865     11867     11865     11868
     11868     11869     11868     11870     11868     11871     11871     11872
     11871     11873     11873     11874     11873     11875     11875     11876
     11875     11877     11875     11878     11878     11879     11878     11880
     11878     11881     11881     11882     11881     11883     11881     11884
     11884     11885     11884     11886     11884     11887     11887     11888
     11887     11889     11887     11890     11890     11891     11890     11892
     11890     11893     11893     11894     11893     11895     11893     11896
     11896     11897     11896     11898     11896     11899     11847     11848
     11848     11850     11848     11849     11850     11851     11850     11852
     11850     11900     11900     11901     11900     11902     11900     11903
     11903     11904     11903     11905     11903     11906     11906     11907
     11906     11908     11906     11909     11909     11910     11909     11911
     11909     11912     11912     11913     11912     11914     11912     11915
     11915     11916     11915     11917     11915     11918     11918     11919
     11918     11920     11918     11921     11921     11922     11921     11923
     11921     11924     11924     11925     11924     11926     11924     11927
     11927     11928     11927     11929     11927     11930     11930     11931
     11930     11932     11930     11933     11933     11934     11933     11935
     11933     11936     11936     11937     11936     11938     11936     11939
     11939     11940     11939     11941     11939     11942     11943     11947
     11943     11951     11943     11955     11947     11948     11947     11949
     11947     11950     11951     11952     11951     11953     11951     11954
     11955     11956     11955     11957     11955     11958     11943     11944
     11944     11945     11944     11946     11944     11959     11959     11960
     11959     11961     11959     11965     11966     11967     11965     11962
     11962     11966     11962     11963     11962     11964     11967     11968
     11967     11969     11967     11970     11970     11971     11970     11978
     11970     11972     11978     11979     11978     11980     11978     11981
     11972     11973     11973     11975     11973     11974     11975     11976
     11975     11977     11975     11987     11987     11988     11987     11989
     11987     11990     11990     11991     11990     11992     11990     11993
     11993     11994     11993     11995     11993     11996     11996     11997
     11996     11998     11996     11999     11999     12000     11999     12001
     11999     12002     12002     12003     12002     12004     12002     12005
     12005     12006     12005     12007     12007     12008     12007     12009
     12009     12010     12009     12011     12009     12012     12012     12013
     12012     12014     12012     12015     12015     12016     12015     12017
     12015     12018     12018     12019     12018     12020     12018     12021
     12021     12022     12021     12023     12021     12024     12024     12025
     12024     12026     12024     12027     12027     12028     12027     12029
     12027     12030     12030     12031     12030     12032     12030     12033
     11981     11982     11982     11984     11982     11983     11984     11985
     11984     11986     11984     12034     12034     12035     12034     12036
     12034     12037     12037     12038     12037     12039     12037     12040
     12040     12041     12040     12042     12040     12043     12043     12044
     12043     12045     12043     12046     12046     12047     12046     12048
     12046     12049     12049     12050     12049     12051     12049     12052
     12052     12053     12052     12054     12052     12055     12055     12056
     12055     12057     12055     12058     12058     12059     12058     12060
     12058     12061     12061     12062     12061     12063     12061     12064
     12064     12065     12064     12066     12064     12067     12067     12068
     12067     12069     12067     12070     12070     12071     12070     12072
     12070     12073     12073     12074     12073     12075     12073     12076
     12077     12081     12077     12085     12077     12089     12081     12082
     12081     12083     12081     12084     12085     12086     12085     12087
     12085     12088     12089     12090     12089     12091     12089     12092
     12077     12078     12078     12079     12078     12080     12078     12093
     12093     12094     12093     12095     12093     12099     12100     12101
     12099     12096     12096     12100     12096     12097     12096     12098
     12101     12102     12101     12103     12101     12104     12104     12105
     12104     12112     12104     12106     12112     12113     12112     12114
     12112     12115     12106     12107     12107     12109     12107     12108
     12109     12110     12109     12111     12109     12121     12121     12122
     12121     12123     12121     12124     12124     12125     12124     12126
     12124     12127     12127     12128     12127     12129     12127     12130
     12130     12131     12130     12132     12130     12133     12133     12134
     12133     12135     12133     12136     12136     12137     12136     12138
     12136     12139     12139     12140     12139     12141     12141     12142
     12141     12143     12143     12144     12143     12145     12143     12146
     12146     12147     12146     12148     12146     12149     12149     12150
     12149     12151     12149     12152     12152     12153     12152     12154
     12152     12155     12155     12156     12155     12157     12155     12158
     12158     12159     12158     12160     12158     12161     12161     12162
     12161     12163     12161     12164     12164     12165     12164     12166
     12164     12167     12115     12116     12116     12118     12116     12117
     12118     12119     12118     12120     12118     12168     12168     12169
     12168     12170     12168     12171     12171     12172     12171     12173
     12171     12174     12174     12175     12174     12176     12174     12177
     12177     12178     12177     12179     12177     12180     12180     12181
     12180     12182     12180     12183     12183     12184     12183     12185
     12183     12186     12186     12187     12186     12188     12186     12189
     12189     12190     12189     12191     12189     12192     12192     12193
     12192     12194     12192     12195     12195     12196     12195     12197
     12195     12198     12198     12199     12198     12200     12198     12201
     12201     12202     12201     12203     12201     12204     12204     12205
     12204     12206     12204     12207     12207     12208     12207     12209
     12207     12210     12211     12215     12211     12219     12211     12223
     12215     12216     12215     12217     12215     12218     12219     12220
     12219     12221     12219     12222     12223     12224     12223     12225
     12223     12226     12211     12212     12212     12213     12212     12214
     12212     12227     12227     12228     12227     12229     12227     12233
     12234     12235     12233     12230     12230     12234     12230     12231
     12230     12232     12235     12236     12235     12237     12235     12238
     12238     12239     12238     12246     12238     12240     12246     12247
     12246     12248     12246     12249     12240     12241     12241     12243
     12241     12242     12243     12244     12243     12245     12243     12255
     12255     12256     12255     12257     12255     12258     12258     12259
     12258     12260     12258     12261     12261     12262     12261     12263
     12261     12264     12264     12265     12264     12266     12264     12267
     12267     12268     12267     12269     12267     12270     12270     12271
     12270     12272     12270     12273     12273     12274     12273     12275
     12275     12276     12275     12277     12277     12278     12277     12279
     12277     12280     12280     12281     12280     12282     12280     12283
     12283     12284     12283     12285     12283     12286     12286     12287
     12286     12288     12286     12289     12289     12290     12289     12291
     12289     12292     12292     12293     12292     12294     12292     12295
     12295     12296     12295     12297     12295     12298     12298     12299
     12298     12300     12298     12301     12249     12250     12250     12252
     12250     12251     12252     12253     12252     12254     12252     12302
     12302     12303     12302     12304     12302     12305     12305     12306
     12305     12307     12305     12308     12308     12309     12308     12310
     12308     12311     12311     12312     12311     12313     12311     12314
     12314     12315     12314     12316     12314     12317     12317     12318
     12317     12319     12317     12320     12320     12321     12320     12322
     12320     12323     12323     12324     12323     12325     12323     12326
     12326     12327     12326     12328     12326     12329     12329     12330
     12329     12331     12329     12332     12332     12333     12332     12334
     12332     12335     12335     12336     12335     12337     12335     12338
     12338     12339     12338     12340     12338     12341     12341     12342
     12341     12343     12341     12344     12345     12349     12345     12353
     12345     12357     12349     12350     12349     12351     12349     12352
     12353     12354     12353     12355     12353     12356     12357     12358
     12357     12359     12357     12360     12345     12346     12346     12347
     12346     12348     12346     12361     12361     12362     12361     12363
     12361     12367     12368     12369     12367     12364     12364     12368
     12364     12365     12364     12366     12369     12370     12369     12371
     12369     12372     12372     12373     12372     12380     12372     12374
     12380     12381     12380     12382     12380     12383     12374     12375
     12375     12377     12375     12376     12377     12378     12377     12379
     12377     12389     12389     12390     12389     12391     12389     12392
     12392     12393     12392     12394     12392     12395     12395     12396
     12395     12397     12395     12398     12398     12399     12398     12400
     12398     12401     12401     12402     12401     12403     12401     12404
     12404     12405     12404     12406     12404     12407     12407     12408
     12407     12409     12409     12410     12409     12411     12411     12412
     12411     12413     12411     12414     12414     12415     12414     12416
     12414     12417     12417     12418     12417     12419     12417     12420
     12420     12421     12420     12422     12420     12423     12423     12424
     12423     12425     12423     12426     12426     12427     12426     12428
     12426     12429     12429     12430     12429     12431     12429     12432
     12432     12433     12432     12434     12432     12435     12383     12384
     12384     12386     12384     12385     12386     12387     12386     12388
     12386     12436     12436     12437     12436     12438     12436     12439
     12439     12440     12439     12441     12439     12442     12442     12443
     12442     12444     12442     12445     12445     12446     12445     12447
     12445     12448     12448     12449     12448     12450     12448     12451
     12451     12452     12451     12453     12451     12454     12454     12455
     12454     12456     12454     12457     12457     12458     12457     12459
     12457     12460     12460     12461     12460     12462     12460     12463
     12463     12464     12463     12465     12463     12466     12466     12467
     12466     12468     12466     12469     12469     12470     12469     12471
     12469     12472     12472     12473     12472     12474     12472     12475
     12475     12476     12475     12477     12475     12478     12479     12483
     12479     12487     12479     12491     12483     12484     12483     12485
     12483     12486     12487     12488     12487     12489     12487     12490
     12491     12492     12491     12493     12491     12494     12479     12480
     12480     12481     12480     12482     12480     12495     12495     12496
     12495     12497     12495     12501     12502     12503     12501     12498
     12498     12502     12498     12499     12498     12500     12503     12504
     12503     12505     12503     12506     12506     12507     12506     12514
     12506     12508     12514     12515     12514     12516     12514     12517
     12508     12509     12509     12511     12509     12510     12511     12512
     12511     12513     12511     12523     12523     12524     12523     12525
     12523     12526     12526     12527     12526     12528     12526     12529
     12529     12530     12529     12531     12529     12532     12532     12533
     12532     12534     12532     12535     12535     12536     12535     12537
     12535     12538     12538     12539     12538     12540     12538     12541
     12541     12542     12541     12543     12543     12544     12543     12545
     12545     12546     12545     12547     12545     12548     12548     12549
     12548     12550     12548     12551     12551     12552     12551     12553
     12551     12554     12554     12555     12554     12556     12554     12557
     12557     12558     12557     12559     12557     12560     12560     12561
     12560     12562     12560     12563     12563     12564     12563     12565
     12563     12566     12566     12567     12566     12568     12566     12569
     12517     12518     12518     12520     12518     12519     12520     12521
     12520     12522     12520     12570     12570     12571     12570     12572
     12570     12573     12573     12574     12573     12575     12573     12576
     12576     12577     12576     12578     12576     12579     12579     12580
     12579     12581     12579     12582     12582     12583     12582     12584
     12582     12585     12585     12586     12585     12587     12585     12588
     12588     12589     12588     12590     12588     12591     12591     12592
     12591     12593     12591     12594     12594     12595     12594     12596
     12594     12597     12597     12598     12597     12599     12597     12600
     12600     12601     12600     12602     12600     12603     12603     12604
     12603     12605     12603     12606     12606     12607     12606     12608
     12606     12609     12609     12610     12609     12611     12609     12612
     12613     12617     12613     12621     12613     12625     12617     12618
     12617     12619     12617     12620     12621     12622     12621     12623
     12621     12624     12625     12626     12625     12627     12625     12628
     12613     12614     12614     12615     12614     12616     12614     12629
     12629     12630     12629     12631     12629     12635     12636     12637
     12635     12632     12632     12636     12632     12633     12632     12634
     12637     12638     12637     12639     12637     12640     12640     12641
     12640     12648     12640     12642     12648     12649     12648     12650
     12648     12651     12642     12643     12643     12645     12643     12644
     12645     12646     12645     12647     12645     12657     12657     12658
     12657     12659     12657     12660     12660     12661     12660     12662
     12660     12663     12663     12664     12663     12665     12663     12666
     12666     12667     12666     12668     12666     12669     12669     12670
     12669     12671     12669     12672     12672     12673     12672     12674
     12672     12675     12675     12676     12675     12677     12677     12678
     12677     12679     12679     12680     12679     12681     12679     12682
     12682     12683     12682     12684     12682     12685     12685     12686
     12685     12687     12685     12688     12688     12689     12688     12690
     12688     12691     12691     12692     12691     12693     12691     12694
     12694     12695     12694     12696     12694     12697     12697     12698
     12697     12699     12697     12700     12700     12701     12700     12702
     12700     12703     12651     12652     12652     12654     12652     12653
     12654     12655     12654     12656     12654     12704     12704     12705
     12704     12706     12704     12707     12707     12708     12707     12709
     12707     12710     12710     12711     12710     12712     12710     12713
     12713     12714     12713     12715     12713     12716     12716     12717
     12716     12718     12716     12719     12719     12720     12719     12721
     12719     12722     12722     12723     12722     12724     12722     12725
     12725     12726     12725     12727     12725     12728     12728     12729
     12728     12730     12728     12731     12731     12732     12731     12733
     12731     12734     12734     12735     12734     12736     12734     12737
     12737     12738     12737     12739     12737     12740     12740     12741
     12740     12742     12740     12743     12743     12744     12743     12745
     12743     12746     12747     12751     12747     12755     12747     12759
     12751     12752     12751     12753     12751     12754     12755     12756
     12755     12757     12755     12758     12759     12760     12759     12761
     12759     12762     12747     12748     12748     12749     12748     12750
     12748     12763     12763     12764     12763     12765     12763     12769
     12770     12771     12769     12766     12766     12770     12766     12767
     12766     12768     12771     12772     12771     12773     12771     12774
     12774     12775     12774     12782     12774     12776     12782     12783
     12782     12784     12782     12785     12776     12777     12777     12779
     12777     12778     12779     12780     12779     12781     12779     12791
     12791     12792     12791     12793     12791     12794     12794     12795
     12794     12796     12794     12797     12797     12798     12797     12799
     12797     12800     12800     12801     12800     12802     12800     12803
     12803     12804     12803     12805     12803     12806     12806     12807
     12806     12808     12806     12809     12809     12810     12809     12811
     12811     12812     12811     12813     12813     12814     12813     12815
     12813     12816     12816     12817     12816     12818     12816     12819
     12819     12820     12819     12821     12819     12822     12822     12823
     12822     12824     12822     12825     12825     12826     12825     12827
     12825     12828     12828     12829     12828     12830     12828     12831
     12831     12832     12831     12833     12831     12834     12834     12835
     12834     12836     12834     12837     12785     12786     12786     12788
     12786     12787     12788     12789     12788     12790     12788     12838
     12838     12839     12838     12840     12838     12841     12841     12842
     12841     12843     12841     12844     12844     12845     12844     12846
     12844     12847     12847     12848     12847     12849     12847     12850
     12850     12851     12850     12852     12850     12853     12853     12854
     12853     12855     12853     12856     12856     12857     12856     12858
     12856     12859     12859     12860     12859     12861     12859     12862
     12862     12863     12862     12864     12862     12865     12865     12866
     12865     12867     12865     12868     12868     12869     12868     12870
     12868     12871     12871     12872     12871     12873     12871     12874
     12874     12875     12874     12876     12874     12877     12877     12878
     12877     12879     12877     12880     12881     12885     12881     12889
     12881     12893     12885     12886     12885     12887     12885     12888
     12889     12890     12889     12891     12889     12892     12893     12894
     12893     12895     12893     12896     12881     12882     12882     12883
     12882     12884     12882     12897     12897     12898     12897     12899
     12897     12903     12904     12905     12903     12900     12900     12904
     12900     12901     12900     12902     12905     12906     12905     12907
     12905     12908     12908     12909     12908     12916     12908     12910
     12916     12917     12916     12918     12916     12919     12910     12911
     12911     12913     12911     12912     12913     12914     12913     12915
     12913     12925     12925     12926     12925     12927     12925     12928
     12928     12929     12928     12930     12928     12931     12931     12932
     12931     12933     12931     12934     12934     12935     12934     12936
     12934     12937     12937     12938     12937     12939     12937     12940
     12940     12941     12940     12942     12940     12943     12943     12944
     12943     12945     12945     12946     12945     12947     12947     12948
     12947     12949     12947     12950     12950     12951     12950     12952
     12950     12953     12953     12954     12953     12955     12953     12956
     12956     12957     12956     12958     12956     12959     12959     12960
     12959     12961     12959     12962     12962     12963     12962     12964
     12962     12965     12965     12966     12965     12967     12965     12968
     12968     12969     12968     12970     12968     12971     12919     12920
     12920     12922     12920     12921     12922     12923     12922     12924
     12922     12972     12972     12973     12972     12974     12972     12975
     12975     12976     12975     12977     12975     12978     12978     12979
     12978     12980     12978     12981     12981     12982     12981     12983
     12981     12984     12984     12985     12984     12986     12984     12987
     12987     12988     12987     12989     12987     12990     12990     12991
     12990     12992     12990     12993     12993     12994     12993     12995
     12993     12996     12996     12997     12996     12998     12996     12999
     12999     13000     12999     13001     12999     13002     13002     13003
     13002     13004     13002     13005     13005     13006     13005     13007
     13005     13008     13008     13009     13008     13010     13008     13011
     13011     13012     13011     13013     13011     13014     13015     13019
     13015     13023     13015     13027     13019     13020     13019     13021
     13019     13022     13023     13024     13023     13025     13023     13026
     13027     13028     13027     13029     13027     13030     13015     13016
     13016     13017     13016     13018     13016     13031     13031     13032
     13031     13033     13031     13037     13038     13039     13037     13034
     13034     13038     13034     13035     13034     13036     13039     13040
     13039     13041     13039     13042     13042     13043     13042     13050
     13042     13044     13050     13051     13050     13052     13050     13053
     13044     13045     13045     13047     13045     13046     13047     13048
     13047     13049     13047     13059     13059     13060     13059     13061
     13059     13062     13062     13063     13062     13064     13062     13065
     13065     13066     13065     13067     13065     13068     13068     13069
     13068     13070     13068     13071     13071     13072     13071     13073
     13071     13074     13074     13075     13074     13076     13074     13077
     13077     13078     13077     13079     13079     13080     13079     13081
     13081     13082     13081     13083     13081     13084     13084     13085
     13084     13086     13084     13087     13087     13088     13087     13089
     13087     13090     13090     13091     13090     13092     13090     13093
     13093     13094     13093     13095     13093     13096     13096     13097
     13096     13098     13096     13099     13099     13100     13099     13101
     13099     13102     13102     13103     13102     13104     13102     13105
     13053     13054     13054     13056     13054     13055     13056     13057
     13056     13058     13056     13106     13106     13107     13106     13108
     13106     13109     13109     13110     13109     13111     13109     13112
     13112     13113     13112     13114     13112     13115     13115     13116
     13115     13117     13115     13118     13118     13119     13118     13120
     13118     13121     13121     13122     13121     13123     13121     13124
     13124     13125     13124     13126     13124     13127     13127     13128
     13127     13129     13127     13130     13130     13131     13130     13132
     13130     13133     13133     13134     13133     13135     13133     13136
     13136     13137     13136     13138     13136     13139     13139     13140
     13139     13141     13139     13142     13142     13143     13142     13144
     13142     13145     13145     13146     13145     13147     13145     13148
     13149     13153     13149     13157     13149     13161     13153     13154
     13153     13155     13153     13156     13157     13158     13157     13159
     13157     13160     13161     13162     13161     13163     13161     13164
     13149     13150     13150     13151     13150     13152     13150     13165
     13165     13166     13165     13167     13165     13171     13172     13173
     13171     13168     13168     13172     13168     13169     13168     13170
     13173     13174     13173     13175     13173     13176     13176     13177
     13176     13184     13176     13178     13184     13185     13184     13186
     13184     13187     13178     13179     13179     13181     13179     13180
     13181     13182     13181     13183     13181     13193     13193     13194
     13193     13195     13193     13196     13196     13197     13196     13198
     13196     13199     13199     13200     13199     13201     13199     13202
     13202     13203     13202     13204     13202     13205     13205     13206
     13205     13207     13205     13208     13208     13209     13208     13210
     13208     13211     13211     13212     13211     13213     13213     13214
     13213     13215     13215     13216     13215     13217     13215     13218
     13218     13219     13218     13220     13218     13221     13221     13222
     13221     13223     13221     13224     13224     13225     13224     13226
     13224     13227     13227     13228     13227     13229     13227     13230
     13230     13231     13230     13232     13230     13233     13233     13234
     13233     13235     13233     13236     13236     13237     13236     13238
     13236     13239     13187     13188     13188     13190     13188     13189
     13190     13191     13190     13192     13190     13240     13240     13241
     13240     13242     13240     13243     13243     13244     13243     13245
     13243     13246     13246     13247     13246     13248     13246     13249
     13249     13250     13249     13251     13249     13252     13252     13253
     13252     13254     13252     13255     13255     13256     13255     13257
     13255     13258     13258     13259     13258     13260     13258     13261
     13261     13262     13261     13263     13261     13264     13264     13265
     13264     13266     13264     13267     13267     13268     13267     13269
     13267     13270     13270     13271     13270     13272     13270     13273
     13273     13274     13273     13275     13273     13276     13276     13277
     13276     13278     13276     13279     13279     13280     13279     13281
     13279     13282     13283     13287     13283     13291     13283     13295
     13287     13288     13287     13289     13287     13290     13291     13292
     13291     13293     13291     13294     13295     13296     13295     13297
     13295     13298     13283     13284     13284     13285     13284     13286
     13284     13299     13299     13300     13299     13301     13299     13305
     13306     13307     13305     13302     13302     13306     13302     13303
     13302     13304     13307     13308     13307     13309     13307     13310
     13310     13311     13310     13318     13310     13312     13318     13319
     13318     13320     13318     13321     13312     13313     13313     13315
     13313     13314     13315     13316     13315     13317     13315     13327
     13327     13328     13327     13329     13327     13330     13330     13331
     13330     13332     13330     13333     13333     13334     13333     13335
     13333     13336     13336     13337     13336     13338     13336     13339
     13339     13340     13339     13341     13339     13342     13342     13343
     13342     13344     13342     13345     13345     13346     13345     13347
     13347     13348     13347     13349     13349     13350     13349     13351
     13349     13352     13352     13353     13352     13354     13352     13355
     13355     13356     13355     13357     13355     13358     13358     13359
     13358     13360     13358     13361     13361     13362     13361     13363
     13361     13364     13364     13365     13364     13366     13364     13367
     13367     13368     13367     13369     13367     13370     13370     13371
     13370     13372     13370     13373     13321     13322     13322     13324
     13322     13323     13324     13325     13324     13326     13324     13374
     13374     13375     13374     13376     13374     13377     13377     13378
     13377     13379     13377     13380     13380     13381     13380     13382
     13380     13383     13383     13384     13383     13385     13383     13386
     13386     13387     13386     13388     13386     13389     13389     13390
     13389     13391     13389     13392     13392     13393     13392     13394
     13392     13395     13395     13396     13395     13397     13395     13398
     13398     13399     13398     13400     13398     13401     13401     13402
     13401     13403     13401     13404     13404     13405     13404     13406
     13404     13407     13407     13408     13407     13409     13407     13410
     13410     13411     13410     13412     13410     13413     13413     13414
     13413     13415     13413     13416     13417     13421     13417     13425
     13417     13429     13421     13422     13421     13423     13421     13424
     13425     13426     13425     13427     13425     13428     13429     13430
     13429     13431     13429     13432     13417     13418     13418     13419
     13418     13420     13418     13433     13433     13434     13433     13435
     13433     13439     13440     13441     13439     13436     13436     13440
     13436     13437     13436     13438     13441     13442     13441     13443
     13441     13444     13444     13445     13444     13452     13444     13446
     13452     13453     13452     13454     13452     13455     13446     13447
     13447     13449     13447     13448     13449     13450     13449     13451
     13449     13461     13461     13462     13461     13463     13461     13464
     13464     13465     13464     13466     13464     13467     13467     13468
     13467     13469     13467     13470     13470     13471     13470     13472
     13470     13473     13473     13474     13473     13475     13473     13476
     13476     13477     13476     13478     13476     13479     13479     13480
     13479     13481     13481     13482     13481     13483     13483     13484
     13483     13485     13483     13486     13486     13487     13486     13488
     13486     13489     13489     13490     13489     13491     13489     13492
     13492     13493     13492     13494     13492     13495     13495     13496
     13495     13497     13495     13498     13498     13499     13498     13500
     13498     13501     13501     13502     13501     13503     13501     13504
     13504     13505     13504     13506     13504     13507     13455     13456
     13456     13458     13456     13457     13458     13459     13458     13460
     13458     13508     13508     13509     13508     13510     13508     13511
     13511     13512     13511     13513     13511     13514     13514     13515
     13514     13516     13514     13517     13517     13518     13517     13519
     13517     13520     13520     13521     13520     13522     13520     13523
     13523     13524     13523     13525     13523     13526     13526     13527
     13526     13528     13526     13529     13529     13530     13529     13531
     13529     13532     13532     13533     13532     13534     13532     13535
     13535     13536     13535     13537     13535     13538     13538     13539
     13538     13540     13538     13541     13541     13542     13541     13543
     13541     13544     13544     13545     13544     13546     13544     13547
     13547     13548     13547     13549     13547     13550     13551     13555
     13551     13559     13551     13563     13555     13556     13555     13557
     13555     13558     13559     13560     13559     13561     13559     13562
     13563     13564     13563     13565     13563     13566     13551     13552
     13552     13553     13552     13554     13552     13567     13567     13568
     13567     13569     13567     13573     13574     13575     13573     13570
     13570     13574     13570     13571     13570     13572     13575     13576
     13575     13577     13575     13578     13578     13579     13578     13586
     13578     13580     13586     13587     13586     13588     13586     13589
     13580     13581     13581     13583     13581     13582     13583     13584
     13583     13585     13583     13595     13595     13596     13595     13597
     13595     13598     13598     13599     13598     13600     13598     13601
     13601     13602     13601     13603     13601     13604     13604     13605
     13604     13606     13604     13607     13607     13608     13607     13609
     13607     13610     13610     13611     13610     13612     13610     13613
     13613     13614     13613     13615     13615     13616     13615     13617
     13617     13618     13617     13619     13617     13620     13620     13621
     13620     13622     13620     13623     13623     13624     13623     13625
     13623     13626     13626     13627     13626     13628     13626     13629
     13629     13630     13629     13631     13629     13632     13632     13633
     13632     13634     13632     13635     13635     13636     13635     13637
     13635     13638     13638     13639     13638     13640     13638     13641
     13589     13590     13590     13592     13590     13591     13592     13593
     13592     13594     13592     13642     13642     13643     13642     13644
     13642     13645     13645     13646     13645     13647     13645     13648
     13648     13649     13648     13650     13648     13651     13651     13652
     13651     13653     13651     13654     13654     13655     13654     13656
     13654     13657     13657     13658     13657     13659     13657     13660
     13660     13661     13660     13662     13660     13663     13663     13664
     13663     13665     13663     13666     13666     13667     13666     13668
     13666     13669     13669     13670     13669     13671     13669     13672
     13672     13673     13672     13674     13672     13675     13675     13676
     13675     13677     13675     13678     13678     13679     13678     13680
     13678     13681     13681     13682     13681     13683     13681     13684
     13685     13689     13685     13693     13685     13697     13689     13690
     13689     13691     13689     13692     13693     13694     13693     13695
     13693     13696     13697     13698     13697     13699     13697     13700
     13685     13686     13686     13687     13686     13688     13686     13701
     13701     13702     13701     13703     13701     13707     13708     13709
     13707     13704     13704     13708     13704     13705     13704     13706
     13709     13710     13709     13711     13709     13712     13712     13713
     13712     13720     13712     13714     13720     13721     13720     13722
     13720     13723     13714     13715     13715     13717     13715     13716
     13717     13718     13717     13719     13717     13729     13729     13730
     13729     13731     13729     13732     13732     13733     13732     13734
     13732     13735     13735     13736     13735     13737     13735     13738
     13738     13739     13738     13740     13738     13741     13741     13742
     13741     13743     13741     13744     13744     13745     13744     13746
     13744     13747     13747     13748     13747     13749     13749     13750
     13749     13751     13751     13752     13751     13753     13751     13754
     13754     13755     13754     13756     13754     13757     13757     13758
     13757     13759     13757     13760     13760     13761     13760     13762
     13760     13763     13763     13764     13763     13765     13763     13766
     13766     13767     13766     13768     13766     13769     13769     13770
     13769     13771     13769     13772     13772     13773     13772     13774
     13772     13775     13723     13724     13724     13726     13724     13725
     13726     13727     13726     13728     13726     13776     13776     13777
     13776     13778     13776     13779     13779     13780     13779     13781
     13779     13782     13782     13783     13782     13784     13782     13785
     13785     13786     13785     13787     13785     13788     13788     13789
     13788     13790     13788     13791     13791     13792     13791     13793
     13791     13794     13794     13795     13794     13796     13794     13797
     13797     13798     13797     13799     13797     13800     13800     13801
     13800     13802     13800     13803     13803     13804     13803     13805
     13803     13806     13806     13807     13806     13808     13806     13809
     13809     13810     13809     13811     13809     13812     13812     13813
     13812     13814     13812     13815     13815     13816     13815     13817
     13815     13818     13819     13823     13819     13827     13819     13831
     13823     13824     13823     13825     13823     13826     13827     13828
     13827     13829     13827     13830     13831     13832     13831     13833
     13831     13834     13819     13820     13820     13821     13820     13822
     13820     13835     13835     13836     13835     13837     13835     13841
     13842     13843     13841     13838     13838     13842     13838     13839
     13838     13840     13843     13844     13843     13845     13843     13846
     13846     13847     13846     13854     13846     13848     13854     13855
     13854     13856     13854     13857     13848     13849     13849     13851
     13849     13850     13851     13852     13851     13853     13851     13863
     13863     13864     13863     13865     13863     13866     13866     13867
     13866     13868     13866     13869     13869     13870     13869     13871
     13869     13872     13872     13873     13872     13874     13872     13875
     13875     13876     13875     13877     13875     13878     13878     13879
     13878     13880     13878     13881     13881     13882     13881     13883
     13883     13884     13883     13885     13885     13886     13885     13887
     13885     13888     13888     13889     13888     13890     13888     13891
     13891     13892     13891     13893     13891     13894     13894     13895
     13894     13896     13894     13897     13897     13898     13897     13899
     13897     13900     13900     13901     13900     13902     13900     13903
     13903     13904     13903     13905     13903     13906     13906     13907
     13906     13908     13906     13909     13857     13858     13858     13860
     13858     13859     13860     13861     13860     13862     13860     13910
     13910     13911     13910     13912     13910     13913     13913     13914
     13913     13915     13913     13916     13916     13917     13916     13918
     13916     13919     13919     13920     13919     13921     13919     13922
     13922     13923     13922     13924     13922     13925     13925     13926
     13925     13927     13925     13928     13928     13929     13928     13930
     13928     13931     13931     13932     13931     13933     13931     13934
     13934     13935     13934     13936     13934     13937     13937     13938
     13937     13939     13937     13940     13940     13941     13940     13942
     13940     13943     13943     13944     13943     13945     13943     13946
     13946     13947     13946     13948     13946     13949     13949     13950
     13949     13951     13949     13952     13953     13957     13953     13961
     13953     13965     13957     13958     13957     13959     13957     13960
     13961     13962     13961     13963     13961     13964     13965     13966
     13965     13967     13965     13968     13953     13954     13954     13955
     13954     13956     13954     13969     13969     13970     13969     13971
     13969     13975     13976     13977     13975     13972     13972     13976
     13972     13973     13972     13974     13977     13978     13977     13979
     13977     13980     13980     13981     13980     13988     13980     13982
     13988     13989     13988     13990     13988     13991     13982     13983
     13983     13985     13983     13984     13985     13986     13985     13987
     13985     13997     13997     13998     13997     13999     13997     14000
     14000     14001     14000     14002     14000     14003     14003     14004
     14003     14005     14003     14006     14006     14007     14006     14008
     14006     14009     14009     14010     14009     14011     14009     14012
     14012     14013     14012     14014     14012     14015     14015     14016
     14015     14017     14017     14018     14017     14019     14019     14020
     14019     14021     14019     14022     14022     14023     14022     14024
     14022     14025     14025     14026     14025     14027     14025     14028
     14028     14029     14028     14030     14028     14031     14031     14032
     14031     14033     14031     14034     14034     14035     14034     14036
     14034     14037     14037     14038     14037     14039     14037     14040
     14040     14041     14040     14042     14040     14043     13991     13992
     13992     13994     13992     13993     13994     13995     13994     13996
     13994     14044     14044     14045     14044     14046     14044     14047
     14047     14048     14047     14049     14047     14050     14050     14051
     14050     14052     14050     14053     14053     14054     14053     14055
     14053     14056     14056     14057     14056     14058     14056     14059
     14059     14060     14059     14061     14059     14062     14062     14063
     14062     14064     14062     14065     14065     14066     14065     14067
     14065     14068     14068     14069     14068     14070     14068     14071
     14071     14072     14071     14073     14071     14074     14074     14075
     14074     14076     14074     14077     14077     14078     14077     14079
     14077     14080     14080     14081     14080     14082     14080     14083
     14083     14084     14083     14085     14083     14086     14087     14091
     14087     14095     14087     14099     14091     14092     14091     14093
     14091     14094     14095     14096     14095     14097     14095     14098
     14099     14100     14099     14101     14099     14102     14087     14088
     14088     14089     14088     14090     14088     14103     14103     14104
     14103     14105     14103     14109     14110     14111     14109     14106
     14106     14110     14106     14107     14106     14108     14111     14112
     14111     14113     14111     14114     14114     14115     14114     14122
     14114     14116     14122     14123     14122     14124     14122     14125
     14116     14117     14117     14119     14117     14118     14119     14120
     14119     14121     14119     14131     14131     14132     14131     14133
     14131     14134     14134     14135     14134     14136     14134     14137
     14137     14138     14137     14139     14137     14140     14140     14141
     14140     14142     14140     14143     14143     14144     14143     14145
     14143     14146     14146     14147     14146     14148     14146     14149
     14149     14150     14149     14151     14151     14152     14151     14153
     14153     14154     14153     14155     14153     14156     14156     14157
     14156     14158     14156     14159     14159     14160     14159     14161
     14159     14162     14162     14163     14162     14164     14162     14165
     14165     14166     14165     14167     14165     14168     14168     14169
     14168     14170     14168     14171     14171     14172     14171     14173
     14171     14174     14174     14175     14174     14176     14174     14177
     14125     14126     14126     14128     14126     14127     14128     14129
     14128     14130     14128     14178     14178     14179     14178     14180
     14178     14181     14181     14182     14181     14183     14181     14184
     14184     14185     14184     14186     14184     14187     14187     14188
     14187     14189     14187     14190     14190     14191     14190     14192
     14190     14193     14193     14194     14193     14195     14193     14196
     14196     14197     14196     14198     14196     14199     14199     14200
     14199     14201     14199     14202     14202     14203     14202     14204
     14202     14205     14205     14206     14205     14207     14205     14208
     14208     14209     14208     14210     14208     14211     14211     14212
     14211     14213     14211     14214     14214     14215     14214     14216
     14214     14217     14217     14218     14217     14219     14217     14220
     14221     14225     14221     14229     14221     14233     14225     14226
     14225     14227     14225     14228     14229     14230     14229     14231
     14229     14232     14233     14234     14233     14235     14233     14236
     14221     14222     14222     14223     14222     14224     14222     14237
     14237     14238     14237     14239     14237     14243     14244     14245
     14243     14240     14240     14244     14240     14241     14240     14242
     14245     14246     14245     14247     14245     14248     14248     14249
     14248     14256     14248     14250     14256     14257     14256     14258
     14256     14259     14250     14251     14251     14253     14251     14252
     14253     14254     14253     14255     14253     14265     14265     14266
     14265     14267     14265     14268     14268     14269     14268     14270
     14268     14271     14271     14272     14271     14273     14271     14274
     14274     14275     14274     14276     14274     14277     14277     14278
     14277     14279     14277     14280     14280     14281     14280     14282
     14280     14283     14283     14284     14283     14285     14285     14286
     14285     14287     14287     14288     14287     14289     14287     14290
     14290     14291     14290     14292     14290     14293     14293     14294
     14293     14295     14293     14296     14296     14297     14296     14298
     14296     14299     14299     14300     14299     14301     14299     14302
     14302     14303     14302     14304     14302     14305     14305     14306
     14305     14307     14305     14308     14308     14309     14308     14310
     14308     14311     14259     14260     14260     14262     14260     14261
     14262     14263     14262     14264     14262     14312     14312     14313
     14312     14314     14312     14315     14315     14316     14315     14317
     14315     14318     14318     14319     14318     14320     14318     14321
     14321     14322     14321     14323     14321     14324     14324     14325
     14324     14326     14324     14327     14327     14328     14327     14329
     14327     14330     14330     14331     14330     14332     14330     14333
     14333     14334     14333     14335     14333     14336     14336     14337
     14336     14338     14336     14339     14339     14340     14339     14341
     14339     14342     14342     14343     14342     14344     14342     14345
     14345     14346     14345     14347     14345     14348     14348     14349
     14348     14350     14348     14351     14351     14352     14351     14353
     14351     14354     14355     14359     14355     14363     14355     14367
     14359     14360     14359     14361     14359     14362     14363     14364
     14363     14365     14363     14366     14367     14368     14367     14369
     14367     14370     14355     14356     14356     14357     14356     14358
     14356     14371     14371     14372     14371     14373     14371     14377
     14378     14379     14377     14374     14374     14378     14374     14375
     14374     14376     14379     14380     14379     14381     14379     14382
     14382     14383     14382     14390     14382     14384     14390     14391
     14390     14392     14390     14393     14384     14385     14385     14387
     14385     14386     14387     14388     14387     14389     14387     14399
     14399     14400     14399     14401     14399     14402     14402     14403
     14402     14404     14402     14405     14405     14406     14405     14407
     14405     14408     14408     14409     14408     14410     14408     14411
     14411     14412     14411     14413     14411     14414     14414     14415
     14414     14416     14414     14417     14417     14418     14417     14419
     14419     14420     14419     14421     14421     14422     14421     14423
     14421     14424     14424     14425     14424     14426     14424     14427
     14427     14428     14427     14429     14427     14430     14430     14431
     14430     14432     14430     14433     14433     14434     14433     14435
     14433     14436     14436     14437     14436     14438     14436     14439
     14439     14440     14439     14441     14439     14442     14442     14443
     14442     14444     14442     14445     14393     14394     14394     14396
     14394     14395     14396     14397     14396     14398     14396     14446
     14446     14447     14446     14448     14446     14449     14449     14450
     14449     14451     14449     14452     14452     14453     14452     14454
     14452     14455     14455     14456     14455     14457     14455     14458
     14458     14459     14458     14460     14458     14461     14461     14462
     14461     14463     14461     14464     14464     14465     14464     14466
     14464     14467     14467     14468     14467     14469     14467     14470
     14470     14471     14470     14472     14470     14473     14473     14474
     14473     14475     14473     14476     14476     14477     14476     14478
     14476     14479     14479     14480     14479     14481     14479     14482
     14482     14483     14482     14484     14482     14485     14485     14486
     14485     14487     14485     14488     14489     14493     14489     14497
     14489     14501     14493     14494     14493     14495     14493     14496
     14497     14498     14497     14499     14497     14500     14501     14502
     14501     14503     14501     14504     14489     14490     14490     14491
     14490     14492     14490     14505     14505     14506     14505     14507
     14505     14511     14512     14513     14511     14508     14508     14512
     14508     14509     14508     14510     14513     14514     14513     14515
     14513     14516     14516     14517     14516     14524     14516     14518
     14524     14525     14524     14526     14524     14527     14518     14519
     14519     14521     14519     14520     14521     14522     14521     14523
     14521     14533     14533     14534     14533     14535     14533     14536
     14536     14537     14536     14538     14536     14539     14539     14540
     14539     14541     14539     14542     14542     14543     14542     14544
     14542     14545     14545     14546     14545     14547     14545     14548
     14548     14549     14548     14550     14548     14551     14551     14552
     14551     14553     14553     14554     14553     14555     14555     14556
     14555     14557     14555     14558     14558     14559     14558     14560
     14558     14561     14561     14562     14561     14563     14561     14564
     14564     14565     14564     14566     14564     14567     14567     14568
     14567     14569     14567     14570     14570     14571     14570     14572
     14570     14573     14573     14574     14573     14575     14573     14576
     14576     14577     14576     14578     14576     14579     14527     14528
     14528     14530     14528     14529     14530     14531     14530     14532
     14530     14580     14580     14581     14580     14582     14580     14583
     14583     14584     14583     14585     14583     14586     14586     14587
     14586     14588     14586     14589     14589     14590     14589     14591
     14589     14592     14592     14593     14592     14594     14592     14595
     14595     14596     14595     14597     14595     14598     14598     14599
     14598     14600     14598     14601     14601     14602     14601     14603
     14601     14604     14604     14605     14604     14606     14604     14607
     14607     14608     14607     14609     14607     14610     14610     14611
     14610     14612     14610     14613     14613     14614     14613     14615
     14613     14616     14616     14617     14616     14618     14616     14619
     14619     14620     14619     14621     14619     14622     14623     14627
     14623     14631     14623     14635     14627     14628     14627     14629
     14627     14630     14631     14632     14631     14633     14631     14634
     14635     14636     14635     14637     14635     14638     14623     14624
     14624     14625     14624     14626     14624     14639     14639     14640
     14639     14641     14639     14645     14646     14647     14645     14642
     14642     14646     14642     14643     14642     14644     14647     14648
     14647     14649     14647     14650     14650     14651     14650     14658
     14650     14652     14658     14659     14658     14660     14658     14661
     14652     14653     14653     14655     14653     14654     14655     14656
     14655     14657     14655     14667     14667     14668     14667     14669
     14667     14670     14670     14671     14670     14672     14670     14673
     14673     14674     14673     14675     14673     14676     14676     14677
     14676     14678     14676     14679     14679     14680     14679     14681
     14679     14682     14682     14683     14682     14684     14682     14685
     14685     14686     14685     14687     14687     14688     14687     14689
     14689     14690     14689     14691     14689     14692     14692     14693
     14692     14694     14692     14695     14695     14696     14695     14697
     14695     14698     14698     14699     14698     14700     14698     14701
     14701     14702     14701     14703     14701     14704     14704     14705
     14704     14706     14704     14707     14707     14708     14707     14709
     14707     14710     14710     14711     14710     14712     14710     14713
     14661     14662     14662     14664     14662     14663     14664     14665
     14664     14666     14664     14714     14714     14715     14714     14716
     14714     14717     14717     14718     14717     14719     14717     14720
     14720     14721     14720     14722     14720     14723     14723     14724
     14723     14725     14723     14726     14726     14727     14726     14728
     14726     14729     14729     14730     14729     14731     14729     14732
     14732     14733     14732     14734     14732     14735     14735     14736
     14735     14737     14735     14738     14738     14739     14738     14740
     14738     14741     14741     14742     14741     14743     14741     14744
     14744     14745     14744     14746     14744     14747     14747     14748
     14747     14749     14747     14750     14750     14751     14750     14752
     14750     14753     14753     14754     14753     14755     14753     14756
     14757     14761     14757     14765     14757     14769     14761     14762
     14761     14763     14761     14764     14765     14766     14765     14767
     14765     14768     14769     14770     14769     14771     14769     14772
     14757     14758     14758     14759     14758     14760     14758     14773
     14773     14774     14773     14775     14773     14779     14780     14781
     14779     14776     14776     14780     14776     14777     14776     14778
     14781     14782     14781     14783     14781     14784     14784     14785
     14784     14792     14784     14786     14792     14793     14792     14794
     14792     14795     14786     14787     14787     14789     14787     14788
     14789     14790     14789     14791     14789     14801     14801     14802
     14801     14803     14801     14804     14804     14805     14804     14806
     14804     14807     14807     14808     14807     14809     14807     14810
     14810     14811     14810     14812     14810     14813     14813     14814
     14813     14815     14813     14816     14816     14817     14816     14818
     14816     14819     14819     14820     14819     14821     14821     14822
     14821     14823     14823     14824     14823     14825     14823     14826
     14826     14827     14826     14828     14826     14829     14829     14830
     14829     14831     14829     14832     14832     14833     14832     14834
     14832     14835     14835     14836     14835     14837     14835     14838
     14838     14839     14838     14840     14838     14841     14841     14842
     14841     14843     14841     14844     14844     14845     14844     14846
     14844     14847     14795     14796     14796     14798     14796     14797
     14798     14799     14798     14800     14798     14848     14848     14849
     14848     14850     14848     14851     14851     14852     14851     14853
     14851     14854     14854     14855     14854     14856     14854     14857
     14857     14858     14857     14859     14857     14860     14860     14861
     14860     14862     14860     14863     14863     14864     14863     14865
     14863     14866     14866     14867     14866     14868     14866     14869
     14869     14870     14869     14871     14869     14872     14872     14873
     14872     14874     14872     14875     14875     14876     14875     14877
     14875     14878     14878     14879     14878     14880     14878     14881
     14881     14882     14881     14883     14881     14884     14884     14885
     14884     14886     14884     14887     14887     14888     14887     14889
     14887     14890     14891     14895     14891     14899     14891     14903
     14895     14896     14895     14897     14895     14898     14899     14900
     14899     14901     14899     14902     14903     14904     14903     14905
     14903     14906     14891     14892     14892     14893     14892     14894
     14892     14907     14907     14908     14907     14909     14907     14913
     14914     14915     14913     14910     14910     14914     14910     14911
     14910     14912     14915     14916     14915     14917     14915     14918
     14918     14919     14918     14926     14918     14920     14926     14927
     14926     14928     14926     14929     14920     14921     14921     14923
     14921     14922     14923     14924     14923     14925     14923     14935
     14935     14936     14935     14937     14935     14938     14938     14939
     14938     14940     14938     14941     14941     14942     14941     14943
     14941     14944     14944     14945     14944     14946     14944     14947
     14947     14948     14947     14949     14947     14950     14950     14951
     14950     14952     14950     14953     14953     14954     14953     14955
     14955     14956     14955     14957     14957     14958     14957     14959
     14957     14960     14960     14961     14960     14962     14960     14963
     14963     14964     14963     14965     14963     14966     14966     14967
     14966     14968     14966     14969     14969     14970     14969     14971
     14969     14972     14972     14973     14972     14974     14972     14975
     14975     14976     14975     14977     14975     14978     14978     14979
     14978     14980     14978     14981     14929     14930     14930     14932
     14930     14931     14932     14933     14932     14934     14932     14982
     14982     14983     14982     14984     14982     14985     14985     14986
     14985     14987     14985     14988     14988     14989     14988     14990
     14988     14991     14991     14992     14991     14993     14991     14994
     14994     14995     14994     14996     14994     14997     14997     14998
     14997     14999     14997     15000     15000     15001     15000     15002
     15000     15003     15003     15004     15003     15005     15003     15006
     15006     15007     15006     15008     15006     15009     15009     15010
     15009     15011     15009     15012     15012     15013     15012     15014
     15012     15015     15015     15016     15015     15017     15015     15018
     15018     15019     15018     15020     15018     15021     15021     15022
     15021     15023     15021     15024     15025     15029     15025     15033
     15025     15037     15029     15030     15029     15031     15029     15032
     15033     15034     15033     15035     15033     15036     15037     15038
     15037     15039     15037     15040     15025     15026     15026     15027
     15026     15028     15026     15041     15041     15042     15041     15043
     15041     15047     15048     15049     15047     15044     15044     15048
     15044     15045     15044     15046     15049     15050     15049     15051
     15049     15052     15052     15053     15052     15060     15052     15054
     15060     15061     15060     15062     15060     15063     15054     15055
     15055     15057     15055     15056     15057     15058     15057     15059
     15057     15069     15069     15070     15069     15071     15069     15072
     15072     15073     15072     15074     15072     15075     15075     15076
     15075     15077     15075     15078     15078     15079     15078     15080
     15078     15081     15081     15082     15081     15083     15081     15084
     15084     15085     15084     15086     15084     15087     15087     15088
     15087     15089     15089     15090     15089     15091     15091     15092
     15091     15093     15091     15094     15094     15095     15094     15096
     15094     15097     15097     15098     15097     15099     15097     15100
     15100     15101     15100     15102     15100     15103     15103     15104
     15103     15105     15103     15106     15106     15107     15106     15108
     15106     15109     15109     15110     15109     15111     15109     15112
     15112     15113     15112     15114     15112     15115     15063     15064
     15064     15066     15064     15065     15066     15067     15066     15068
     15066     15116     15116     15117     15116     15118     15116     15119
     15119     15120     15119     15121     15119     15122     15122     15123
     15122     15124     15122     15125     15125     15126     15125     15127
     15125     15128     15128     15129     15128     15130     15128     15131
     15131     15132     15131     15133     15131     15134     15134     15135
     15134     15136     15134     15137     15137     15138     15137     15139
     15137     15140     15140     15141     15140     15142     15140     15143
     15143     15144     15143     15145     15143     15146     15146     15147
     15146     15148     15146     15149     15149     15150     15149     15151
     15149     15152     15152     15153     15152     15154     15152     15155
     15155     15156     15155     15157     15155     15158     15159     15163
     15159     15167     15159     15171     15163     15164     15163     15165
     15163     15166     15167     15168     15167     15169     15167     15170
     15171     15172     15171     15173     15171     15174     15159     15160
     15160     15161     15160     15162     15160     15175     15175     15176
     15175     15177     15175     15181     15182     15183     15181     15178
     15178     15182     15178     15179     15178     15180     15183     15184
     15183     15185     15183     15186     15186     15187     15186     15194
     15186     15188     15194     15195     15194     15196     15194     15197
     15188     15189     15189     15191     15189     15190     15191     15192
     15191     15193     15191     15203     15203     15204     15203     15205
     15203     15206     15206     15207     15206     15208     15206     15209
     15209     15210     15209     15211     15209     15212     15212     15213
     15212     15214     15212     15215     15215     15216     15215     15217
     15215     15218     15218     15219     15218     15220     15218     15221
     15221     15222     15221     15223     15223     15224     15223     15225
     15225     15226     15225     15227     15225     15228     15228     15229
     15228     15230     15228     15231     15231     15232     15231     15233
     15231     15234     15234     15235     15234     15236     15234     15237
     15237     15238     15237     15239     15237     15240     15240     15241
     15240     15242     15240     15243     15243     15244     15243     15245
     15243     15246     15246     15247     15246     15248     15246     15249
     15197     15198     15198     15200     15198     15199     15200     15201
     15200     15202     15200     15250     15250     15251     15250     15252
     15250     15253     15253     15254     15253     15255     15253     15256
     15256     15257     15256     15258     15256     15259     15259     15260
     15259     15261     15259     15262     15262     15263     15262     15264
     15262     15265     15265     15266     15265     15267     15265     15268
     15268     15269     15268     15270     15268     15271     15271     15272
     15271     15273     15271     15274     15274     15275     15274     15276
     15274     15277     15277     15278     15277     15279     15277     15280
     15280     15281     15280     15282     15280     15283     15283     15284
     15283     15285     15283     15286     15286     15287     15286     15288
     15286     15289     15289     15290     15289     15291     15289     15292
     15293     15297     15293     15301     15293     15305     15297     15298
     15297     15299     15297     15300     15301     15302     15301     15303
     15301     15304     15305     15306     15305     15307     15305     15308
     15293     15294     15294     15295     15294     15296     15294     15309
     15309     15310     15309     15311     15309     15315     15316     15317
     15315     15312     15312     15316     15312     15313     15312     15314
     15317     15318     15317     15319     15317     15320     15320     15321
     15320     15328     15320     15322     15328     15329     15328     15330
     15328     15331     15322     15323     15323     15325     15323     15324
     15325     15326     15325     15327     15325     15337     15337     15338
     15337     15339     15337     15340     15340     15341     15340     15342
     15340     15343     15343     15344     15343     15345     15343     15346
     15346     15347     15346     15348     15346     15349     15349     15350
     15349     15351     15349     15352     15352     15353     15352     15354
     15352     15355     15355     15356     15355     15357     15357     15358
     15357     15359     15359     15360     15359     15361     15359     15362
     15362     15363     15362     15364     15362     15365     15365     15366
     15365     15367     15365     15368     15368     15369     15368     15370
     15368     15371     15371     15372     15371     15373     15371     15374
     15374     15375     15374     15376     15374     15377     15377     15378
     15377     15379     15377     15380     15380     15381     15380     15382
     15380     15383     15331     15332     15332     15334     15332     15333
     15334     15335     15334     15336     15334     15384     15384     15385
     15384     15386     15384     15387     15387     15388     15387     15389
     15387     15390     15390     15391     15390     15392     15390     15393
     15393     15394     15393     15395     15393     15396     15396     15397
     15396     15398     15396     15399     15399     15400     15399     15401
     15399     15402     15402     15403     15402     15404     15402     15405
     15405     15406     15405     15407     15405     15408     15408     15409
     15408     15410     15408     15411     15411     15412     15411     15413
     15411     15414     15414     15415     15414     15416     15414     15417
     15417     15418     15417     15419     15417     15420     15420     15421
     15420     15422     15420     15423     15423     15424     15423     15425
     15423     15426     15427     15431     15427     15435     15427     15439
     15431     15432     15431     15433     15431     15434     15435     15436
     15435     15437     15435     15438     15439     15440     15439     15441
     15439     15442     15427     15428     15428     15429     15428     15430
     15428     15443     15443     15444     15443     15445     15443     15449
     15450     15451     15449     15446     15446     15450     15446     15447
     15446     15448     15451     15452     15451     15453     15451     15454
     15454     15455     15454     15462     15454     15456     15462     15463
     15462     15464     15462     15465     15456     15457     15457     15459
     15457     15458     15459     15460     15459     15461     15459     15471
     15471     15472     15471     15473     15471     15474     15474     15475
     15474     15476     15474     15477     15477     15478     15477     15479
     15477     15480     15480     15481     15480     15482     15480     15483
     15483     15484     15483     15485     15483     15486     15486     15487
     15486     15488     15486     15489     15489     15490     15489     15491
     15491     15492     15491     15493     15493     15494     15493     15495
     15493     15496     15496     15497     15496     15498     15496     15499
     15499     15500     15499     15501     15499     15502     15502     15503
     15502     15504     15502     15505     15505     15506     15505     15507
     15505     15508     15508     15509     15508     15510     15508     15511
     15511     15512     15511     15513     15511     15514     15514     15515
     15514     15516     15514     15517     15465     15466     15466     15468
     15466     15467     15468     15469     15468     15470     15468     15518
     15518     15519     15518     15520     15518     15521     15521     15522
     15521     15523     15521     15524     15524     15525     15524     15526
     15524     15527     15527     15528     15527     15529     15527     15530
     15530     15531     15530     15532     15530     15533     15533     15534
     15533     15535     15533     15536     15536     15537     15536     15538
     15536     15539     15539     15540     15539     15541     15539     15542
     15542     15543     15542     15544     15542     15545     15545     15546
     15545     15547     15545     15548     15548     15549     15548     15550
     15548     15551     15551     15552     15551     15553     15551     15554
     15554     15555     15554     15556     15554     15557     15557     15558
     15557     15559     15557     15560     15561     15565     15561     15569
     15561     15573     15565     15566     15565     15567     15565     15568
     15569     15570     15569     15571     15569     15572     15573     15574
     15573     15575     15573     15576     15561     15562     15562     15563
     15562     15564     15562     15577     15577     15578     15577     15579
     15577     15583     15584     15585     15583     15580     15580     15584
     15580     15581     15580     15582     15585     15586     15585     15587
     15585     15588     15588     15589     15588     15596     15588     15590
     15596     15597     15596     15598     15596     15599     15590     15591
     15591     15593     15591     15592     15593     15594     15593     15595
     15593     15605     15605     15606     15605     15607     15605     15608
     15608     15609     15608     15610     15608     15611     15611     15612
     15611     15613     15611     15614     15614     15615     15614     15616
     15614     15617     15617     15618     15617     15619     15617     15620
     15620     15621     15620     15622     15620     15623     15623     15624
     15623     15625     15625     15626     15625     15627     15627     15628
     15627     15629     15627     15630     15630     15631     15630     15632
     15630     15633     15633     15634     15633     15635     15633     15636
     15636     15637     15636     15638     15636     15639     15639     15640
     15639     15641     15639     15642     15642     15643     15642     15644
     15642     15645     15645     15646     15645     15647     15645     15648
     15648     15649     15648     15650     15648     15651     15599     15600
     15600     15602     15600     15601     15602     15603     15602     15604
     15602     15652     15652     15653     15652     15654     15652     15655
     15655     15656     15655     15657     15655     15658     15658     15659
     15658     15660     15658     15661     15661     15662     15661     15663
     15661     15664     15664     15665     15664     15666     15664     15667
     15667     15668     15667     15669     15667     15670     15670     15671
     15670     15672     15670     15673     15673     15674     15673     15675
     15673     15676     15676     15677     15676     15678     15676     15679
     15679     15680     15679     15681     15679     15682     15682     15683
     15682     15684     15682     15685     15685     15686     15685     15687
     15685     15688     15688     15689     15688     15690     15688     15691
     15691     15692     15691     15693     15691     15694     15695     15699
     15695     15703     15695     15707     15699     15700     15699     15701
     15699     15702     15703     15704     15703     15705     15703     15706
     15707     15708     15707     15709     15707     15710     15695     15696
     15696     15697     15696     15698     15696     15711     15711     15712
     15711     15713     15711     15717     15718     15719     15717     15714
     15714     15718     15714     15715     15714     15716     15719     15720
     15719     15721     15719     15722     15722     15723     15722     15730
     15722     15724     15730     15731     15730     15732     15730     15733
     15724     15725     15725     15727     15725     15726     15727     15728
     15727     15729     15727     15739     15739     15740     15739     15741
     15739     15742     15742     15743     15742     15744     15742     15745
     15745     15746     15745     15747     15745     15748     15748     15749
     15748     15750     15748     15751     15751     15752     15751     15753
     15751     15754     15754     15755     15754     15756     15754     15757
     15757     15758     15757     15759     15759     15760     15759     15761
     15761     15762     15761     15763     15761     15764     15764     15765
     15764     15766     15764     15767     15767     15768     15767     15769
     15767     15770     15770     15771     15770     15772     15770     15773
     15773     15774     15773     15775     15773     15776     15776     15777
     15776     15778     15776     15779     15779     15780     15779     15781
     15779     15782     15782     15783     15782     15784     15782     15785
     15733     15734     15734     15736     15734     15735     15736     15737
     15736     15738     15736     15786     15786     15787     15786     15788
     15786     15789     15789     15790     15789     15791     15789     15792
     15792     15793     15792     15794     15792     15795     15795     15796
     15795     15797     15795     15798     15798     15799     15798     15800
     15798     15801     15801     15802     15801     15803     15801     15804
     15804     15805     15804     15806     15804     15807     15807     15808
     15807     15809     15807     15810     15810     15811     15810     15812
     15810     15813     15813     15814     15813     15815     15813     15816
     15816     15817     15816     15818     15816     15819     15819     15820
     15819     15821     15819     15822     15822     15823     15822     15824
     15822     15825     15825     15826     15825     15827     15825     15828
     15829     15833     15829     15837     15829     15841     15833     15834
     15833     15835     15833     15836     15837     15838     15837     15839
     15837     15840     15841     15842     15841     15843     15841     15844
     15829     15830     15830     15831     15830     15832     15830     15845
     15845     15846     15845     15847     15845     15851     15852     15853
     15851     15848     15848     15852     15848     15849     15848     15850
     15853     15854     15853     15855     15853     15856     15856     15857
     15856     15864     15856     15858     15864     15865     15864     15866
     15864     15867     15858     15859     15859     15861     15859     15860
     15861     15862     15861     15863     15861     15873     15873     15874
     15873     15875     15873     15876     15876     15877     15876     15878
     15876     15879     15879     15880     15879     15881     15879     15882
     15882     15883     15882     15884     15882     15885     15885     15886
     15885     15887     15885     15888     15888     15889     15888     15890
     15888     15891     15891     15892     15891     15893     15893     15894
     15893     15895     15895     15896     15895     15897     15895     15898
     15898     15899     15898     15900     15898     15901     15901     15902
     15901     15903     15901     15904     15904     15905     15904     15906
     15904     15907     15907     15908     15907     15909     15907     15910
     15910     15911     15910     15912     15910     15913     15913     15914
     15913     15915     15913     15916     15916     15917     15916     15918
     15916     15919     15867     15868     15868     15870     15868     15869
     15870     15871     15870     15872     15870     15920     15920     15921
     15920     15922     15920     15923     15923     15924     15923     15925
     15923     15926     15926     15927     15926     15928     15926     15929
     15929     15930     15929     15931     15929     15932     15932     15933
     15932     15934     15932     15935     15935     15936     15935     15937
     15935     15938     15938     15939     15938     15940     15938     15941
     15941     15942     15941     15943     15941     15944     15944     15945
     15944     15946     15944     15947     15947     15948     15947     15949
     15947     15950     15950     15951     15950     15952     15950     15953
     15953     15954     15953     15955     15953     15956     15956     15957
     15956     15958     15956     15959     15959     15960     15959     15961
     15959     15962     15963     15967     15963     15971     15963     15975
     15967     15968     15967     15969     15967     15970     15971     15972
     15971     15973     15971     15974     15975     15976     15975     15977
     15975     15978     15963     15964     15964     15965     15964     15966
     15964     15979     15979     15980     15979     15981     15979     15985
     15986     15987     15985     15982     15982     15986     15982     15983
     15982     15984     15987     15988     15987     15989     15987     15990
     15990     15991     15990     15998     15990     15992     15998     15999
     15998     16000     15998     16001     15992     15993     15993     15995
     15993     15994     15995     15996     15995     15997     15995     16007
     16007     16008     16007     16009     16007     16010     16010     16011
     16010     16012     16010     16013     16013     16014     16013     16015
     16013     16016     16016     16017     16016     16018     16016     16019
     16019     16020     16019     16021     16019     16022     16022     16023
     16022     16024     16022     16025     16025     16026     16025     16027
     16027     16028     16027     16029     16029     16030     16029     16031
     16029     16032     16032     16033     16032     16034     16032     16035
     16035     16036     16035     16037     16035     16038     16038     16039
     16038     16040     16038     16041     16041     16042     16041     16043
     16041     16044     16044     16045     16044     16046     16044     16047
     16047     16048     16047     16049     16047     16050     16050     16051
     16050     16052     16050     16053     16001     16002     16002     16004
     16002     16003     16004     16005     16004     16006     16004     16054
     16054     16055     16054     16056     16054     16057     16057     16058
     16057     16059     16057     16060     16060     16061     16060     16062
     16060     16063     16063     16064     16063     16065     16063     16066
     16066     16067     16066     16068     16066     16069     16069     16070
     16069     16071     16069     16072     16072     16073     16072     16074
     16072     16075     16075     16076     16075     16077     16075     16078
     16078     16079     16078     16080     16078     16081     16081     16082
     16081     16083     16081     16084     16084     16085     16084     16086
     16084     16087     16087     16088     16087     16089     16087     16090
     16090     16091     16090     16092     16090     16093     16093     16094
     16093     16095     16093     16096     16097     16101     16097     16105
     16097     16109     16101     16102     16101     16103     16101     16104
     16105     16106     16105     16107     16105     16108     16109     16110
     16109     16111     16109     16112     16097     16098     16098     16099
     16098     16100     16098     16113     16113     16114     16113     16115
     16113     16119     16120     16121     16119     16116     16116     16120
     16116     16117     16116     16118     16121     16122     16121     16123
     16121     16124     16124     16125     16124     16132     16124     16126
     16132     16133     16132     16134     16132     16135     16126     16127
     16127     16129     16127     16128     16129     16130     16129     16131
     16129     16141     16141     16142     16141     16143     16141     16144
     16144     16145     16144     16146     16144     16147     16147     16148
     16147     16149     16147     16150     16150     16151     16150     16152
     16150     16153     16153     16154     16153     16155     16153     16156
     16156     16157     16156     16158     16156     16159     16159     16160
     16159     16161     16161     16162     16161     16163     16163     16164
     16163     16165     16163     16166     16166     16167     16166     16168
     16166     16169     16169     16170     16169     16171     16169     16172
     16172     16173     16172     16174     16172     16175     16175     16176
     16175     16177     16175     16178     16178     16179     16178     16180
     16178     16181     16181     16182     16181     16183     16181     16184
     16184     16185     16184     16186     16184     16187     16135     16136
     16136     16138     16136     16137     16138     16139     16138     16140
     16138     16188     16188     16189     16188     16190     16188     16191
     16191     16192     16191     16193     16191     16194     16194     16195
     16194     16196     16194     16197     16197     16198     16197     16199
     16197     16200     16200     16201     16200     16202     16200     16203
     16203     16204     16203     16205     16203     16206     16206     16207
     16206     16208     16206     16209     16209     16210     16209     16211
     16209     16212     16212     16213     16212     16214     16212     16215
     16215     16216     16215     16217     16215     16218     16218     16219
     16218     16220     16218     16221     16221     16222     16221     16223
     16221     16224     16224     16225     16224     16226     16224     16227
     16227     16228     16227     16229     16227     16230     16231     16235
     16231     16239     16231     16243     16235     16236     16235     16237
     16235     16238     16239     16240     16239     16241     16239     16242
     16243     16244     16243     16245     16243     16246     16231     16232
     16232     16233     16232     16234     16232     16247     16247     16248
     16247     16249     16247     16253     16254     16255     16253     16250
     16250     16254     16250     16251     16250     16252     16255     16256
     16255     16257     16255     16258     16258     16259     16258     16266
     16258     16260     16266     16267     16266     16268     16266     16269
     16260     16261     16261     16263     16261     16262     16263     16264
     16263     16265     16263     16275     16275     16276     16275     16277
     16275     16278     16278     16279     16278     16280     16278     16281
     16281     16282     16281     16283     16281     16284     16284     16285
     16284     16286     16284     16287     16287     16288     16287     16289
     16287     16290     16290     16291     16290     16292     16290     16293
     16293     16294     16293     16295     16295     16296     16295     16297
     16297     16298     16297     16299     16297     16300     16300     16301
     16300     16302     16300     16303     16303     16304     16303     16305
     16303     16306     16306     16307     16306     16308     16306     16309
     16309     16310     16309     16311     16309     16312     16312     16313
     16312     16314     16312     16315     16315     16316     16315     16317
     16315     16318     16318     16319     16318     16320     16318     16321
     16269     16270     16270     16272     16270     16271     16272     16273
     16272     16274     16272     16322     16322     16323     16322     16324
     16322     16325     16325     16326     16325     16327     16325     16328
     16328     16329     16328     16330     16328     16331     16331     16332
     16331     16333     16331     16334     16334     16335     16334     16336
     16334     16337     16337     16338     16337     16339     16337     16340
     16340     16341     16340     16342     16340     16343     16343     16344
     16343     16345     16343     16346     16346     16347     16346     16348
     16346     16349     16349     16350     16349     16351     16349     16352
     16352     16353     16352     16354     16352     16355     16355     16356
     16355     16357     16355     16358     16358     16359     16358     16360
     16358     16361     16361     16362     16361     16363     16361     16364
     16365     16369     16365     16373     16365     16377     16369     16370
     16369     16371     16369     16372     16373     16374     16373     16375
     16373     16376     16377     16378     16377     16379     16377     16380
     16365     16366     16366     16367     16366     16368     16366     16381
     16381     16382     16381     16383     16381     16387     16388     16389
     16387     16384     16384     16388     16384     16385     16384     16386
     16389     16390     16389     16391     16389     16392     16392     16393
     16392     16400     16392     16394     16400     16401     16400     16402
     16400     16403     16394     16395     16395     16397     16395     16396
     16397     16398     16397     16399     16397     16409     16409     16410
     16409     16411     16409     16412     16412     16413     16412     16414
     16412     16415     16415     16416     16415     16417     16415     16418
     16418     16419     16418     16420     16418     16421     16421     16422
     16421     16423     16421     16424     16424     16425     16424     16426
     16424     16427     16427     16428     16427     16429     16429     16430
     16429     16431     16431     16432     16431     16433     16431     16434
     16434     16435     16434     16436     16434     16437     16437     16438
     16437     16439     16437     16440     16440     16441     16440     16442
     16440     16443     16443     16444     16443     16445     16443     16446
     16446     16447     16446     16448     16446     16449     16449     16450
     16449     16451     16449     16452     16452     16453     16452     16454
     16452     16455     16403     16404     16404     16406     16404     16405
     16406     16407     16406     16408     16406     16456     16456     16457
     16456     16458     16456     16459     16459     16460     16459     16461
     16459     16462     16462     16463     16462     16464     16462     16465
     16465     16466     16465     16467     16465     16468     16468     16469
     16468     16470     16468     16471     16471     16472     16471     16473
     16471     16474     16474     16475     16474     16476     16474     16477
     16477     16478     16477     16479     16477     16480     16480     16481
     16480     16482     16480     16483     16483     16484     16483     16485
     16483     16486     16486     16487     16486     16488     16486     16489
     16489     16490     16489     16491     16489     16492     16492     16493
     16492     16494     16492     16495     16495     16496     16495     16497
     16495     16498     16499     16503     16499     16507     16499     16511
     16503     16504     16503     16505     16503     16506     16507     16508
     16507     16509     16507     16510     16511     16512     16511     16513
     16511     16514     16499     16500     16500     16501     16500     16502
     16500     16515     16515     16516     16515     16517     16515     16521
     16522     16523     16521     16518     16518     16522     16518     16519
     16518     16520     16523     16524     16523     16525     16523     16526
     16526     16527     16526     16534     16526     16528     16534     16535
     16534     16536     16534     16537     16528     16529     16529     16531
     16529     16530     16531     16532     16531     16533     16531     16543
     16543     16544     16543     16545     16543     16546     16546     16547
     16546     16548     16546     16549     16549     16550     16549     16551
     16549     16552     16552     16553     16552     16554     16552     16555
     16555     16556     16555     16557     16555     16558     16558     16559
     16558     16560     16558     16561     16561     16562     16561     16563
     16563     16564     16563     16565     16565     16566     16565     16567
     16565     16568     16568     16569     16568     16570     16568     16571
     16571     16572     16571     16573     16571     16574     16574     16575
     16574     16576     16574     16577     16577     16578     16577     16579
     16577     16580     16580     16581     16580     16582     16580     16583
     16583     16584     16583     16585     16583     16586     16586     16587
     16586     16588     16586     16589     16537     16538     16538     16540
     16538     16539     16540     16541     16540     16542     16540     16590
     16590     16591     16590     16592     16590     16593     16593     16594
     16593     16595     16593     16596     16596     16597     16596     16598
     16596     16599     16599     16600     16599     16601     16599     16602
     16602     16603     16602     16604     16602     16605     16605     16606
     16605     16607     16605     16608     16608     16609     16608     16610
     16608     16611     16611     16612     16611     16613     16611     16614
     16614     16615     16614     16616     16614     16617     16617     16618
     16617     16619     16617     16620     16620     16621     16620     16622
     16620     16623     16623     16624     16623     16625     16623     16626
     16626     16627     16626     16628     16626     16629     16629     16630
     16629     16631     16629     16632     16633     16637     16633     16641
     16633     16645     16637     16638     16637     16639     16637     16640
     16641     16642     16641     16643     16641     16644     16645     16646
     16645     16647     16645     16648     16633     16634     16634     16635
     16634     16636     16634     16649     16649     16650     16649     16651
     16649     16655     16656     16657     16655     16652     16652     16656
     16652     16653     16652     16654     16657     16658     16657     16659
     16657     16660     16660     16661     16660     16668     16660     16662
     16668     16669     16668     16670     16668     16671     16662     16663
     16663     16665     16663     16664     16665     16666     16665     16667
     16665     16677     16677     16678     16677     16679     16677     16680
     16680     16681     16680     16682     16680     16683     16683     16684
     16683     16685     16683     16686     16686     16687     16686     16688
     16686     16689     16689     16690     16689     16691     16689     16692
     16692     16693     16692     16694     16692     16695     16695     16696
     16695     16697     16697     16698     16697     16699     16699     16700
     16699     16701     16699     16702     16702     16703     16702     16704
     16702     16705     16705     16706     16705     16707     16705     16708
     16708     16709     16708     16710     16708     16711     16711     16712
     16711     16713     16711     16714     16714     16715     16714     16716
     16714     16717     16717     16718     16717     16719     16717     16720
     16720     16721     16720     16722     16720     16723     16671     16672
     16672     16674     16672     16673     16674     16675     16674     16676
     16674     16724     16724     16725     16724     16726     16724     16727
     16727     16728     16727     16729     16727     16730     16730     16731
     16730     16732     16730     16733     16733     16734     16733     16735
     16733     16736     16736     16737     16736     16738     16736     16739
     16739     16740     16739     16741     16739     16742     16742     16743
     16742     16744     16742     16745     16745     16746     16745     16747
     16745     16748     16748     16749     16748     16750     16748     16751
     16751     16752     16751     16753     16751     16754     16754     16755
     16754     16756     16754     16757     16757     16758     16757     16759
     16757     16760     16760     16761     16760     16762     16760     16763
     16763     16764     16763     16765     16763     16766     16767     16771
     16767     16775     16767     16779     16771     16772     16771     16773
     16771     16774     16775     16776     16775     16777     16775     16778
     16779     16780     16779     16781     16779     16782     16767     16768
     16768     16769     16768     16770     16768     16783     16783     16784
     16783     16785     16783     16789     16790     16791     16789     16786
     16786     16790     16786     16787     16786     16788     16791     16792
     16791     16793     16791     16794     16794     16795     16794     16802
     16794     16796     16802     16803     16802     16804     16802     16805
     16796     16797     16797     16799     16797     16798     16799     16800
     16799     16801     16799     16811     16811     16812     16811     16813
     16811     16814     16814     16815     16814     16816     16814     16817
     16817     16818     16817     16819     16817     16820     16820     16821
     16820     16822     16820     16823     16823     16824     16823     16825
     16823     16826     16826     16827     16826     16828     16826     16829
     16829     16830     16829     16831     16831     16832     16831     16833
     16833     16834     16833     16835     16833     16836     16836     16837
     16836     16838     16836     16839     16839     16840     16839     16841
     16839     16842     16842     16843     16842     16844     16842     16845
     16845     16846     16845     16847     16845     16848     16848     16849
     16848     16850     16848     16851     16851     16852     16851     16853
     16851     16854     16854     16855     16854     16856     16854     16857
     16805     16806     16806     16808     16806     16807     16808     16809
     16808     16810     16808     16858     16858     16859     16858     16860
     16858     16861     16861     16862     16861     16863     16861     16864
     16864     16865     16864     16866     16864     16867     16867     16868
     16867     16869     16867     16870     16870     16871     16870     16872
     16870     16873     16873     16874     16873     16875     16873     16876
     16876     16877     16876     16878     16876     16879     16879     16880
     16879     16881     16879     16882     16882     16883     16882     16884
     16882     16885     16885     16886     16885     16887     16885     16888
     16888     16889     16888     16890     16888     16891     16891     16892
     16891     16893     16891     16894     16894     16895     16894     16896
     16894     16897     16897     16898     16897     16899     16897     16900
     16901     16905     16901     16909     16901     16913     16905     16906
     16905     16907     16905     16908     16909     16910     16909     16911
     16909     16912     16913     16914     16913     16915     16913     16916
     16901     16902     16902     16903     16902     16904     16902     16917
     16917     16918     16917     16919     16917     16923     16924     16925
     16923     16920     16920     16924     16920     16921     16920     16922
     16925     16926     16925     16927     16925     16928     16928     16929
     16928     16936     16928     16930     16936     16937     16936     16938
     16936     16939     16930     16931     16931     16933     16931     16932
     16933     16934     16933     16935     16933     16945     16945     16946
     16945     16947     16945     16948     16948     16949     16948     16950
     16948     16951     16951     16952     16951     16953     16951     16954
     16954     16955     16954     16956     16954     16957     16957     16958
     16957     16959     16957     16960     16960     16961     16960     16962
     16960     16963     16963     16964     16963     16965     16965     16966
     16965     16967     16967     16968     16967     16969     16967     16970
     16970     16971     16970     16972     16970     16973     16973     16974
     16973     16975     16973     16976     16976     16977     16976     16978
     16976     16979     16979     16980     16979     16981     16979     16982
     16982     16983     16982     16984     16982     16985     16985     16986
     16985     16987     16985     16988     16988     16989     16988     16990
     16988     16991     16939     16940     16940     16942     16940     16941
     16942     16943     16942     16944     16942     16992     16992     16993
     16992     16994     16992     16995     16995     16996     16995     16997
     16995     16998     16998     16999     16998     17000     16998     17001
     17001     17002     17001     17003     17001     17004     17004     17005
     17004     17006     17004     17007     17007     17008     17007     17009
     17007     17010     17010     17011     17010     17012     17010     17013
     17013     17014     17013     17015     17013     17016     17016     17017
     17016     17018     17016     17019     17019     17020     17019     17021
     17019     17022     17022     17023     17022     17024     17022     17025
     17025     17026     17025     17027     17025     17028     17028     17029
     17028     17030     17028     17031     17031     17032     17031     17033
     17031     17034     17035     17039     17035     17043     17035     17047
     17039     17040     17039     17041     17039     17042     17043     17044
     17043     17045     17043     17046     17047     17048     17047     17049
     17047     17050     17035     17036     17036     17037     17036     17038
     17036     17051     17051     17052     17051     17053     17051     17057
     17058     17059     17057     17054     17054     17058     17054     17055
     17054     17056     17059     17060     17059     17061     17059     17062
     17062     17063     17062     17070     17062     17064     17070     17071
     17070     17072     17070     17073     17064     17065     17065     17067
     17065     17066     17067     17068     17067     17069     17067     17079
     17079     17080     17079     17081     17079     17082     17082     17083
     17082     17084     17082     17085     17085     17086     17085     17087
     17085     17088     17088     17089     17088     17090     17088     17091
     17091     17092     17091     17093     17091     17094     17094     17095
     17094     17096     17094     17097     17097     17098     17097     17099
     17099     17100     17099     17101     17101     17102     17101     17103
     17101     17104     17104     17105     17104     17106     17104     17107
     17107     17108     17107     17109     17107     17110     17110     17111
     17110     17112     17110     17113     17113     17114     17113     17115
     17113     17116     17116     17117     17116     17118     17116     17119
     17119     17120     17119     17121     17119     17122     17122     17123
     17122     17124     17122     17125     17073     17074     17074     17076
     17074     17075     17076     17077     17076     17078     17076     17126
     17126     17127     17126     17128     17126     17129     17129     17130
     17129     17131     17129     17132     17132     17133     17132     17134
     17132     17135     17135     17136     17135     17137     17135     17138
     17138     17139     17138     17140     17138     17141     17141     17142
     17141     17143     17141     17144     17144     17145     17144     17146
     17144     17147     17147     17148     17147     17149     17147     17150
     17150     17151     17150     17152     17150     17153     17153     17154
     17153     17155     17153     17156     17156     17157     17156     17158
     17156     17159     17159     17160     17159     17161     17159     17162
     17162     17163     17162     17164     17162     17165     17165     17166
     17165     17167     17165     17168     17169     17173     17169     17177
     17169     17181     17173     17174     17173     17175     17173     17176
     17177     17178     17177     17179     17177     17180     17181     17182
     17181     17183     17181     17184     17169     17170     17170     17171
     17170     17172     17170     17185     17185     17186     17185     17187
     17185     17191     17192     17193     17191     17188     17188     17192
     17188     17189     17188     17190     17193     17194     17193     17195
     17193     17196     17196     17197     17196     17204     17196     17198
     17204     17205     17204     17206     17204     17207     17198     17199
     17199     17201     17199     17200     17201     17202     17201     17203
     17201     17213     17213     17214     17213     17215     17213     17216
     17216     17217     17216     17218     17216     17219     17219     17220
     17219     17221     17219     17222     17222     17223     17222     17224
     17222     17225     17225     17226     17225     17227     17225     17228
     17228     17229     17228     17230     17228     17231     17231     17232
     17231     17233     17233     17234     17233     17235     17235     17236
     17235     17237     17235     17238     17238     17239     17238     17240
     17238     17241     17241     17242     17241     17243     17241     17244
     17244     17245     17244     17246     17244     17247     17247     17248
     17247     17249     17247     17250     17250     17251     17250     17252
     17250     17253     17253     17254     17253     17255     17253     17256
     17256     17257     17256     17258     17256     17259     17207     17208
     17208     17210     17208     17209     17210     17211     17210     17212
     17210     17260     17260     17261     17260     17262     17260     17263
     17263     17264     17263     17265     17263     17266     17266     17267
     17266     17268     17266     17269     17269     17270     17269     17271
     17269     17272     17272     17273     17272     17274     17272     17275
     17275     17276     17275     17277     17275     17278     17278     17279
     17278     17280     17278     17281     17281     17282     17281     17283
     17281     17284     17284     17285     17284     17286     17284     17287
     17287     17288     17287     17289     17287     17290     17290     17291
     17290     17292     17290     17293     17293     17294     17293     17295
     17293     17296     17296     17297     17296     17298     17296     17299
     17299     17300     17299     17301     17299     17302     17303     17307
     17303     17311     17303     17315     17307     17308     17307     17309
     17307     17310     17311     17312     17311     17313     17311     17314
     17315     17316     17315     17317     17315     17318     17303     17304
     17304     17305     17304     17306     17304     17319     17319     17320
     17319     17321     17319     17325     17326     17327     17325     17322
     17322     17326     17322     17323     17322     17324     17327     17328
     17327     17329     17327     17330     17330     17331     17330     17338
     17330     17332     17338     17339     17338     17340     17338     17341
     17332     17333     17333     17335     17333     17334     17335     17336
     17335     17337     17335     17347     17347     17348     17347     17349
     17347     17350     17350     17351     17350     17352     17350     17353
     17353     17354     17353     17355     17353     17356     17356     17357
     17356     17358     17356     17359     17359     17360     17359     17361
     17359     17362     17362     17363     17362     17364     17362     17365
     17365     17366     17365     17367     17367     17368     17367     17369
     17369     17370     17369     17371     17369     17372     17372     17373
     17372     17374     17372     17375     17375     17376     17375     17377
     17375     17378     17378     17379     17378     17380     17378     17381
     17381     17382     17381     17383     17381     17384     17384     17385
     17384     17386     17384     17387     17387     17388     17387     17389
     17387     17390     17390     17391     17390     17392     17390     17393
     17341     17342     17342     17344     17342     17343     17344     17345
     17344     17346     17344     17394     17394     17395     17394     17396
     17394     17397     17397     17398     17397     17399     17397     17400
     17400     17401     17400     17402     17400     17403     17403     17404
     17403     17405     17403     17406     17406     17407     17406     17408
     17406     17409     17409     17410     17409     17411     17409     17412
     17412     17413     17412     17414     17412     17415     17415     17416
     17415     17417     17415     17418     17418     17419     17418     17420
     17418     17421     17421     17422     17421     17423     17421     17424
     17424     17425     17424     17426     17424     17427     17427     17428
     17427     17429     17427     17430     17430     17431     17430     17432
     17430     17433     17433     17434     17433     17435     17433     17436
     17437     17441     17437     17445     17437     17449     17441     17442
     17441     17443     17441     17444     17445     17446     17445     17447
     17445     17448     17449     17450     17449     17451     17449     17452
     17437     17438     17438     17439     17438     17440     17438     17453
     17453     17454     17453     17455     17453     17459     17460     17461
     17459     17456     17456     17460     17456     17457     17456     17458
     17461     17462     17461     17463     17461     17464     17464     17465
     17464     17472     17464     17466     17472     17473     17472     17474
     17472     17475     17466     17467     17467     17469     17467     17468
     17469     17470     17469     17471     17469     17481     17481     17482
     17481     17483     17481     17484     17484     17485     17484     17486
     17484     17487     17487     17488     17487     17489     17487     17490
     17490     17491     17490     17492     17490     17493     17493     17494
     17493     17495     17493     17496     17496     17497     17496     17498
     17496     17499     17499     17500     17499     17501     17501     17502
     17501     17503     17503     17504     17503     17505     17503     17506
     17506     17507     17506     17508     17506     17509     17509     17510
     17509     17511     17509     17512     17512     17513     17512     17514
     17512     17515     17515     17516     17515     17517     17515     17518
     17518     17519     17518     17520     17518     17521     17521     17522
     17521     17523     17521     17524     17524     17525     17524     17526
     17524     17527     17475     17476     17476     17478     17476     17477
     17478     17479     17478     17480     17478     17528     17528     17529
     17528     17530     17528     17531     17531     17532     17531     17533
     17531     17534     17534     17535     17534     17536     17534     17537
     17537     17538     17537     17539     17537     17540     17540     17541
     17540     17542     17540     17543     17543     17544     17543     17545
     17543     17546     17546     17547     17546     17548     17546     17549
     17549     17550     17549     17551     17549     17552     17552     17553
     17552     17554     17552     17555     17555     17556     17555     17557
     17555     17558     17558     17559     17558     17560     17558     17561
     17561     17562     17561     17563     17561     17564     17564     17565
     17564     17566     17564     17567     17567     17568     17567     17569
     17567     17570     17571     17575     17571     17579     17571     17583
     17575     17576     17575     17577     17575     17578     17579     17580
     17579     17581     17579     17582     17583     17584     17583     17585
     17583     17586     17571     17572     17572     17573     17572     17574
     17572     17587     17587     17588     17587     17589     17587     17593
     17594     17595     17593     17590     17590     17594     17590     17591
     17590     17592     17595     17596     17595     17597     17595     17598
     17598     17599     17598     17606     17598     17600     17606     17607
     17606     17608     17606     17609     17600     17601     17601     17603
     17601     17602     17603     17604     17603     17605     17603     17615
     17615     17616     17615     17617     17615     17618     17618     17619
     17618     17620     17618     17621     17621     17622     17621     17623
     17621     17624     17624     17625     17624     17626     17624     17627
     17627     17628     17627     17629     17627     17630     17630     17631
     17630     17632     17630     17633     17633     17634     17633     17635
     17635     17636     17635     17637     17637     17638     17637     17639
     17637     17640     17640     17641     17640     17642     17640     17643
     17643     17644     17643     17645     17643     17646     17646     17647
     17646     17648     17646     17649     17649     17650     17649     17651
     17649     17652     17652     17653     17652     17654     17652     17655
     17655     17656     17655     17657     17655     17658     17658     17659
     17658     17660     17658     17661     17609     17610     17610     17612
     17610     17611     17612     17613     17612     17614     17612     17662
     17662     17663     17662     17664     17662     17665     17665     17666
     17665     17667     17665     17668     17668     17669     17668     17670
     17668     17671     17671     17672     17671     17673     17671     17674
     17674     17675     17674     17676     17674     17677     17677     17678
     17677     17679     17677     17680     17680     17681     17680     17682
     17680     17683     17683     17684     17683     17685     17683     17686
     17686     17687     17686     17688     17686     17689     17689     17690
     17689     17691     17689     17692     17692     17693     17692     17694
     17692     17695     17695     17696     17695     17697     17695     17698
     17698     17699     17698     17700     17698     17701     17701     17702
     17701     17703     17701     17704     17705     17709     17705     17713
     17705     17717     17709     17710     17709     17711     17709     17712
     17713     17714     17713     17715     17713     17716     17717     17718
     17717     17719     17717     17720     17705     17706     17706     17707
     17706     17708     17706     17721     17721     17722     17721     17723
     17721     17727     17728     17729     17727     17724     17724     17728
     17724     17725     17724     17726     17729     17730     17729     17731
     17729     17732     17732     17733     17732     17740     17732     17734
     17740     17741     17740     17742     17740     17743     17734     17735
     17735     17737     17735     17736     17737     17738     17737     17739
     17737     17749     17749     17750     17749     17751     17749     17752
     17752     17753     17752     17754     17752     17755     17755     17756
     17755     17757     17755     17758     17758     17759     17758     17760
     17758     17761     17761     17762     17761     17763     17761     17764
     17764     17765     17764     17766     17764     17767     17767     17768
     17767     17769     17769     17770     17769     17771     17771     17772
     17771     17773     17771     17774     17774     17775     17774     17776
     17774     17777     17777     17778     17777     17779     17777     17780
     17780     17781     17780     17782     17780     17783     17783     17784
     17783     17785     17783     17786     17786     17787     17786     17788
     17786     17789     17789     17790     17789     17791     17789     17792
     17792     17793     17792     17794     17792     17795     17743     17744
     17744     17746     17744     17745     17746     17747     17746     17748
     17746     17796     17796     17797     17796     17798     17796     17799
     17799     17800     17799     17801     17799     17802     17802     17803
     17802     17804     17802     17805     17805     17806     17805     17807
     17805     17808     17808     17809     17808     17810     17808     17811
     17811     17812     17811     17813     17811     17814     17814     17815
     17814     17816     17814     17817     17817     17818     17817     17819
     17817     17820     17820     17821     17820     17822     17820     17823
     17823     17824     17823     17825     17823     17826     17826     17827
     17826     17828     17826     17829     17829     17830     17829     17831
     17829     17832     17832     17833     17832     17834     17832     17835
     17835     17836     17835     17837     17835     17838     17839     17843
     17839     17847     17839     17851     17843     17844     17843     17845
     17843     17846     17847     17848     17847     17849     17847     17850
     17851     17852     17851     17853     17851     17854     17839     17840
     17840     17841     17840     17842     17840     17855     17855     17856
     17855     17857     17855     17861     17862     17863     17861     17858
     17858     17862     17858     17859     17858     17860     17863     17864
     17863     17865     17863     17866     17866     17867     17866     17874
     17866     17868     17874     17875     17874     17876     17874     17877
     17868     17869     17869     17871     17869     17870     17871     17872
     17871     17873     17871     17883     17883     17884     17883     17885
     17883     17886     17886     17887     17886     17888     17886     17889
     17889     17890     17889     17891     17889     17892     17892     17893
     17892     17894     17892     17895     17895     17896     17895     17897
     17895     17898     17898     17899     17898     17900     17898     17901
     17901     17902     17901     17903     17903     17904     17903     17905
     17905     17906     17905     17907     17905     17908     17908     17909
     17908     17910     17908     17911     17911     17912     17911     17913
     17911     17914     17914     17915     17914     17916     17914     17917
     17917     17918     17917     17919     17917     17920     17920     17921
     17920     17922     17920     17923     17923     17924     17923     17925
     17923     17926     17926     17927     17926     17928     17926     17929
     17877     17878     17878     17880     17878     17879     17880     17881
     17880     17882     17880     17930     17930     17931     17930     17932
     17930     17933     17933     17934     17933     17935     17933     17936
     17936     17937     17936     17938     17936     17939     17939     17940
     17939     17941     17939     17942     17942     17943     17942     17944
     17942     17945     17945     17946     17945     17947     17945     17948
     17948     17949     17948     17950     17948     17951     17951     17952
     17951     17953     17951     17954     17954     17955     17954     17956
     17954     17957     17957     17958     17957     17959     17957     17960
     17960     17961     17960     17962     17960     17963     17963     17964
     17963     17965     17963     17966     17966     17967     17966     17968
     17966     17969     17969     17970     17969     17971     17969     17972
     17973     17977     17973     17981     17973     17985     17977     17978
     17977     17979     17977     17980     17981     17982     17981     17983
     17981     17984     17985     17986     17985     17987     17985     17988
     17973     17974     17974     17975     17974     17976     17974     17989
     17989     17990     17989     17991     17989     17995     17996     17997
     17995     17992     17992     17996     17992     17993     17992     17994
     17997     17998     17997     17999     17997     18000     18000     18001
     18000     18008     18000     18002     18008     18009     18008     18010
     18008     18011     18002     18003     18003     18005     18003     18004
     18005     18006     18005     18007     18005     18017     18017     18018
     18017     18019     18017     18020     18020     18021     18020     18022
     18020     18023     18023     18024     18023     18025     18023     18026
     18026     18027     18026     18028     18026     18029     18029     18030
     18029     18031     18029     18032     18032     18033     18032     18034
     18032     18035     18035     18036     18035     18037     18037     18038
     18037     18039     18039     18040     18039     18041     18039     18042
     18042     18043     18042     18044     18042     18045     18045     18046
     18045     18047     18045     18048     18048     18049     18048     18050
     18048     18051     18051     18052     18051     18053     18051     18054
     18054     18055     18054     18056     18054     18057     18057     18058
     18057     18059     18057     18060     18060     18061     18060     18062
     18060     18063     18011     18012     18012     18014     18012     18013
     18014     18015     18014     18016     18014     18064     18064     18065
     18064     18066     18064     18067     18067     18068     18067     18069
     18067     18070     18070     18071     18070     18072     18070     18073
     18073     18074     18073     18075     18073     18076     18076     18077
     18076     18078     18076     18079     18079     18080     18079     18081
     18079     18082     18082     18083     18082     18084     18082     18085
     18085     18086     18085     18087     18085     18088     18088     18089
     18088     18090     18088     18091     18091     18092     18091     18093
     18091     18094     18094     18095     18094     18096     18094     18097
     18097     18098     18097     18099     18097     18100     18100     18101
     18100     18102     18100     18103     18103     18104     18103     18105
     18103     18106     18107     18111     18107     18115     18107     18119
     18111     18112     18111     18113     18111     18114     18115     18116
     18115     18117     18115     18118     18119     18120     18119     18121
     18119     18122     18107     18108     18108     18109     18108     18110
     18108     18123     18123     18124     18123     18125     18123     18129
     18130     18131     18129     18126     18126     18130     18126     18127
     18126     18128     18131     18132     18131     18133     18131     18134
     18134     18135     18134     18142     18134     18136     18142     18143
     18142     18144     18142     18145     18136     18137     18137     18139
     18137     18138     18139     18140     18139     18141     18139     18151
     18151     18152     18151     18153     18151     18154     18154     18155
     18154     18156     18154     18157     18157     18158     18157     18159
     18157     18160     18160     18161     18160     18162     18160     18163
     18163     18164     18163     18165     18163     18166     18166     18167
     18166     18168     18166     18169     18169     18170     18169     18171
     18171     18172     18171     18173     18173     18174     18173     18175
     18173     18176     18176     18177     18176     18178     18176     18179
     18179     18180     18179     18181     18179     18182     18182     18183
     18182     18184     18182     18185     18185     18186     18185     18187
     18185     18188     18188     18189     18188     18190     18188     18191
     18191     18192     18191     18193     18191     18194     18194     18195
     18194     18196     18194     18197     18145     18146     18146     18148
     18146     18147     18148     18149     18148     18150     18148     18198
     18198     18199     18198     18200     18198     18201     18201     18202
     18201     18203     18201     18204     18204     18205     18204     18206
     18204     18207     18207     18208     18207     18209     18207     18210
     18210     18211     18210     18212     18210     18213     18213     18214
     18213     18215     18213     18216     18216     18217     18216     18218
     18216     18219     18219     18220     18219     18221     18219     18222
     18222     18223     18222     18224     18222     18225     18225     18226
     18225     18227     18225     18228     18228     18229     18228     18230
     18228     18231     18231     18232     18231     18233     18231     18234
     18234     18235     18234     18236     18234     18237     18237     18238
     18237     18239     18237     18240     18241     18245     18241     18249
     18241     18253     18245     18246     18245     18247     18245     18248
     18249     18250     18249     18251     18249     18252     18253     18254
     18253     18255     18253     18256     18241     18242     18242     18243
     18242     18244     18242     18257     18257     18258     18257     18259
     18257     18263     18264     18265     18263     18260     18260     18264
     18260     18261     18260     18262     18265     18266     18265     18267
     18265     18268     18268     18269     18268     18276     18268     18270
     18276     18277     18276     18278     18276     18279     18270     18271
     18271     18273     18271     18272     18273     18274     18273     18275
     18273     18285     18285     18286     18285     18287     18285     18288
     18288     18289     18288     18290     18288     18291     18291     18292
     18291     18293     18291     18294     18294     18295     18294     18296
     18294     18297     18297     18298     18297     18299     18297     18300
     18300     18301     18300     18302     18300     18303     18303     18304
     18303     18305     18305     18306     18305     18307     18307     18308
     18307     18309     18307     18310     18310     18311     18310     18312
     18310     18313     18313     18314     18313     18315     18313     18316
     18316     18317     18316     18318     18316     18319     18319     18320
     18319     18321     18319     18322     18322     18323     18322     18324
     18322     18325     18325     18326     18325     18327     18325     18328
     18328     18329     18328     18330     18328     18331     18279     18280
     18280     18282     18280     18281     18282     18283     18282     18284
     18282     18332     18332     18333     18332     18334     18332     18335
     18335     18336     18335     18337     18335     18338     18338     18339
     18338     18340     18338     18341     18341     18342     18341     18343
     18341     18344     18344     18345     18344     18346     18344     18347
     18347     18348     18347     18349     18347     18350     18350     18351
     18350     18352     18350     18353     18353     18354     18353     18355
     18353     18356     18356     18357     18356     18358     18356     18359
     18359     18360     18359     18361     18359     18362     18362     18363
     18362     18364     18362     18365     18365     18366     18365     18367
     18365     18368     18368     18369     18368     18370     18368     18371
     18371     18372     18371     18373     18371     18374     18375     18379
     18375     18383     18375     18387     18379     18380     18379     18381
     18379     18382     18383     18384     18383     18385     18383     18386
     18387     18388     18387     18389     18387     18390     18375     18376
     18376     18377     18376     18378     18376     18391     18391     18392
     18391     18393     18391     18397     18398     18399     18397     18394
     18394     18398     18394     18395     18394     18396     18399     18400
     18399     18401     18399     18402     18402     18403     18402     18410
     18402     18404     18410     18411     18410     18412     18410     18413
     18404     18405     18405     18407     18405     18406     18407     18408
     18407     18409     18407     18419     18419     18420     18419     18421
     18419     18422     18422     18423     18422     18424     18422     18425
     18425     18426     18425     18427     18425     18428     18428     18429
     18428     18430     18428     18431     18431     18432     18431     18433
     18431     18434     18434     18435     18434     18436     18434     18437
     18437     18438     18437     18439     18439     18440     18439     18441
     18441     18442     18441     18443     18441     18444     18444     18445
     18444     18446     18444     18447     18447     18448     18447     18449
     18447     18450     18450     18451     18450     18452     18450     18453
     18453     18454     18453     18455     18453     18456     18456     18457
     18456     18458     18456     18459     18459     18460     18459     18461
     18459     18462     18462     18463     18462     18464     18462     18465
     18413     18414     18414     18416     18414     18415     18416     18417
     18416     18418     18416     18466     18466     18467     18466     18468
     18466     18469     18469     18470     18469     18471     18469     18472
     18472     18473     18472     18474     18472     18475     18475     18476
     18475     18477     18475     18478     18478     18479     18478     18480
     18478     18481     18481     18482     18481     18483     18481     18484
     18484     18485     18484     18486     18484     18487     18487     18488
     18487     18489     18487     18490     18490     18491     18490     18492
     18490     18493     18493     18494     18493     18495     18493     18496
     18496     18497     18496     18498     18496     18499     18499     18500
     18499     18501     18499     18502     18502     18503     18502     18504
     18502     18505     18505     18506     18505     18507     18505     18508
     18509     18513     18509     18517     18509     18521     18513     18514
     18513     18515     18513     18516     18517     18518     18517     18519
     18517     18520     18521     18522     18521     18523     18521     18524
     18509     18510     18510     18511     18510     18512     18510     18525
     18525     18526     18525     18527     18525     18531     18532     18533
     18531     18528     18528     18532     18528     18529     18528     18530
     18533     18534     18533     18535     18533     18536     18536     18537
     18536     18544     18536     18538     18544     18545     18544     18546
     18544     18547     18538     18539     18539     18541     18539     18540
     18541     18542     18541     18543     18541     18553     18553     18554
     18553     18555     18553     18556     18556     18557     18556     18558
     18556     18559     18559     18560     18559     18561     18559     18562
     18562     18563     18562     18564     18562     18565     18565     18566
     18565     18567     18565     18568     18568     18569     18568     18570
     18568     18571     18571     18572     18571     18573     18573     18574
     18573     18575     18575     18576     18575     18577     18575     18578
     18578     18579     18578     18580     18578     18581     18581     18582
     18581     18583     18581     18584     18584     18585     18584     18586
     18584     18587     18587     18588     18587     18589     18587     18590
     18590     18591     18590     18592     18590     18593     18593     18594
     18593     18595     18593     18596     18596     18597     18596     18598
     18596     18599     18547     18548     18548     18550     18548     18549
     18550     18551     18550     18552     18550     18600     18600     18601
     18600     18602     18600     18603     18603     18604     18603     18605
     18603     18606     18606     18607     18606     18608     18606     18609
     18609     18610     18609     18611     18609     18612     18612     18613
     18612     18614     18612     18615     18615     18616     18615     18617
     18615     18618     18618     18619     18618     18620     18618     18621
     18621     18622     18621     18623     18621     18624     18624     18625
     18624     18626     18624     18627     18627     18628     18627     18629
     18627     18630     18630     18631     18630     18632     18630     18633
     18633     18634     18633     18635     18633     18636     18636     18637
     18636     18638     18636     18639     18639     18640     18639     18641
     18639     18642     18643     18647     18643     18651     18643     18655
     18647     18648     18647     18649     18647     18650     18651     18652
     18651     18653     18651     18654     18655     18656     18655     18657
     18655     18658     18643     18644     18644     18645     18644     18646
     18644     18659     18659     18660     18659     18661     18659     18665
     18666     18667     18665     18662     18662     18666     18662     18663
     18662     18664     18667     18668     18667     18669     18667     18670
     18670     18671     18670     18678     18670     18672     18678     18679
     18678     18680     18678     18681     18672     18673     18673     18675
     18673     18674     18675     18676     18675     18677     18675     18687
     18687     18688     18687     18689     18687     18690     18690     18691
     18690     18692     18690     18693     18693     18694     18693     18695
     18693     18696     18696     18697     18696     18698     18696     18699
     18699     18700     18699     18701     18699     18702     18702     18703
     18702     18704     18702     18705     18705     18706     18705     18707
     18707     18708     18707     18709     18709     18710     18709     18711
     18709     18712     18712     18713     18712     18714     18712     18715
     18715     18716     18715     18717     18715     18718     18718     18719
     18718     18720     18718     18721     18721     18722     18721     18723
     18721     18724     18724     18725     18724     18726     18724     18727
     18727     18728     18727     18729     18727     18730     18730     18731
     18730     18732     18730     18733     18681     18682     18682     18684
     18682     18683     18684     18685     18684     18686     18684     18734
     18734     18735     18734     18736     18734     18737     18737     18738
     18737     18739     18737     18740     18740     18741     18740     18742
     18740     18743     18743     18744     18743     18745     18743     18746
     18746     18747     18746     18748     18746     18749     18749     18750
     18749     18751     18749     18752     18752     18753     18752     18754
     18752     18755     18755     18756     18755     18757     18755     18758
     18758     18759     18758     18760     18758     18761     18761     18762
     18761     18763     18761     18764     18764     18765     18764     18766
     18764     18767     18767     18768     18767     18769     18767     18770
     18770     18771     18770     18772     18770     18773     18773     18774
     18773     18775     18773     18776     18777     18779     18777     18778
     18779     18780     18777     18823     18823     18824     18823     18825
     18823     18820     18820     18821     18820     18822     18777     18781
     18781     18782     18781     18783     18781     18784     18784     18815
     18815     18820     18815     18816     18816     18817     18816     18818
     18816     18819     18784     18785     18785     18786     18785     18787
     18787     18788     18787     18789     18787     18790     18790     18791
     18790     18813     18813     18814     18813     18815     18790     18792
     18792     18793     18792     18802     18802     18807     18807     18808
     18807     18809     18807     18810     18810     18811     18810     18812
     18810     18813     18802     18803     18803     18804     18803     18805
     18803     18806     18792     18794     18794     18795     18794     18796
     18794     18797     18797     18798     18797     18799     18797     18800
     18800     18801     18800     18802     18800     18826     18826     18827
     18826     18828     18828     18829     18828     18830     18828     18831
     18826     18832     18832     18833     18832     18834     18832     18835
     18835     18836     18835     18837     18835     18838     18838     18839
     18838     18840     18838     18841     18841     18842     18841     18843
     18843     18844     18843     18845     18843     18846     18841     18847
     18847     18848     18847     18849     18847     18850     18851     18853
     18851     18852     18853     18854     18851     18897     18897     18898
     18897     18899     18897     18894     18894     18895     18894     18896
     18851     18855     18855     18856     18855     18857     18855     18858
     18858     18889     18889     18894     18889     18890     18890     18891
     18890     18892     18890     18893     18858     18859     18859     18860
     18859     18861     18861     18862     18861     18863     18861     18864
     18864     18865     18864     18887     18887     18888     18887     18889
     18864     18866     18866     18867     18866     18876     18876     18881
     18881     18882     18881     18883     18881     18884     18884     18885
     18884     18886     18884     18887     18876     18877     18877     18878
     18877     18879     18877     18880     18866     18868     18868     18869
     18868     18870     18868     18871     18871     18872     18871     18873
     18871     18874     18874     18875     18874     18876     18874     18900
     18900     18901     18900     18902     18902     18903     18902     18904
     18902     18905     18900     18906     18906     18907     18906     18908
     18906     18909     18909     18910     18909     18911     18909     18912
     18912     18913     18912     18914     18912     18915     18915     18916
     18915     18917     18917     18918     18917     18919     18917     18920
     18915     18921     18921     18922     18921     18923     18921     18924
     18925     18927     18925     18926     18927     18928     18925     18971
     18971     18972     18971     18973     18971     18968     18968     18969
     18968     18970     18925     18929     18929     18930     18929     18931
     18929     18932     18932     18963     18963     18968     18963     18964
     18964     18965     18964     18966     18964     18967     18932     18933
     18933     18934     18933     18935     18935     18936     18935     18937
     18935     18938     18938     18939     18938     18961     18961     18962
     18961     18963     18938     18940     18940     18941     18940     18950
     18950     18955     18955     18956     18955     18957     18955     18958
     18958     18959     18958     18960     18958     18961     18950     18951
     18951     18952     18951     18953     18951     18954     18940     18942
     18942     18943     18942     18944     18942     18945     18945     18946
     18945     18947     18945     18948     18948     18949     18948     18950
     18948     18974     18974     18975     18974     18976     18976     18977
     18976     18978     18976     18979     18974     18980     18980     18981
     18980     18982     18980     18983     18983     18984     18983     18985
     18983     18986     18986     18987     18986     18988     18986     18989
     18989     18990     18989     18991     18991     18992     18991     18993
     18991     18994     18989     18995     18995     18996     18995     18997
     18995     18998     18999     19001     18999     19000     19001     19002
     18999     19045     19045     19046     19045     19047     19045     19042
     19042     19043     19042     19044     18999     19003     19003     19004
     19003     19005     19003     19006     19006     19037     19037     19042
     19037     19038     19038     19039     19038     19040     19038     19041
     19006     19007     19007     19008     19007     19009     19009     19010
     19009     19011     19009     19012     19012     19013     19012     19035
     19035     19036     19035     19037     19012     19014     19014     19015
     19014     19024     19024     19029     19029     19030     19029     19031
     19029     19032     19032     19033     19032     19034     19032     19035
     19024     19025     19025     19026     19025     19027     19025     19028
     19014     19016     19016     19017     19016     19018     19016     19019
     19019     19020     19019     19021     19019     19022     19022     19023
     19022     19024     19022     19048     19048     19049     19048     19050
     19050     19051     19050     19052     19050     19053     19048     19054
     19054     19055     19054     19056     19054     19057     19057     19058
     19057     19059     19057     19060     19060     19061     19060     19062
     19060     19063     19063     19064     19063     19065     19065     19066
     19065     19067     19065     19068     19063     19069     19069     19070
     19069     19071     19069     19072     19073     19075     19073     19074
     19075     19076     19073     19119     19119     19120     19119     19121
     19119     19116     19116     19117     19116     19118     19073     19077
     19077     19078     19077     19079     19077     19080     19080     19111
     19111     19116     19111     19112     19112     19113     19112     19114
     19112     19115     19080     19081     19081     19082     19081     19083
     19083     19084     19083     19085     19083     19086     19086     19087
     19086     19109     19109     19110     19109     19111     19086     19088
     19088     19089     19088     19098     19098     19103     19103     19104
     19103     19105     19103     19106     19106     19107     19106     19108
     19106     19109     19098     19099     19099     19100     19099     19101
     19099     19102     19088     19090     19090     19091     19090     19092
     19090     19093     19093     19094     19093     19095     19093     19096
     19096     19097     19096     19098     19096     19122     19122     19123
     19122     19124     19124     19125     19124     19126     19124     19127
     19122     19128     19128     19129     19128     19130     19128     19131
     19131     19132     19131     19133     19131     19134     19134     19135
     19134     19136     19134     19137     19137     19138     19137     19139
     19139     19140     19139     19141     19139     19142     19137     19143
     19143     19144     19143     19145     19143     19146     19147     19149
     19147     19148     19149     19150     19147     19193     19193     19194
     19193     19195     19193     19190     19190     19191     19190     19192
     19147     19151     19151     19152     19151     19153     19151     19154
     19154     19185     19185     19190     19185     19186     19186     19187
     19186     19188     19186     19189     19154     19155     19155     19156
     19155     19157     19157     19158     19157     19159     19157     19160
     19160     19161     19160     19183     19183     19184     19183     19185
     19160     19162     19162     19163     19162     19172     19172     19177
     19177     19178     19177     19179     19177     19180     19180     19181
     19180     19182     19180     19183     19172     19173     19173     19174
     19173     19175     19173     19176     19162     19164     19164     19165
     19164     19166     19164     19167     19167     19168     19167     19169
     19167     19170     19170     19171     19170     19172     19170     19196
     19196     19197     19196     19198     19198     19199     19198     19200
     19198     19201     19196     19202     19202     19203     19202     19204
     19202     19205     19205     19206     19205     19207     19205     19208
     19208     19209     19208     19210     19208     19211     19211     19212
     19211     19213     19213     19214     19213     19215     19213     19216
     19211     19217     19217     19218     19217     19219     19217     19220
     19221     19223     19221     19222     19223     19224     19221     19267
     19267     19268     19267     19269     19267     19264     19264     19265
     19264     19266     19221     19225     19225     19226     19225     19227
     19225     19228     19228     19259     19259     19264     19259     19260
     19260     19261     19260     19262     19260     19263     19228     19229
     19229     19230     19229     19231     19231     19232     19231     19233
     19231     19234     19234     19235     19234     19257     19257     19258
     19257     19259     19234     19236     19236     19237     19236     19246
     19246     19251     19251     19252     19251     19253     19251     19254
     19254     19255     19254     19256     19254     19257     19246     19247
     19247     19248     19247     19249     19247     19250     19236     19238
     19238     19239     19238     19240     19238     19241     19241     19242
     19241     19243     19241     19244     19244     19245     19244     19246
     19244     19270     19270     19271     19270     19272     19272     19273
     19272     19274     19272     19275     19270     19276     19276     19277
     19276     19278     19276     19279     19279     19280     19279     19281
     19279     19282     19282     19283     19282     19284     19282     19285
     19285     19286     19285     19287     19287     19288     19287     19289
     19287     19290     19285     19291     19291     19292     19291     19293
     19291     19294     19295     19297     19295     19296     19297     19298
     19295     19341     19341     19342     19341     19343     19341     19338
     19338     19339     19338     19340     19295     19299     19299     19300
     19299     19301     19299     19302     19302     19333     19333     19338
     19333     19334     19334     19335     19334     19336     19334     19337
     19302     19303     19303     19304     19303     19305     19305     19306
     19305     19307     19305     19308     19308     19309     19308     19331
     19331     19332     19331     19333     19308     19310     19310     19311
     19310     19320     19320     19325     19325     19326     19325     19327
     19325     19328     19328     19329     19328     19330     19328     19331
     19320     19321     19321     19322     19321     19323     19321     19324
     19310     19312     19312     19313     19312     19314     19312     19315
     19315     19316     19315     19317     19315     19318     19318     19319
     19318     19320     19318     19344     19344     19345     19344     19346
     19346     19347     19346     19348     19346     19349     19344     19350
     19350     19351     19350     19352     19350     19353     19353     19354
     19353     19355     19353     19356     19356     19357     19356     19358
     19356     19359     19359     19360     19359     19361     19361     19362
     19361     19363     19361     19364     19359     19365     19365     19366
     19365     19367     19365     19368     19369     19371     19369     19370
     19371     19372     19369     19415     19415     19416     19415     19417
     19415     19412     19412     19413     19412     19414     19369     19373
     19373     19374     19373     19375     19373     19376     19376     19407
     19407     19412     19407     19408     19408     19409     19408     19410
     19408     19411     19376     19377     19377     19378     19377     19379
     19379     19380     19379     19381     19379     19382     19382     19383
     19382     19405     19405     19406     19405     19407     19382     19384
     19384     19385     19384     19394     19394     19399     19399     19400
     19399     19401     19399     19402     19402     19403     19402     19404
     19402     19405     19394     19395     19395     19396     19395     19397
     19395     19398     19384     19386     19386     19387     19386     19388
     19386     19389     19389     19390     19389     19391     19389     19392
     19392     19393     19392     19394     19392     19418     19418     19419
     19418     19420     19420     19421     19420     19422     19420     19423
     19418     19424     19424     19425     19424     19426     19424     19427
     19427     19428     19427     19429     19427     19430     19430     19431
     19430     19432     19430     19433     19433     19434     19433     19435
     19435     19436     19435     19437     19435     19438     19433     19439
     19439     19440     19439     19441     19439     19442     19443     19445
     19443     19444     19445     19446     19443     19489     19489     19490
     19489     19491     19489     19486     19486     19487     19486     19488
     19443     19447     19447     19448     19447     19449     19447     19450
     19450     19481     19481     19486     19481     19482     19482     19483
     19482     19484     19482     19485     19450     19451     19451     19452
     19451     19453     19453     19454     19453     19455     19453     19456
     19456     19457     19456     19479     19479     19480     19479     19481
     19456     19458     19458     19459     19458     19468     19468     19473
     19473     19474     19473     19475     19473     19476     19476     19477
     19476     19478     19476     19479     19468     19469     19469     19470
     19469     19471     19469     19472     19458     19460     19460     19461
     19460     19462     19460     19463     19463     19464     19463     19465
     19463     19466     19466     19467     19466     19468     19466     19492
     19492     19493     19492     19494     19494     19495     19494     19496
     19494     19497     19492     19498     19498     19499     19498     19500
     19498     19501     19501     19502     19501     19503     19501     19504
     19504     19505     19504     19506     19504     19507     19507     19508
     19507     19509     19509     19510     19509     19511     19509     19512
     19507     19513     19513     19514     19513     19515     19513     19516
     19517     19519     19517     19518     19519     19520     19517     19563
     19563     19564     19563     19565     19563     19560     19560     19561
     19560     19562     19517     19521     19521     19522     19521     19523
     19521     19524     19524     19555     19555     19560     19555     19556
     19556     19557     19556     19558     19556     19559     19524     19525
     19525     19526     19525     19527     19527     19528     19527     19529
     19527     19530     19530     19531     19530     19553     19553     19554
     19553     19555     19530     19532     19532     19533     19532     19542
     19542     19547     19547     19548     19547     19549     19547     19550
     19550     19551     19550     19552     19550     19553     19542     19543
     19543     19544     19543     19545     19543     19546     19532     19534
     19534     19535     19534     19536     19534     19537     19537     19538
     19537     19539     19537     19540     19540     19541     19540     19542
     19540     19566     19566     19567     19566     19568     19568     19569
     19568     19570     19568     19571     19566     19572     19572     19573
     19572     19574     19572     19575     19575     19576     19575     19577
     19575     19578     19578     19579     19578     19580     19578     19581
     19581     19582     19581     19583     19583     19584     19583     19585
     19583     19586     19581     19587     19587     19588     19587     19589
     19587     19590     19591     19593     19591     19592     19593     19594
     19591     19637     19637     19638     19637     19639     19637     19634
     19634     19635     19634     19636     19591     19595     19595     19596
     19595     19597     19595     19598     19598     19629     19629     19634
     19629     19630     19630     19631     19630     19632     19630     19633
     19598     19599     19599     19600     19599     19601     19601     19602
     19601     19603     19601     19604     19604     19605     19604     19627
     19627     19628     19627     19629     19604     19606     19606     19607
     19606     19616     19616     19621     19621     19622     19621     19623
     19621     19624     19624     19625     19624     19626     19624     19627
     19616     19617     19617     19618     19617     19619     19617     19620
     19606     19608     19608     19609     19608     19610     19608     19611
     19611     19612     19611     19613     19611     19614     19614     19615
     19614     19616     19614     19640     19640     19641     19640     19642
     19642     19643     19642     19644     19642     19645     19640     19646
     19646     19647     19646     19648     19646     19649     19649     19650
     19649     19651     19649     19652     19652     19653     19652     19654
     19652     19655     19655     19656     19655     19657     19657     19658
     19657     19659     19657     19660     19655     19661     19661     19662
     19661     19663     19661     19664     19665     19667     19665     19666
     19667     19668     19665     19711     19711     19712     19711     19713
     19711     19708     19708     19709     19708     19710     19665     19669
     19669     19670     19669     19671     19669     19672     19672     19703
     19703     19708     19703     19704     19704     19705     19704     19706
     19704     19707     19672     19673     19673     19674     19673     19675
     19675     19676     19675     19677     19675     19678     19678     19679
     19678     19701     19701     19702     19701     19703     19678     19680
     19680     19681     19680     19690     19690     19695     19695     19696
     19695     19697     19695     19698     19698     19699     19698     19700
     19698     19701     19690     19691     19691     19692     19691     19693
     19691     19694     19680     19682     19682     19683     19682     19684
     19682     19685     19685     19686     19685     19687     19685     19688
     19688     19689     19688     19690     19688     19714     19714     19715
     19714     19716     19716     19717     19716     19718     19716     19719
     19714     19720     19720     19721     19720     19722     19720     19723
     19723     19724     19723     19725     19723     19726     19726     19727
     19726     19728     19726     19729     19729     19730     19729     19731
     19731     19732     19731     19733     19731     19734     19729     19735
     19735     19736     19735     19737     19735     19738     19739     19741
     19739     19740     19741     19742     19739     19785     19785     19786
     19785     19787     19785     19782     19782     19783     19782     19784
     19739     19743     19743     19744     19743     19745     19743     19746
     19746     19777     19777     19782     19777     19778     19778     19779
     19778     19780     19778     19781     19746     19747     19747     19748
     19747     19749     19749     19750     19749     19751     19749     19752
     19752     19753     19752     19775     19775     19776     19775     19777
     19752     19754     19754     19755     19754     19764     19764     19769
     19769     19770     19769     19771     19769     19772     19772     19773
     19772     19774     19772     19775     19764     19765     19765     19766
     19765     19767     19765     19768     19754     19756     19756     19757
     19756     19758     19756     19759     19759     19760     19759     19761
     19759     19762     19762     19763     19762     19764     19762     19788
     19788     19789     19788     19790     19790     19791     19790     19792
     19790     19793     19788     19794     19794     19795     19794     19796
     19794     19797     19797     19798     19797     19799     19797     19800
     19800     19801     19800     19802     19800     19803     19803     19804
     19803     19805     19805     19806     19805     19807     19805     19808
     19803     19809     19809     19810     19809     19811     19809     19812
     19813     19815     19813     19814     19815     19816     19813     19859
     19859     19860     19859     19861     19859     19856     19856     19857
     19856     19858     19813     19817     19817     19818     19817     19819
     19817     19820     19820     19851     19851     19856     19851     19852
     19852     19853     19852     19854     19852     19855     19820     19821
     19821     19822     19821     19823     19823     19824     19823     19825
     19823     19826     19826     19827     19826     19849     19849     19850
     19849     19851     19826     19828     19828     19829     19828     19838
     19838     19843     19843     19844     19843     19845     19843     19846
     19846     19847     19846     19848     19846     19849     19838     19839
     19839     19840     19839     19841     19839     19842     19828     19830
     19830     19831     19830     19832     19830     19833     19833     19834
     19833     19835     19833     19836     19836     19837     19836     19838
     19836     19862     19862     19863     19862     19864     19864     19865
     19864     19866     19864     19867     19862     19868     19868     19869
     19868     19870     19868     19871     19871     19872     19871     19873
     19871     19874     19874     19875     19874     19876     19874     19877
     19877     19878     19877     19879     19879     19880     19879     19881
     19879     19882     19877     19883     19883     19884     19883     19885
     19883     19886     19887     19889     19887     19888     19889     19890
     19887     19933     19933     19934     19933     19935     19933     19930
     19930     19931     19930     19932     19887     19891     19891     19892
     19891     19893     19891     19894     19894     19925     19925     19930
     19925     19926     19926     19927     19926     19928     19926     19929
     19894     19895     19895     19896     19895     19897     19897     19898
     19897     19899     19897     19900     19900     19901     19900     19923
     19923     19924     19923     19925     19900     19902     19902     19903
     19902     19912     19912     19917     19917     19918     19917     19919
     19917     19920     19920     19921     19920     19922     19920     19923
     19912     19913     19913     19914     19913     19915     19913     19916
     19902     19904     19904     19905     19904     19906     19904     19907
     19907     19908     19907     19909     19907     19910     19910     19911
     19910     19912     19910     19936     19936     19937     19936     19938
     19938     19939     19938     19940     19938     19941     19936     19942
     19942     19943     19942     19944     19942     19945     19945     19946
     19945     19947     19945     19948     19948     19949     19948     19950
     19948     19951     19951     19952     19951     19953     19953     19954
     19953     19955     19953     19956     19951     19957     19957     19958
     19957     19959     19957     19960     19961     19963     19961     19962
     19963     19964     19961     20007     20007     20008     20007     20009
     20007     20004     20004     20005     20004     20006     19961     19965
     19965     19966     19965     19967     19965     19968     19968     19999
     19999     20004     19999     20000     20000     20001     20000     20002
     20000     20003     19968     19969     19969     19970     19969     19971
     19971     19972     19971     19973     19971     19974     19974     19975
     19974     19997     19997     19998     19997     19999     19974     19976
     19976     19977     19976     19986     19986     19991     19991     19992
     19991     19993     19991     19994     19994     19995     19994     19996
     19994     19997     19986     19987     19987     19988     19987     19989
     19987     19990     19976     19978     19978     19979     19978     19980
     19978     19981     19981     19982     19981     19983     19981     19984
     19984     19985     19984     19986     19984     20010     20010     20011
     20010     20012     20012     20013     20012     20014     20012     20015
     20010     20016     20016     20017     20016     20018     20016     20019
     20019     20020     20019     20021     20019     20022     20022     20023
     20022     20024     20022     20025     20025     20026     20025     20027
     20027     20028     20027     20029     20027     20030     20025     20031
     20031     20032     20031     20033     20031     20034     20035     20037
     20035     20036     20037     20038     20035     20081     20081     20082
     20081     20083     20081     20078     20078     20079     20078     20080
     20035     20039     20039     20040     20039     20041     20039     20042
     20042     20073     20073     20078     20073     20074     20074     20075
     20074     20076     20074     20077     20042     20043     20043     20044
     20043     20045     20045     20046     20045     20047     20045     20048
     20048     20049     20048     20071     20071     20072     20071     20073
     20048     20050     20050     20051     20050     20060     20060     20065
     20065     20066     20065     20067     20065     20068     20068     20069
     20068     20070     20068     20071     20060     20061     20061     20062
     20061     20063     20061     20064     20050     20052     20052     20053
     20052     20054     20052     20055     20055     20056     20055     20057
     20055     20058     20058     20059     20058     20060     20058     20084
     20084     20085     20084     20086     20086     20087     20086     20088
     20086     20089     20084     20090     20090     20091     20090     20092
     20090     20093     20093     20094     20093     20095     20093     20096
     20096     20097     20096     20098     20096     20099     20099     20100
     20099     20101     20101     20102     20101     20103     20101     20104
     20099     20105     20105     20106     20105     20107     20105     20108
     20109     20111     20109     20110     20111     20112     20109     20155
     20155     20156     20155     20157     20155     20152     20152     20153
     20152     20154     20109     20113     20113     20114     20113     20115
     20113     20116     20116     20147     20147     20152     20147     20148
     20148     20149     20148     20150     20148     20151     20116     20117
     20117     20118     20117     20119     20119     20120     20119     20121
     20119     20122     20122     20123     20122     20145     20145     20146
     20145     20147     20122     20124     20124     20125     20124     20134
     20134     20139     20139     20140     20139     20141     20139     20142
     20142     20143     20142     20144     20142     20145     20134     20135
     20135     20136     20135     20137     20135     20138     20124     20126
     20126     20127     20126     20128     20126     20129     20129     20130
     20129     20131     20129     20132     20132     20133     20132     20134
     20132     20158     20158     20159     20158     20160     20160     20161
     20160     20162     20160     20163     20158     20164     20164     20165
     20164     20166     20164     20167     20167     20168     20167     20169
     20167     20170     20170     20171     20170     20172     20170     20173
     20173     20174     20173     20175     20175     20176     20175     20177
     20175     20178     20173     20179     20179     20180     20179     20181
     20179     20182     20183     20185     20183     20184     20185     20186
     20183     20229     20229     20230     20229     20231     20229     20226
     20226     20227     20226     20228     20183     20187     20187     20188
     20187     20189     20187     20190     20190     20221     20221     20226
     20221     20222     20222     20223     20222     20224     20222     20225
     20190     20191     20191     20192     20191     20193     20193     20194
     20193     20195     20193     20196     20196     20197     20196     20219
     20219     20220     20219     20221     20196     20198     20198     20199
     20198     20208     20208     20213     20213     20214     20213     20215
     20213     20216     20216     20217     20216     20218     20216     20219
     20208     20209     20209     20210     20209     20211     20209     20212
     20198     20200     20200     20201     20200     20202     20200     20203
     20203     20204     20203     20205     20203     20206     20206     20207
     20206     20208     20206     20232     20232     20233     20232     20234
     20234     20235     20234     20236     20234     20237     20232     20238
     20238     20239     20238     20240     20238     20241     20241     20242
     20241     20243     20241     20244     20244     20245     20244     20246
     20244     20247     20247     20248     20247     20249     20249     20250
     20249     20251     20249     20252     20247     20253     20253     20254
     20253     20255     20253     20256     20257     20259     20257     20258
     20259     20260     20257     20303     20303     20304     20303     20305
     20303     20300     20300     20301     20300     20302     20257     20261
     20261     20262     20261     20263     20261     20264     20264     20295
     20295     20300     20295     20296     20296     20297     20296     20298
     20296     20299     20264     20265     20265     20266     20265     20267
     20267     20268     20267     20269     20267     20270     20270     20271
     20270     20293     20293     20294     20293     20295     20270     20272
     20272     20273     20272     20282     20282     20287     20287     20288
     20287     20289     20287     20290     20290     20291     20290     20292
     20290     20293     20282     20283     20283     20284     20283     20285
     20283     20286     20272     20274     20274     20275     20274     20276
     20274     20277     20277     20278     20277     20279     20277     20280
     20280     20281     20280     20282     20280     20306     20306     20307
     20306     20308     20308     20309     20308     20310     20308     20311
     20306     20312     20312     20313     20312     20314     20312     20315
     20315     20316     20315     20317     20315     20318     20318     20319
     20318     20320     20318     20321     20321     20322     20321     20323
     20323     20324     20323     20325     20323     20326     20321     20327
     20327     20328     20327     20329     20327     20330     20331     20333
     20331     20332     20333     20334     20331     20377     20377     20378
     20377     20379     20377     20374     20374     20375     20374     20376
     20331     20335     20335     20336     20335     20337     20335     20338
     20338     20369     20369     20374     20369     20370     20370     20371
     20370     20372     20370     20373     20338     20339     20339     20340
     20339     20341     20341     20342     20341     20343     20341     20344
     20344     20345     20344     20367     20367     20368     20367     20369
     20344     20346     20346     20347     20346     20356     20356     20361
     20361     20362     20361     20363     20361     20364     20364     20365
     20364     20366     20364     20367     20356     20357     20357     20358
     20357     20359     20357     20360     20346     20348     20348     20349
     20348     20350     20348     20351     20351     20352     20351     20353
     20351     20354     20354     20355     20354     20356     20354     20380
     20380     20381     20380     20382     20382     20383     20382     20384
     20382     20385     20380     20386     20386     20387     20386     20388
     20386     20389     20389     20390     20389     20391     20389     20392
     20392     20393     20392     20394     20392     20395     20395     20396
     20395     20397     20397     20398     20397     20399     20397     20400
     20395     20401     20401     20402     20401     20403     20401     20404
     20405     20407     20405     20406     20407     20408     20405     20451
     20451     20452     20451     20453     20451     20448     20448     20449
     20448     20450     20405     20409     20409     20410     20409     20411
     20409     20412     20412     20443     20443     20448     20443     20444
     20444     20445     20444     20446     20444     20447     20412     20413
     20413     20414     20413     20415     20415     20416     20415     20417
     20415     20418     20418     20419     20418     20441     20441     20442
     20441     20443     20418     20420     20420     20421     20420     20430
     20430     20435     20435     20436     20435     20437     20435     20438
     20438     20439     20438     20440     20438     20441     20430     20431
     20431     20432     20431     20433     20431     20434     20420     20422
     20422     20423     20422     20424     20422     20425     20425     20426
     20425     20427     20425     20428     20428     20429     20428     20430
     20428     20454     20454     20455     20454     20456     20456     20457
     20456     20458     20456     20459     20454     20460     20460     20461
     20460     20462     20460     20463     20463     20464     20463     20465
     20463     20466     20466     20467     20466     20468     20466     20469
     20469     20470     20469     20471     20471     20472     20471     20473
     20471     20474     20469     20475     20475     20476     20475     20477
     20475     20478     20479     20481     20479     20480     20481     20482
     20479     20525     20525     20526     20525     20527     20525     20522
     20522     20523     20522     20524     20479     20483     20483     20484
     20483     20485     20483     20486     20486     20517     20517     20522
     20517     20518     20518     20519     20518     20520     20518     20521
     20486     20487     20487     20488     20487     20489     20489     20490
     20489     20491     20489     20492     20492     20493     20492     20515
     20515     20516     20515     20517     20492     20494     20494     20495
     20494     20504     20504     20509     20509     20510     20509     20511
     20509     20512     20512     20513     20512     20514     20512     20515
     20504     20505     20505     20506     20505     20507     20505     20508
     20494     20496     20496     20497     20496     20498     20496     20499
     20499     20500     20499     20501     20499     20502     20502     20503
     20502     20504     20502     20528     20528     20529     20528     20530
     20530     20531     20530     20532     20530     20533     20528     20534
     20534     20535     20534     20536     20534     20537     20537     20538
     20537     20539     20537     20540     20540     20541     20540     20542
     20540     20543     20543     20544     20543     20545     20545     20546
     20545     20547     20545     20548     20543     20549     20549     20550
     20549     20551     20549     20552     20553     20555     20553     20554
     20555     20556     20553     20599     20599     20600     20599     20601
     20599     20596     20596     20597     20596     20598     20553     20557
     20557     20558     20557     20559     20557     20560     20560     20591
     20591     20596     20591     20592     20592     20593     20592     20594
     20592     20595     20560     20561     20561     20562     20561     20563
     20563     20564     20563     20565     20563     20566     20566     20567
     20566     20589     20589     20590     20589     20591     20566     20568
     20568     20569     20568     20578     20578     20583     20583     20584
     20583     20585     20583     20586     20586     20587     20586     20588
     20586     20589     20578     20579     20579     20580     20579     20581
     20579     20582     20568     20570     20570     20571     20570     20572
     20570     20573     20573     20574     20573     20575     20573     20576
     20576     20577     20576     20578     20576     20602     20602     20603
     20602     20604     20604     20605     20604     20606     20604     20607
     20602     20608     20608     20609     20608     20610     20608     20611
     20611     20612     20611     20613     20611     20614     20614     20615
     20614     20616     20614     20617     20617     20618     20617     20619
     20619     20620     20619     20621     20619     20622     20617     20623
     20623     20624     20623     20625     20623     20626     20627     20629
     20627     20628     20629     20630     20627     20673     20673     20674
     20673     20675     20673     20670     20670     20671     20670     20672
     20627     20631     20631     20632     20631     20633     20631     20634
     20634     20665     20665     20670     20665     20666     20666     20667
     20666     20668     20666     20669     20634     20635     20635     20636
     20635     20637     20637     20638     20637     20639     20637     20640
     20640     20641     20640     20663     20663     20664     20663     20665
     20640     20642     20642     20643     20642     20652     20652     20657
     20657     20658     20657     20659     20657     20660     20660     20661
     20660     20662     20660     20663     20652     20653     20653     20654
     20653     20655     20653     20656     20642     20644     20644     20645
     20644     20646     20644     20647     20647     20648     20647     20649
     20647     20650     20650     20651     20650     20652     20650     20676
     20676     20677     20676     20678     20678     20679     20678     20680
     20678     20681     20676     20682     20682     20683     20682     20684
     20682     20685     20685     20686     20685     20687     20685     20688
     20688     20689     20688     20690     20688     20691     20691     20692
     20691     20693     20693     20694     20693     20695     20693     20696
     20691     20697     20697     20698     20697     20699     20697     20700
     20701     20703     20701     20702     20703     20704     20701     20747
     20747     20748     20747     20749     20747     20744     20744     20745
     20744     20746     20701     20705     20705     20706     20705     20707
     20705     20708     20708     20739     20739     20744     20739     20740
     20740     20741     20740     20742     20740     20743     20708     20709
     20709     20710     20709     20711     20711     20712     20711     20713
     20711     20714     20714     20715     20714     20737     20737     20738
     20737     20739     20714     20716     20716     20717     20716     20726
     20726     20731     20731     20732     20731     20733     20731     20734
     20734     20735     20734     20736     20734     20737     20726     20727
     20727     20728     20727     20729     20727     20730     20716     20718
     20718     20719     20718     20720     20718     20721     20721     20722
     20721     20723     20721     20724     20724     20725     20724     20726
     20724     20750     20750     20751     20750     20752     20752     20753
     20752     20754     20752     20755     20750     20756     20756     20757
     20756     20758     20756     20759     20759     20760     20759     20761
     20759     20762     20762     20763     20762     20764     20762     20765
     20765     20766     20765     20767     20767     20768     20767     20769
     20767     20770     20765     20771     20771     20772     20771     20773
     20771     20774     20775     20777     20775     20776     20777     20778
     20775     20821     20821     20822     20821     20823     20821     20818
     20818     20819     20818     20820     20775     20779     20779     20780
     20779     20781     20779     20782     20782     20813     20813     20818
     20813     20814     20814     20815     20814     20816     20814     20817
     20782     20783     20783     20784     20783     20785     20785     20786
     20785     20787     20785     20788     20788     20789     20788     20811
     20811     20812     20811     20813     20788     20790     20790     20791
     20790     20800     20800     20805     20805     20806     20805     20807
     20805     20808     20808     20809     20808     20810     20808     20811
     20800     20801     20801     20802     20801     20803     20801     20804
     20790     20792     20792     20793     20792     20794     20792     20795
     20795     20796     20795     20797     20795     20798     20798     20799
     20798     20800     20798     20824     20824     20825     20824     20826
     20826     20827     20826     20828     20826     20829     20824     20830
     20830     20831     20830     20832     20830     20833     20833     20834
     20833     20835     20833     20836     20836     20837     20836     20838
     20836     20839     20839     20840     20839     20841     20841     20842
     20841     20843     20841     20844     20839     20845     20845     20846
     20845     20847     20845     20848     20849     20851     20849     20850
     20851     20852     20849     20895     20895     20896     20895     20897
     20895     20892     20892     20893     20892     20894     20849     20853
     20853     20854     20853     20855     20853     20856     20856     20887
     20887     20892     20887     20888     20888     20889     20888     20890
     20888     20891     20856     20857     20857     20858     20857     20859
     20859     20860     20859     20861     20859     20862     20862     20863
     20862     20885     20885     20886     20885     20887     20862     20864
     20864     20865     20864     20874     20874     20879     20879     20880
     20879     20881     20879     20882     20882     20883     20882     20884
     20882     20885     20874     20875     20875     20876     20875     20877
     20875     20878     20864     20866     20866     20867     20866     20868
     20866     20869     20869     20870     20869     20871     20869     20872
     20872     20873     20872     20874     20872     20898     20898     20899
     20898     20900     20900     20901     20900     20902     20900     20903
     20898     20904     20904     20905     20904     20906     20904     20907
     20907     20908     20907     20909     20907     20910     20910     20911
     20910     20912     20910     20913     20913     20914     20913     20915
     20915     20916     20915     20917     20915     20918     20913     20919
     20919     20920     20919     20921     20919     20922     20923     20925
     20923     20924     20925     20926     20923     20969     20969     20970
     20969     20971     20969     20966     20966     20967     20966     20968
     20923     20927     20927     20928     20927     20929     20927     20930
     20930     20961     20961     20966     20961     20962     20962     20963
     20962     20964     20962     20965     20930     20931     20931     20932
     20931     20933     20933     20934     20933     20935     20933     20936
     20936     20937     20936     20959     20959     20960     20959     20961
     20936     20938     20938     20939     20938     20948     20948     20953
     20953     20954     20953     20955     20953     20956     20956     20957
     20956     20958     20956     20959     20948     20949     20949     20950
     20949     20951     20949     20952     20938     20940     20940     20941
     20940     20942     20940     20943     20943     20944     20943     20945
     20943     20946     20946     20947     20946     20948     20946     20972
     20972     20973     20972     20974     20974     20975     20974     20976
     20974     20977     20972     20978     20978     20979     20978     20980
     20978     20981     20981     20982     20981     20983     20981     20984
     20984     20985     20984     20986     20984     20987     20987     20988
     20987     20989     20989     20990     20989     20991     20989     20992
     20987     20993     20993     20994     20993     20995     20993     20996
     20997     20999     20997     20998     20999     21000     20997     21043
     21043     21044     21043     21045     21043     21040     21040     21041
     21040     21042     20997     21001     21001     21002     21001     21003
     21001     21004     21004     21035     21035     21040     21035     21036
     21036     21037     21036     21038     21036     21039     21004     21005
     21005     21006     21005     21007     21007     21008     21007     21009
     21007     21010     21010     21011     21010     21033     21033     21034
     21033     21035     21010     21012     21012     21013     21012     21022
     21022     21027     21027     21028     21027     21029     21027     21030
     21030     21031     21030     21032     21030     21033     21022     21023
     21023     21024     21023     21025     21023     21026     21012     21014
     21014     21015     21014     21016     21014     21017     21017     21018
     21017     21019     21017     21020     21020     21021     21020     21022
     21020     21046     21046     21047     21046     21048     21048     21049
     21048     21050     21048     21051     21046     21052     21052     21053
     21052     21054     21052     21055     21055     21056     21055     21057
     21055     21058     21058     21059     21058     21060     21058     21061
     21061     21062     21061     21063     21063     21064     21063     21065
     21063     21066     21061     21067     21067     21068     21067     21069
     21067     21070     21071     21073     21071     21072     21073     21074
     21071     21117     21117     21118     21117     21119     21117     21114
     21114     21115     21114     21116     21071     21075     21075     21076
     21075     21077     21075     21078     21078     21109     21109     21114
     21109     21110     21110     21111     21110     21112     21110     21113
     21078     21079     21079     21080     21079     21081     21081     21082
     21081     21083     21081     21084     21084     21085     21084     21107
     21107     21108     21107     21109     21084     21086     21086     21087
     21086     21096     21096     21101     21101     21102     21101     21103
     21101     21104     21104     21105     21104     21106     21104     21107
     21096     21097     21097     21098     21097     21099     21097     21100
     21086     21088     21088     21089     21088     21090     21088     21091
     21091     21092     21091     21093     21091     21094     21094     21095
     21094     21096     21094     21120     21120     21121     21120     21122
     21122     21123     21122     21124     21122     21125     21120     21126
     21126     21127     21126     21128     21126     21129     21129     21130
     21129     21131     21129     21132     21132     21133     21132     21134
     21132     21135     21135     21136     21135     21137     21137     21138
     21137     21139     21137     21140     21135     21141     21141     21142
     21141     21143     21141     21144     21145     21149     21145     21153
     21145     21157     21149     21150     21149     21151     21149     21152
     21153     21154     21153     21155     21153     21156     21157     21158
     21157     21159     21157     21160     21145     21146     21146     21147
     21146     21148     21146     21161     21161     21162     21161     21163
     21161     21167     21168     21169     21167     21164     21164     21168
     21164     21165     21164     21166     21169     21170     21169     21171
     21169     21172     21172     21173     21172     21180     21172     21174
     21180     21181     21180     21182     21180     21183     21174     21175
     21175     21177     21175     21176     21177     21178     21177     21179
     21177     21189     21189     21190     21189     21191     21189     21192
     21192     21193     21192     21194     21192     21195     21195     21196
     21195     21197     21195     21198     21198     21199     21198     21200
     21198     21201     21201     21202     21201     21203     21201     21204
     21204     21205     21204     21206     21204     21207     21207     21208
     21207     21209     21209     21210     21209     21211     21211     21212
     21211     21213     21211     21214     21214     21215     21214     21216
     21214     21217     21217     21218     21217     21219     21217     21220
     21220     21221     21220     21222     21220     21223     21223     21224
     21223     21225     21223     21226     21226     21227     21226     21228
     21226     21229     21229     21230     21229     21231     21229     21232
     21232     21233     21232     21234     21232     21235     21183     21184
     21184     21186     21184     21185     21186     21187     21186     21188
     21186     21236     21236     21237     21236     21238     21236     21239
     21239     21240     21239     21241     21239     21242     21242     21243
     21242     21244     21242     21245     21245     21246     21245     21247
     21245     21248     21248     21249     21248     21250     21248     21251
     21251     21252     21251     21253     21251     21254     21254     21255
     21254     21256     21254     21257     21257     21258     21257     21259
     21257     21260     21260     21261     21260     21262     21260     21263
     21263     21264     21263     21265     21263     21266     21266     21267
     21266     21268     21266     21269     21269     21270     21269     21271
     21269     21272     21272     21273     21272     21274     21272     21275
     21275     21276     21275     21277     21275     21278     21279     21283
     21279     21287     21279     21291     21283     21284     21283     21285
     21283     21286     21287     21288     21287     21289     21287     21290
     21291     21292     21291     21293     21291     21294     21279     21280
     21280     21281     21280     21282     21280     21295     21295     21296
     21295     21297     21295     21301     21302     21303     21301     21298
     21298     21302     21298     21299     21298     21300     21303     21304
     21303     21305     21303     21306     21306     21307     21306     21314
     21306     21308     21314     21315     21314     21316     21314     21317
     21308     21309     21309     21311     21309     21310     21311     21312
     21311     21313     21311     21323     21323     21324     21323     21325
     21323     21326     21326     21327     21326     21328     21326     21329
     21329     21330     21329     21331     21329     21332     21332     21333
     21332     21334     21332     21335     21335     21336     21335     21337
     21335     21338     21338     21339     21338     21340     21338     21341
     21341     21342     21341     21343     21343     21344     21343     21345
     21345     21346     21345     21347     21345     21348     21348     21349
     21348     21350     21348     21351     21351     21352     21351     21353
     21351     21354     21354     21355     21354     21356     21354     21357
     21357     21358     21357     21359     21357     21360     21360     21361
     21360     21362     21360     21363     21363     21364     21363     21365
     21363     21366     21366     21367     21366     21368     21366     21369
     21317     21318     21318     21320     21318     21319     21320     21321
     21320     21322     21320     21370     21370     21371     21370     21372
     21370     21373     21373     21374     21373     21375     21373     21376
     21376     21377     21376     21378     21376     21379     21379     21380
     21379     21381     21379     21382     21382     21383     21382     21384
     21382     21385     21385     21386     21385     21387     21385     21388
     21388     21389     21388     21390     21388     21391     21391     21392
     21391     21393     21391     21394     21394     21395     21394     21396
     21394     21397     21397     21398     21397     21399     21397     21400
     21400     21401     21400     21402     21400     21403     21403     21404
     21403     21405     21403     21406     21406     21407     21406     21408
     21406     21409     21409     21410     21409     21411     21409     21412
     21413     21417     21413     21421     21413     21425     21417     21418
     21417     21419     21417     21420     21421     21422     21421     21423
     21421     21424     21425     21426     21425     21427     21425     21428
     21413     21414     21414     21415     21414     21416     21414     21429
     21429     21430     21429     21431     21429     21435     21436     21437
     21435     21432     21432     21436     21432     21433     21432     21434
     21437     21438     21437     21439     21437     21440     21440     21441
     21440     21448     21440     21442     21448     21449     21448     21450
     21448     21451     21442     21443     21443     21445     21443     21444
     21445     21446     21445     21447     21445     21457     21457     21458
     21457     21459     21457     21460     21460     21461     21460     21462
     21460     21463     21463     21464     21463     21465     21463     21466
     21466     21467     21466     21468     21466     21469     21469     21470
     21469     21471     21469     21472     21472     21473     21472     21474
     21472     21475     21475     21476     21475     21477     21477     21478
     21477     21479     21479     21480     21479     21481     21479     21482
     21482     21483     21482     21484     21482     21485     21485     21486
     21485     21487     21485     21488     21488     21489     21488     21490
     21488     21491     21491     21492     21491     21493     21491     21494
     21494     21495     21494     21496     21494     21497     21497     21498
     21497     21499     21497     21500     21500     21501     21500     21502
     21500     21503     21451     21452     21452     21454     21452     21453
     21454     21455     21454     21456     21454     21504     21504     21505
     21504     21506     21504     21507     21507     21508     21507     21509
     21507     21510     21510     21511     21510     21512     21510     21513
     21513     21514     21513     21515     21513     21516     21516     21517
     21516     21518     21516     21519     21519     21520     21519     21521
     21519     21522     21522     21523     21522     21524     21522     21525
     21525     21526     21525     21527     21525     21528     21528     21529
     21528     21530     21528     21531     21531     21532     21531     21533
     21531     21534     21534     21535     21534     21536     21534     21537
     21537     21538     21537     21539     21537     21540     21540     21541
     21540     21542     21540     21543     21543     21544     21543     21545
     21543     21546     21547     21551     21547     21555     21547     21559
     21551     21552     21551     21553     21551     21554     21555     21556
     21555     21557     21555     21558     21559     21560     21559     21561
     21559     21562     21547     21548     21548     21549     21548     21550
     21548     21563     21563     21564     21563     21565     21563     21569
     21570     21571     21569     21566     21566     21570     21566     21567
     21566     21568     21571     21572     21571     21573     21571     21574
     21574     21575     21574     21582     21574     21576     21582     21583
     21582     21584     21582     21585     21576     21577     21577     21579
     21577     21578     21579     21580     21579     21581     21579     21591
     21591     21592     21591     21593     21591     21594     21594     21595
     21594     21596     21594     21597     21597     21598     21597     21599
     21597     21600     21600     21601     21600     21602     21600     21603
     21603     21604     21603     21605     21603     21606     21606     21607
     21606     21608     21606     21609     21609     21610     21609     21611
     21611     21612     21611     21613     21613     21614     21613     21615
     21613     21616     21616     21617     21616     21618     21616     21619
     21619     21620     21619     21621     21619     21622     21622     21623
     21622     21624     21622     21625     21625     21626     21625     21627
     21625     21628     21628     21629     21628     21630     21628     21631
     21631     21632     21631     21633     21631     21634     21634     21635
     21634     21636     21634     21637     21585     21586     21586     21588
     21586     21587     21588     21589     21588     21590     21588     21638
     21638     21639     21638     21640     21638     21641     21641     21642
     21641     21643     21641     21644     21644     21645     21644     21646
     21644     21647     21647     21648     21647     21649     21647     21650
     21650     21651     21650     21652     21650     21653     21653     21654
     21653     21655     21653     21656     21656     21657     21656     21658
     21656     21659     21659     21660     21659     21661     21659     21662
     21662     21663     21662     21664     21662     21665     21665     21666
     21665     21667     21665     21668     21668     21669     21668     21670
     21668     21671     21671     21672     21671     21673     21671     21674
     21674     21675     21674     21676     21674     21677     21677     21678
     21677     21679     21677     21680     21681     21685     21681     21689
     21681     21693     21685     21686     21685     21687     21685     21688
     21689     21690     21689     21691     21689     21692     21693     21694
     21693     21695     21693     21696     21681     21682     21682     21683
     21682     21684     21682     21697     21697     21698     21697     21699
     21697     21703     21704     21705     21703     21700     21700     21704
     21700     21701     21700     21702     21705     21706     21705     21707
     21705     21708     21708     21709     21708     21716     21708     21710
     21716     21717     21716     21718     21716     21719     21710     21711
     21711     21713     21711     21712     21713     21714     21713     21715
     21713     21725     21725     21726     21725     21727     21725     21728
     21728     21729     21728     21730     21728     21731     21731     21732
     21731     21733     21731     21734     21734     21735     21734     21736
     21734     21737     21737     21738     21737     21739     21737     21740
     21740     21741     21740     21742     21740     21743     21743     21744
     21743     21745     21745     21746     21745     21747     21747     21748
     21747     21749     21747     21750     21750     21751     21750     21752
     21750     21753     21753     21754     21753     21755     21753     21756
     21756     21757     21756     21758     21756     21759     21759     21760
     21759     21761     21759     21762     21762     21763     21762     21764
     21762     21765     21765     21766     21765     21767     21765     21768
     21768     21769     21768     21770     21768     21771     21719     21720
     21720     21722     21720     21721     21722     21723     21722     21724
     21722     21772     21772     21773     21772     21774     21772     21775
     21775     21776     21775     21777     21775     21778     21778     21779
     21778     21780     21778     21781     21781     21782     21781     21783
     21781     21784     21784     21785     21784     21786     21784     21787
     21787     21788     21787     21789     21787     21790     21790     21791
     21790     21792     21790     21793     21793     21794     21793     21795
     21793     21796     21796     21797     21796     21798     21796     21799
     21799     21800     21799     21801     21799     21802     21802     21803
     21802     21804     21802     21805     21805     21806     21805     21807
     21805     21808     21808     21809     21808     21810     21808     21811
     21811     21812     21811     21813     21811     21814     21815     21819
     21815     21823     21815     21827     21819     21820     21819     21821
     21819     21822     21823     21824     21823     21825     21823     21826
     21827     21828     21827     21829     21827     21830     21815     21816
     21816     21817     21816     21818     21816     21831     21831     21832
     21831     21833     21831     21837     21838     21839     21837     21834
     21834     21838     21834     21835     21834     21836     21839     21840
     21839     21841     21839     21842     21842     21843     21842     21850
     21842     21844     21850     21851     21850     21852     21850     21853
     21844     21845     21845     21847     21845     21846     21847     21848
     21847     21849     21847     21859     21859     21860     21859     21861
     21859     21862     21862     21863     21862     21864     21862     21865
     21865     21866     21865     21867     21865     21868     21868     21869
     21868     21870     21868     21871     21871     21872     21871     21873
     21871     21874     21874     21875     21874     21876     21874     21877
     21877     21878     21877     21879     21879     21880     21879     21881
     21881     21882     21881     21883     21881     21884     21884     21885
     21884     21886     21884     21887     21887     21888     21887     21889
     21887     21890     21890     21891     21890     21892     21890     21893
     21893     21894     21893     21895     21893     21896     21896     21897
     21896     21898     21896     21899     21899     21900     21899     21901
     21899     21902     21902     21903     21902     21904     21902     21905
     21853     21854     21854     21856     21854     21855     21856     21857
     21856     21858     21856     21906     21906     21907     21906     21908
     21906     21909     21909     21910     21909     21911     21909     21912
     21912     21913     21912     21914     21912     21915     21915     21916
     21915     21917     21915     21918     21918     21919     21918     21920
     21918     21921     21921     21922     21921     21923     21921     21924
     21924     21925     21924     21926     21924     21927     21927     21928
     21927     21929     21927     21930     21930     21931     21930     21932
     21930     21933     21933     21934     21933     21935     21933     21936
     21936     21937     21936     21938     21936     21939     21939     21940
     21939     21941     21939     21942     21942     21943     21942     21944
     21942     21945     21945     21946     21945     21947     21945     21948
     21949     21953     21949     21957     21949     21961     21953     21954
     21953     21955     21953     21956     21957     21958     21957     21959
     21957     21960     21961     21962     21961     21963     21961     21964
     21949     21950     21950     21951     21950     21952     21950     21965
     21965     21966     21965     21967     21965     21971     21972     21973
     21971     21968     21968     21972     21968     21969     21968     21970
     21973     21974     21973     21975     21973     21976     21976     21977
     21976     21984     21976     21978     21984     21985     21984     21986
     21984     21987     21978     21979     21979     21981     21979     21980
     21981     21982     21981     21983     21981     21993     21993     21994
     21993     21995     21993     21996     21996     21997     21996     21998
     21996     21999     21999     22000     21999     22001     21999     22002
     22002     22003     22002     22004     22002     22005     22005     22006
     22005     22007     22005     22008     22008     22009     22008     22010
     22008     22011     22011     22012     22011     22013     22013     22014
     22013     22015     22015     22016     22015     22017     22015     22018
     22018     22019     22018     22020     22018     22021     22021     22022
     22021     22023     22021     22024     22024     22025     22024     22026
     22024     22027     22027     22028     22027     22029     22027     22030
     22030     22031     22030     22032     22030     22033     22033     22034
     22033     22035     22033     22036     22036     22037     22036     22038
     22036     22039     21987     21988     21988     21990     21988     21989
     21990     21991     21990     21992     21990     22040     22040     22041
     22040     22042     22040     22043     22043     22044     22043     22045
     22043     22046     22046     22047     22046     22048     22046     22049
     22049     22050     22049     22051     22049     22052     22052     22053
     22052     22054     22052     22055     22055     22056     22055     22057
     22055     22058     22058     22059     22058     22060     22058     22061
     22061     22062     22061     22063     22061     22064     22064     22065
     22064     22066     22064     22067     22067     22068     22067     22069
     22067     22070     22070     22071     22070     22072     22070     22073
     22073     22074     22073     22075     22073     22076     22076     22077
     22076     22078     22076     22079     22079     22080     22079     22081
     22079     22082     22083     22087     22083     22091     22083     22095
     22087     22088     22087     22089     22087     22090     22091     22092
     22091     22093     22091     22094     22095     22096     22095     22097
     22095     22098     22083     22084     22084     22085     22084     22086
     22084     22099     22099     22100     22099     22101     22099     22105
     22106     22107     22105     22102     22102     22106     22102     22103
     22102     22104     22107     22108     22107     22109     22107     22110
     22110     22111     22110     22118     22110     22112     22118     22119
     22118     22120     22118     22121     22112     22113     22113     22115
     22113     22114     22115     22116     22115     22117     22115     22127
     22127     22128     22127     22129     22127     22130     22130     22131
     22130     22132     22130     22133     22133     22134     22133     22135
     22133     22136     22136     22137     22136     22138     22136     22139
     22139     22140     22139     22141     22139     22142     22142     22143
     22142     22144     22142     22145     22145     22146     22145     22147
     22147     22148     22147     22149     22149     22150     22149     22151
     22149     22152     22152     22153     22152     22154     22152     22155
     22155     22156     22155     22157     22155     22158     22158     22159
     22158     22160     22158     22161     22161     22162     22161     22163
     22161     22164     22164     22165     22164     22166     22164     22167
     22167     22168     22167     22169     22167     22170     22170     22171
     22170     22172     22170     22173     22121     22122     22122     22124
     22122     22123     22124     22125     22124     22126     22124     22174
     22174     22175     22174     22176     22174     22177     22177     22178
     22177     22179     22177     22180     22180     22181     22180     22182
     22180     22183     22183     22184     22183     22185     22183     22186
     22186     22187     22186     22188     22186     22189     22189     22190
     22189     22191     22189     22192     22192     22193     22192     22194
     22192     22195     22195     22196     22195     22197     22195     22198
     22198     22199     22198     22200     22198     22201     22201     22202
     22201     22203     22201     22204     22204     22205     22204     22206
     22204     22207     22207     22208     22207     22209     22207     22210
     22210     22211     22210     22212     22210     22213     22213     22214
     22213     22215     22213     22216     22217     22221     22217     22225
     22217     22229     22221     22222     22221     22223     22221     22224
     22225     22226     22225     22227     22225     22228     22229     22230
     22229     22231     22229     22232     22217     22218     22218     22219
     22218     22220     22218     22233     22233     22234     22233     22235
     22233     22239     22240     22241     22239     22236     22236     22240
     22236     22237     22236     22238     22241     22242     22241     22243
     22241     22244     22244     22245     22244     22252     22244     22246
     22252     22253     22252     22254     22252     22255     22246     22247
     22247     22249     22247     22248     22249     22250     22249     22251
     22249     22261     22261     22262     22261     22263     22261     22264
     22264     22265     22264     22266     22264     22267     22267     22268
     22267     22269     22267     22270     22270     22271     22270     22272
     22270     22273     22273     22274     22273     22275     22273     22276
     22276     22277     22276     22278     22276     22279     22279     22280
     22279     22281     22281     22282     22281     22283     22283     22284
     22283     22285     22283     22286     22286     22287     22286     22288
     22286     22289     22289     22290     22289     22291     22289     22292
     22292     22293     22292     22294     22292     22295     22295     22296
     22295     22297     22295     22298     22298     22299     22298     22300
     22298     22301     22301     22302     22301     22303     22301     22304
     22304     22305     22304     22306     22304     22307     22255     22256
     22256     22258     22256     22257     22258     22259     22258     22260
     22258     22308     22308     22309     22308     22310     22308     22311
     22311     22312     22311     22313     22311     22314     22314     22315
     22314     22316     22314     22317     22317     22318     22317     22319
     22317     22320     22320     22321     22320     22322     22320     22323
     22323     22324     22323     22325     22323     22326     22326     22327
     22326     22328     22326     22329     22329     22330     22329     22331
     22329     22332     22332     22333     22332     22334     22332     22335
     22335     22336     22335     22337     22335     22338     22338     22339
     22338     22340     22338     22341     22341     22342     22341     22343
     22341     22344     22344     22345     22344     22346     22344     22347
     22347     22348     22347     22349     22347     22350     22351     22355
     22351     22359     22351     22363     22355     22356     22355     22357
     22355     22358     22359     22360     22359     22361     22359     22362
     22363     22364     22363     22365     22363     22366     22351     22352
     22352     22353     22352     22354     22352     22367     22367     22368
     22367     22369     22367     22373     22374     22375     22373     22370
     22370     22374     22370     22371     22370     22372     22375     22376
     22375     22377     22375     22378     22378     22379     22378     22386
     22378     22380     22386     22387     22386     22388     22386     22389
     22380     22381     22381     22383     22381     22382     22383     22384
     22383     22385     22383     22395     22395     22396     22395     22397
     22395     22398     22398     22399     22398     22400     22398     22401
     22401     22402     22401     22403     22401     22404     22404     22405
     22404     22406     22404     22407     22407     22408     22407     22409
     22407     22410     22410     22411     22410     22412     22410     22413
     22413     22414     22413     22415     22415     22416     22415     22417
     22417     22418     22417     22419     22417     22420     22420     22421
     22420     22422     22420     22423     22423     22424     22423     22425
     22423     22426     22426     22427     22426     22428     22426     22429
     22429     22430     22429     22431     22429     22432     22432     22433
     22432     22434     22432     22435     22435     22436     22435     22437
     22435     22438     22438     22439     22438     22440     22438     22441
     22389     22390     22390     22392     22390     22391     22392     22393
     22392     22394     22392     22442     22442     22443     22442     22444
     22442     22445     22445     22446     22445     22447     22445     22448
     22448     22449     22448     22450     22448     22451     22451     22452
     22451     22453     22451     22454     22454     22455     22454     22456
     22454     22457     22457     22458     22457     22459     22457     22460
     22460     22461     22460     22462     22460     22463     22463     22464
     22463     22465     22463     22466     22466     22467     22466     22468
     22466     22469     22469     22470     22469     22471     22469     22472
     22472     22473     22472     22474     22472     22475     22475     22476
     22475     22477     22475     22478     22478     22479     22478     22480
     22478     22481     22481     22482     22481     22483     22481     22484
     22485     22489     22485     22493     22485     22497     22489     22490
     22489     22491     22489     22492     22493     22494     22493     22495
     22493     22496     22497     22498     22497     22499     22497     22500
     22485     22486     22486     22487     22486     22488     22486     22501
     22501     22502     22501     22503     22501     22507     22508     22509
     22507     22504     22504     22508     22504     22505     22504     22506
     22509     22510     22509     22511     22509     22512     22512     22513
     22512     22520     22512     22514     22520     22521     22520     22522
     22520     22523     22514     22515     22515     22517     22515     22516
     22517     22518     22517     22519     22517     22529     22529     22530
     22529     22531     22529     22532     22532     22533     22532     22534
     22532     22535     22535     22536     22535     22537     22535     22538
     22538     22539     22538     22540     22538     22541     22541     22542
     22541     22543     22541     22544     22544     22545     22544     22546
     22544     22547     22547     22548     22547     22549     22549     22550
     22549     22551     22551     22552     22551     22553     22551     22554
     22554     22555     22554     22556     22554     22557     22557     22558
     22557     22559     22557     22560     22560     22561     22560     22562
     22560     22563     22563     22564     22563     22565     22563     22566
     22566     22567     22566     22568     22566     22569     22569     22570
     22569     22571     22569     22572     22572     22573     22572     22574
     22572     22575     22523     22524     22524     22526     22524     22525
     22526     22527     22526     22528     22526     22576     22576     22577
     22576     22578     22576     22579     22579     22580     22579     22581
     22579     22582     22582     22583     22582     22584     22582     22585
     22585     22586     22585     22587     22585     22588     22588     22589
     22588     22590     22588     22591     22591     22592     22591     22593
     22591     22594     22594     22595     22594     22596     22594     22597
     22597     22598     22597     22599     22597     22600     22600     22601
     22600     22602     22600     22603     22603     22604     22603     22605
     22603     22606     22606     22607     22606     22608     22606     22609
     22609     22610     22609     22611     22609     22612     22612     22613
     22612     22614     22612     22615     22615     22616     22615     22617
     22615     22618     22619     22623     22619     22627     22619     22631
     22623     22624     22623     22625     22623     22626     22627     22628
     22627     22629     22627     22630     22631     22632     22631     22633
     22631     22634     22619     22620     22620     22621     22620     22622
     22620     22635     22635     22636     22635     22637     22635     22641
     22642     22643     22641     22638     22638     22642     22638     22639
     22638     22640     22643     22644     22643     22645     22643     22646
     22646     22647     22646     22654     22646     22648     22654     22655
     22654     22656     22654     22657     22648     22649     22649     22651
     22649     22650     22651     22652     22651     22653     22651     22663
     22663     22664     22663     22665     22663     22666     22666     22667
     22666     22668     22666     22669     22669     22670     22669     22671
     22669     22672     22672     22673     22672     22674     22672     22675
     22675     22676     22675     22677     22675     22678     22678     22679
     22678     22680     22678     22681     22681     22682     22681     22683
     22683     22684     22683     22685     22685     22686     22685     22687
     22685     22688     22688     22689     22688     22690     22688     22691
     22691     22692     22691     22693     22691     22694     22694     22695
     22694     22696     22694     22697     22697     22698     22697     22699
     22697     22700     22700     22701     22700     22702     22700     22703
     22703     22704     22703     22705     22703     22706     22706     22707
     22706     22708     22706     22709     22657     22658     22658     22660
     22658     22659     22660     22661     22660     22662     22660     22710
     22710     22711     22710     22712     22710     22713     22713     22714
     22713     22715     22713     22716     22716     22717     22716     22718
     22716     22719     22719     22720     22719     22721     22719     22722
     22722     22723     22722     22724     22722     22725     22725     22726
     22725     22727     22725     22728     22728     22729     22728     22730
     22728     22731     22731     22732     22731     22733     22731     22734
     22734     22735     22734     22736     22734     22737     22737     22738
     22737     22739     22737     22740     22740     22741     22740     22742
     22740     22743     22743     22744     22743     22745     22743     22746
     22746     22747     22746     22748     22746     22749     22749     22750
     22749     22751     22749     22752     22753     22757     22753     22761
     22753     22765     22757     22758     22757     22759     22757     22760
     22761     22762     22761     22763     22761     22764     22765     22766
     22765     22767     22765     22768     22753     22754     22754     22755
     22754     22756     22754     22769     22769     22770     22769     22771
     22769     22775     22776     22777     22775     22772     22772     22776
     22772     22773     22772     22774     22777     22778     22777     22779
     22777     22780     22780     22781     22780     22788     22780     22782
     22788     22789     22788     22790     22788     22791     22782     22783
     22783     22785     22783     22784     22785     22786     22785     22787
     22785     22797     22797     22798     22797     22799     22797     22800
     22800     22801     22800     22802     22800     22803     22803     22804
     22803     22805     22803     22806     22806     22807     22806     22808
     22806     22809     22809     22810     22809     22811     22809     22812
     22812     22813     22812     22814     22812     22815     22815     22816
     22815     22817     22817     22818     22817     22819     22819     22820
     22819     22821     22819     22822     22822     22823     22822     22824
     22822     22825     22825     22826     22825     22827     22825     22828
     22828     22829     22828     22830     22828     22831     22831     22832
     22831     22833     22831     22834     22834     22835     22834     22836
     22834     22837     22837     22838     22837     22839     22837     22840
     22840     22841     22840     22842     22840     22843     22791     22792
     22792     22794     22792     22793     22794     22795     22794     22796
     22794     22844     22844     22845     22844     22846     22844     22847
     22847     22848     22847     22849     22847     22850     22850     22851
     22850     22852     22850     22853     22853     22854     22853     22855
     22853     22856     22856     22857     22856     22858     22856     22859
     22859     22860     22859     22861     22859     22862     22862     22863
     22862     22864     22862     22865     22865     22866     22865     22867
     22865     22868     22868     22869     22868     22870     22868     22871
     22871     22872     22871     22873     22871     22874     22874     22875
     22874     22876     22874     22877     22877     22878     22877     22879
     22877     22880     22880     22881     22880     22882     22880     22883
     22883     22884     22883     22885     22883     22886     22887     22891
     22887     22895     22887     22899     22891     22892     22891     22893
     22891     22894     22895     22896     22895     22897     22895     22898
     22899     22900     22899     22901     22899     22902     22887     22888
     22888     22889     22888     22890     22888     22903     22903     22904
     22903     22905     22903     22909     22910     22911     22909     22906
     22906     22910     22906     22907     22906     22908     22911     22912
     22911     22913     22911     22914     22914     22915     22914     22922
     22914     22916     22922     22923     22922     22924     22922     22925
     22916     22917     22917     22919     22917     22918     22919     22920
     22919     22921     22919     22931     22931     22932     22931     22933
     22931     22934     22934     22935     22934     22936     22934     22937
     22937     22938     22937     22939     22937     22940     22940     22941
     22940     22942     22940     22943     22943     22944     22943     22945
     22943     22946     22946     22947     22946     22948     22946     22949
     22949     22950     22949     22951     22951     22952     22951     22953
     22953     22954     22953     22955     22953     22956     22956     22957
     22956     22958     22956     22959     22959     22960     22959     22961
     22959     22962     22962     22963     22962     22964     22962     22965
     22965     22966     22965     22967     22965     22968     22968     22969
     22968     22970     22968     22971     22971     22972     22971     22973
     22971     22974     22974     22975     22974     22976     22974     22977
     22925     22926     22926     22928     22926     22927     22928     22929
     22928     22930     22928     22978     22978     22979     22978     22980
     22978     22981     22981     22982     22981     22983     22981     22984
     22984     22985     22984     22986     22984     22987     22987     22988
     22987     22989     22987     22990     22990     22991     22990     22992
     22990     22993     22993     22994     22993     22995     22993     22996
     22996     22997     22996     22998     22996     22999     22999     23000
     22999     23001     22999     23002     23002     23003     23002     23004
     23002     23005     23005     23006     23005     23007     23005     23008
     23008     23009     23008     23010     23008     23011     23011     23012
     23011     23013     23011     23014     23014     23015     23014     23016
     23014     23017     23017     23018     23017     23019     23017     23020
     23021     23025     23021     23029     23021     23033     23025     23026
     23025     23027     23025     23028     23029     23030     23029     23031
     23029     23032     23033     23034     23033     23035     23033     23036
     23021     23022     23022     23023     23022     23024     23022     23037
     23037     23038     23037     23039     23037     23043     23044     23045
     23043     23040     23040     23044     23040     23041     23040     23042
     23045     23046     23045     23047     23045     23048     23048     23049
     23048     23056     23048     23050     23056     23057     23056     23058
     23056     23059     23050     23051     23051     23053     23051     23052
     23053     23054     23053     23055     23053     23065     23065     23066
     23065     23067     23065     23068     23068     23069     23068     23070
     23068     23071     23071     23072     23071     23073     23071     23074
     23074     23075     23074     23076     23074     23077     23077     23078
     23077     23079     23077     23080     23080     23081     23080     23082
     23080     23083     23083     23084     23083     23085     23085     23086
     23085     23087     23087     23088     23087     23089     23087     23090
     23090     23091     23090     23092     23090     23093     23093     23094
     23093     23095     23093     23096     23096     23097     23096     23098
     23096     23099     23099     23100     23099     23101     23099     23102
     23102     23103     23102     23104     23102     23105     23105     23106
     23105     23107     23105     23108     23108     23109     23108     23110
     23108     23111     23059     23060     23060     23062     23060     23061
     23062     23063     23062     23064     23062     23112     23112     23113
     23112     23114     23112     23115     23115     23116     23115     23117
     23115     23118     23118     23119     23118     23120     23118     23121
     23121     23122     23121     23123     23121     23124     23124     23125
     23124     23126     23124     23127     23127     23128     23127     23129
     23127     23130     23130     23131     23130     23132     23130     23133
     23133     23134     23133     23135     23133     23136     23136     23137
     23136     23138     23136     23139     23139     23140     23139     23141
     23139     23142     23142     23143     23142     23144     23142     23145
     23145     23146     23145     23147     23145     23148     23148     23149
     23148     23150     23148     23151     23151     23152     23151     23153
     23151     23154     23155     23159     23155     23163     23155     23167
     23159     23160     23159     23161     23159     23162     23163     23164
     23163     23165     23163     23166     23167     23168     23167     23169
     23167     23170     23155     23156     23156     23157     23156     23158
     23156     23171     23171     23172     23171     23173     23171     23177
     23178     23179     23177     23174     23174     23178     23174     23175
     23174     23176     23179     23180     23179     23181     23179     23182
     23182     23183     23182     23190     23182     23184     23190     23191
     23190     23192     23190     23193     23184     23185     23185     23187
     23185     23186     23187     23188     23187     23189     23187     23199
     23199     23200     23199     23201     23199     23202     23202     23203
     23202     23204     23202     23205     23205     23206     23205     23207
     23205     23208     23208     23209     23208     23210     23208     23211
     23211     23212     23211     23213     23211     23214     23214     23215
     23214     23216     23214     23217     23217     23218     23217     23219
     23219     23220     23219     23221     23221     23222     23221     23223
     23221     23224     23224     23225     23224     23226     23224     23227
     23227     23228     23227     23229     23227     23230     23230     23231
     23230     23232     23230     23233     23233     23234     23233     23235
     23233     23236     23236     23237     23236     23238     23236     23239
     23239     23240     23239     23241     23239     23242     23242     23243
     23242     23244     23242     23245     23193     23194     23194     23196
     23194     23195     23196     23197     23196     23198     23196     23246
     23246     23247     23246     23248     23246     23249     23249     23250
     23249     23251     23249     23252     23252     23253     23252     23254
     23252     23255     23255     23256     23255     23257     23255     23258
     23258     23259     23258     23260     23258     23261     23261     23262
     23261     23263     23261     23264     23264     23265     23264     23266
     23264     23267     23267     23268     23267     23269     23267     23270
     23270     23271     23270     23272     23270     23273     23273     23274
     23273     23275     23273     23276     23276     23277     23276     23278
     23276     23279     23279     23280     23279     23281     23279     23282
     23282     23283     23282     23284     23282     23285     23285     23286
     23285     23287     23285     23288     23289     23293     23289     23297
     23289     23301     23293     23294     23293     23295     23293     23296
     23297     23298     23297     23299     23297     23300     23301     23302
     23301     23303     23301     23304     23289     23290     23290     23291
     23290     23292     23290     23305     23305     23306     23305     23307
     23305     23311     23312     23313     23311     23308     23308     23312
     23308     23309     23308     23310     23313     23314     23313     23315
     23313     23316     23316     23317     23316     23324     23316     23318
     23324     23325     23324     23326     23324     23327     23318     23319
     23319     23321     23319     23320     23321     23322     23321     23323
     23321     23333     23333     23334     23333     23335     23333     23336
     23336     23337     23336     23338     23336     23339     23339     23340
     23339     23341     23339     23342     23342     23343     23342     23344
     23342     23345     23345     23346     23345     23347     23345     23348
     23348     23349     23348     23350     23348     23351     23351     23352
     23351     23353     23353     23354     23353     23355     23355     23356
     23355     23357     23355     23358     23358     23359     23358     23360
     23358     23361     23361     23362     23361     23363     23361     23364
     23364     23365     23364     23366     23364     23367     23367     23368
     23367     23369     23367     23370     23370     23371     23370     23372
     23370     23373     23373     23374     23373     23375     23373     23376
     23376     23377     23376     23378     23376     23379     23327     23328
     23328     23330     23328     23329     23330     23331     23330     23332
     23330     23380     23380     23381     23380     23382     23380     23383
     23383     23384     23383     23385     23383     23386     23386     23387
     23386     23388     23386     23389     23389     23390     23389     23391
     23389     23392     23392     23393     23392     23394     23392     23395
     23395     23396     23395     23397     23395     23398     23398     23399
     23398     23400     23398     23401     23401     23402     23401     23403
     23401     23404     23404     23405     23404     23406     23404     23407
     23407     23408     23407     23409     23407     23410     23410     23411
     23410     23412     23410     23413     23413     23414     23413     23415
     23413     23416     23416     23417     23416     23418     23416     23419
     23419     23420     23419     23421     23419     23422     23423     23427
     23423     23431     23423     23435     23427     23428     23427     23429
     23427     23430     23431     23432     23431     23433     23431     23434
     23435     23436     23435     23437     23435     23438     23423     23424
     23424     23425     23424     23426     23424     23439     23439     23440
     23439     23441     23439     23445     23446     23447     23445     23442
     23442     23446     23442     23443     23442     23444     23447     23448
     23447     23449     23447     23450     23450     23451     23450     23458
     23450     23452     23458     23459     23458     23460     23458     23461
     23452     23453     23453     23455     23453     23454     23455     23456
     23455     23457     23455     23467     23467     23468     23467     23469
     23467     23470     23470     23471     23470     23472     23470     23473
     23473     23474     23473     23475     23473     23476     23476     23477
     23476     23478     23476     23479     23479     23480     23479     23481
     23479     23482     23482     23483     23482     23484     23482     23485
     23485     23486     23485     23487     23487     23488     23487     23489
     23489     23490     23489     23491     23489     23492     23492     23493
     23492     23494     23492     23495     23495     23496     23495     23497
     23495     23498     23498     23499     23498     23500     23498     23501
     23501     23502     23501     23503     23501     23504     23504     23505
     23504     23506     23504     23507     23507     23508     23507     23509
     23507     23510     23510     23511     23510     23512     23510     23513
     23461     23462     23462     23464     23462     23463     23464     23465
     23464     23466     23464     23514     23514     23515     23514     23516
     23514     23517     23517     23518     23517     23519     23517     23520
     23520     23521     23520     23522     23520     23523     23523     23524
     23523     23525     23523     23526     23526     23527     23526     23528
     23526     23529     23529     23530     23529     23531     23529     23532
     23532     23533     23532     23534     23532     23535     23535     23536
     23535     23537     23535     23538     23538     23539     23538     23540
     23538     23541     23541     23542     23541     23543     23541     23544
     23544     23545     23544     23546     23544     23547     23547     23548
     23547     23549     23547     23550     23550     23551     23550     23552
     23550     23553     23553     23554     23553     23555     23553     23556
     23557     23561     23557     23565     23557     23569     23561     23562
     23561     23563     23561     23564     23565     23566     23565     23567
     23565     23568     23569     23570     23569     23571     23569     23572
     23557     23558     23558     23559     23558     23560     23558     23573
     23573     23574     23573     23575     23573     23579     23580     23581
     23579     23576     23576     23580     23576     23577     23576     23578
     23581     23582     23581     23583     23581     23584     23584     23585
     23584     23592     23584     23586     23592     23593     23592     23594
     23592     23595     23586     23587     23587     23589     23587     23588
     23589     23590     23589     23591     23589     23601     23601     23602
     23601     23603     23601     23604     23604     23605     23604     23606
     23604     23607     23607     23608     23607     23609     23607     23610
     23610     23611     23610     23612     23610     23613     23613     23614
     23613     23615     23613     23616     23616     23617     23616     23618
     23616     23619     23619     23620     23619     23621     23621     23622
     23621     23623     23623     23624     23623     23625     23623     23626
     23626     23627     23626     23628     23626     23629     23629     23630
     23629     23631     23629     23632     23632     23633     23632     23634
     23632     23635     23635     23636     23635     23637     23635     23638
     23638     23639     23638     23640     23638     23641     23641     23642
     23641     23643     23641     23644     23644     23645     23644     23646
     23644     23647     23595     23596     23596     23598     23596     23597
     23598     23599     23598     23600     23598     23648     23648     23649
     23648     23650     23648     23651     23651     23652     23651     23653
     23651     23654     23654     23655     23654     23656     23654     23657
     23657     23658     23657     23659     23657     23660     23660     23661
     23660     23662     23660     23663     23663     23664     23663     23665
     23663     23666     23666     23667     23666     23668     23666     23669
     23669     23670     23669     23671     23669     23672     23672     23673
     23672     23674     23672     23675     23675     23676     23675     23677
     23675     23678     23678     23679     23678     23680     23678     23681
     23681     23682     23681     23683     23681     23684     23684     23685
     23684     23686     23684     23687     23687     23688     23687     23689
     23687     23690     23691     23695     23691     23699     23691     23703
     23695     23696     23695     23697     23695     23698     23699     23700
     23699     23701     23699     23702     23703     23704     23703     23705
     23703     23706     23691     23692     23692     23693     23692     23694
     23692     23707     23707     23708     23707     23709     23707     23713
     23714     23715     23713     23710     23710     23714     23710     23711
     23710     23712     23715     23716     23715     23717     23715     23718
     23718     23719     23718     23726     23718     23720     23726     23727
     23726     23728     23726     23729     23720     23721     23721     23723
     23721     23722     23723     23724     23723     23725     23723     23735
     23735     23736     23735     23737     23735     23738     23738     23739
     23738     23740     23738     23741     23741     23742     23741     23743
     23741     23744     23744     23745     23744     23746     23744     23747
     23747     23748     23747     23749     23747     23750     23750     23751
     23750     23752     23750     23753     23753     23754     23753     23755
     23755     23756     23755     23757     23757     23758     23757     23759
     23757     23760     23760     23761     23760     23762     23760     23763
     23763     23764     23763     23765     23763     23766     23766     23767
     23766     23768     23766     23769     23769     23770     23769     23771
     23769     23772     23772     23773     23772     23774     23772     23775
     23775     23776     23775     23777     23775     23778     23778     23779
     23778     23780     23778     23781     23729     23730     23730     23732
     23730     23731     23732     23733     23732     23734     23732     23782
     23782     23783     23782     23784     23782     23785     23785     23786
     23785     23787     23785     23788     23788     23789     23788     23790
     23788     23791     23791     23792     23791     23793     23791     23794
     23794     23795     23794     23796     23794     23797     23797     23798
     23797     23799     23797     23800     23800     23801     23800     23802
     23800     23803     23803     23804     23803     23805     23803     23806
     23806     23807     23806     23808     23806     23809     23809     23810
     23809     23811     23809     23812     23812     23813     23812     23814
     23812     23815     23815     23816     23815     23817     23815     23818
     23818     23819     23818     23820     23818     23821     23821     23822
     23821     23823     23821     23824     23825     23829     23825     23833
     23825     23837     23829     23830     23829     23831     23829     23832
     23833     23834     23833     23835     23833     23836     23837     23838
     23837     23839     23837     23840     23825     23826     23826     23827
     23826     23828     23826     23841     23841     23842     23841     23843
     23841     23847     23848     23849     23847     23844     23844     23848
     23844     23845     23844     23846     23849     23850     23849     23851
     23849     23852     23852     23853     23852     23860     23852     23854
     23860     23861     23860     23862     23860     23863     23854     23855
     23855     23857     23855     23856     23857     23858     23857     23859
     23857     23869     23869     23870     23869     23871     23869     23872
     23872     23873     23872     23874     23872     23875     23875     23876
     23875     23877     23875     23878     23878     23879     23878     23880
     23878     23881     23881     23882     23881     23883     23881     23884
     23884     23885     23884     23886     23884     23887     23887     23888
     23887     23889     23889     23890     23889     23891     23891     23892
     23891     23893     23891     23894     23894     23895     23894     23896
     23894     23897     23897     23898     23897     23899     23897     23900
     23900     23901     23900     23902     23900     23903     23903     23904
     23903     23905     23903     23906     23906     23907     23906     23908
     23906     23909     23909     23910     23909     23911     23909     23912
     23912     23913     23912     23914     23912     23915     23863     23864
     23864     23866     23864     23865     23866     23867     23866     23868
     23866     23916     23916     23917     23916     23918     23916     23919
     23919     23920     23919     23921     23919     23922     23922     23923
     23922     23924     23922     23925     23925     23926     23925     23927
     23925     23928     23928     23929     23928     23930     23928     23931
     23931     23932     23931     23933     23931     23934     23934     23935
     23934     23936     23934     23937     23937     23938     23937     23939
     23937     23940     23940     23941     23940     23942     23940     23943
     23943     23944     23943     23945     23943     23946     23946     23947
     23946     23948     23946     23949     23949     23950     23949     23951
     23949     23952     23952     23953     23952     23954     23952     23955
     23955     23956     23955     23957     23955     23958     23959     23963
     23959     23967     23959     23971     23963     23964     23963     23965
     23963     23966     23967     23968     23967     23969     23967     23970
     23971     23972     23971     23973     23971     23974     23959     23960
     23960     23961     23960     23962     23960     23975     23975     23976
     23975     23977     23975     23981     23982     23983     23981     23978
     23978     23982     23978     23979     23978     23980     23983     23984
     23983     23985     23983     23986     23986     23987     23986     23994
     23986     23988     23994     23995     23994     23996     23994     23997
     23988     23989     23989     23991     23989     23990     23991     23992
     23991     23993     23991     24003     24003     24004     24003     24005
     24003     24006     24006     24007     24006     24008     24006     24009
     24009     24010     24009     24011     24009     24012     24012     24013
     24012     24014     24012     24015     24015     24016     24015     24017
     24015     24018     24018     24019     24018     24020     24018     24021
     24021     24022     24021     24023     24023     24024     24023     24025
     24025     24026     24025     24027     24025     24028     24028     24029
     24028     24030     24028     24031     24031     24032     24031     24033
     24031     24034     24034     24035     24034     24036     24034     24037
     24037     24038     24037     24039     24037     24040     24040     24041
     24040     24042     24040     24043     24043     24044     24043     24045
     24043     24046     24046     24047     24046     24048     24046     24049
     23997     23998     23998     24000     23998     23999     24000     24001
     24000     24002     24000     24050     24050     24051     24050     24052
     24050     24053     24053     24054     24053     24055     24053     24056
     24056     24057     24056     24058     24056     24059     24059     24060
     24059     24061     24059     24062     24062     24063     24062     24064
     24062     24065     24065     24066     24065     24067     24065     24068
     24068     24069     24068     24070     24068     24071     24071     24072
     24071     24073     24071     24074     24074     24075     24074     24076
     24074     24077     24077     24078     24077     24079     24077     24080
     24080     24081     24080     24082     24080     24083     24083     24084
     24083     24085     24083     24086     24086     24087     24086     24088
     24086     24089     24089     24090     24089     24091     24089     24092
     24093     24097     24093     24101     24093     24105     24097     24098
     24097     24099     24097     24100     24101     24102     24101     24103
     24101     24104     24105     24106     24105     24107     24105     24108
     24093     24094     24094     24095     24094     24096     24094     24109
     24109     24110     24109     24111     24109     24115     24116     24117
     24115     24112     24112     24116     24112     24113     24112     24114
     24117     24118     24117     24119     24117     24120     24120     24121
     24120     24128     24120     24122     24128     24129     24128     24130
     24128     24131     24122     24123     24123     24125     24123     24124
     24125     24126     24125     24127     24125     24137     24137     24138
     24137     24139     24137     24140     24140     24141     24140     24142
     24140     24143     24143     24144     24143     24145     24143     24146
     24146     24147     24146     24148     24146     24149     24149     24150
     24149     24151     24149     24152     24152     24153     24152     24154
     24152     24155     24155     24156     24155     24157     24157     24158
     24157     24159     24159     24160     24159     24161     24159     24162
     24162     24163     24162     24164     24162     24165     24165     24166
     24165     24167     24165     24168     24168     24169     24168     24170
     24168     24171     24171     24172     24171     24173     24171     24174
     24174     24175     24174     24176     24174     24177     24177     24178
     24177     24179     24177     24180     24180     24181     24180     24182
     24180     24183     24131     24132     24132     24134     24132     24133
     24134     24135     24134     24136     24134     24184     24184     24185
     24184     24186     24184     24187     24187     24188     24187     24189
     24187     24190     24190     24191     24190     24192     24190     24193
     24193     24194     24193     24195     24193     24196     24196     24197
     24196     24198     24196     24199     24199     24200     24199     24201
     24199     24202     24202     24203     24202     24204     24202     24205
     24205     24206     24205     24207     24205     24208     24208     24209
     24208     24210     24208     24211     24211     24212     24211     24213
     24211     24214     24214     24215     24214     24216     24214     24217
     24217     24218     24217     24219     24217     24220     24220     24221
     24220     24222     24220     24223     24223     24224     24223     24225
     24223     24226     24227     24231     24227     24235     24227     24239
     24231     24232     24231     24233     24231     24234     24235     24236
     24235     24237     24235     24238     24239     24240     24239     24241
     24239     24242     24227     24228     24228     24229     24228     24230
     24228     24243     24243     24244     24243     24245     24243     24249
     24250     24251     24249     24246     24246     24250     24246     24247
     24246     24248     24251     24252     24251     24253     24251     24254
     24254     24255     24254     24262     24254     24256     24262     24263
     24262     24264     24262     24265     24256     24257     24257     24259
     24257     24258     24259     24260     24259     24261     24259     24271
     24271     24272     24271     24273     24271     24274     24274     24275
     24274     24276     24274     24277     24277     24278     24277     24279
     24277     24280     24280     24281     24280     24282     24280     24283
     24283     24284     24283     24285     24283     24286     24286     24287
     24286     24288     24286     24289     24289     24290     24289     24291
     24291     24292     24291     24293     24293     24294     24293     24295
     24293     24296     24296     24297     24296     24298     24296     24299
     24299     24300     24299     24301     24299     24302     24302     24303
     24302     24304     24302     24305     24305     24306     24305     24307
     24305     24308     24308     24309     24308     24310     24308     24311
     24311     24312     24311     24313     24311     24314     24314     24315
     24314     24316     24314     24317     24265     24266     24266     24268
     24266     24267     24268     24269     24268     24270     24268     24318
     24318     24319     24318     24320     24318     24321     24321     24322
     24321     24323     24321     24324     24324     24325     24324     24326
     24324     24327     24327     24328     24327     24329     24327     24330
     24330     24331     24330     24332     24330     24333     24333     24334
     24333     24335     24333     24336     24336     24337     24336     24338
     24336     24339     24339     24340     24339     24341     24339     24342
     24342     24343     24342     24344     24342     24345     24345     24346
     24345     24347     24345     24348     24348     24349     24348     24350
     24348     24351     24351     24352     24351     24353     24351     24354
     24354     24355     24354     24356     24354     24357     24357     24358
     24357     24359     24357     24360     24361     24365     24361     24369
     24361     24373     24365     24366     24365     24367     24365     24368
     24369     24370     24369     24371     24369     24372     24373     24374
     24373     24375     24373     24376     24361     24362     24362     24363
     24362     24364     24362     24377     24377     24378     24377     24379
     24377     24383     24384     24385     24383     24380     24380     24384
     24380     24381     24380     24382     24385     24386     24385     24387
     24385     24388     24388     24389     24388     24396     24388     24390
     24396     24397     24396     24398     24396     24399     24390     24391
     24391     24393     24391     24392     24393     24394     24393     24395
     24393     24405     24405     24406     24405     24407     24405     24408
     24408     24409     24408     24410     24408     24411     24411     24412
     24411     24413     24411     24414     24414     24415     24414     24416
     24414     24417     24417     24418     24417     24419     24417     24420
     24420     24421     24420     24422     24420     24423     24423     24424
     24423     24425     24425     24426     24425     24427     24427     24428
     24427     24429     24427     24430     24430     24431     24430     24432
     24430     24433     24433     24434     24433     24435     24433     24436
     24436     24437     24436     24438     24436     24439     24439     24440
     24439     24441     24439     24442     24442     24443     24442     24444
     24442     24445     24445     24446     24445     24447     24445     24448
     24448     24449     24448     24450     24448     24451     24399     24400
     24400     24402     24400     24401     24402     24403     24402     24404
     24402     24452     24452     24453     24452     24454     24452     24455
     24455     24456     24455     24457     24455     24458     24458     24459
     24458     24460     24458     24461     24461     24462     24461     24463
     24461     24464     24464     24465     24464     24466     24464     24467
     24467     24468     24467     24469     24467     24470     24470     24471
     24470     24472     24470     24473     24473     24474     24473     24475
     24473     24476     24476     24477     24476     24478     24476     24479
     24479     24480     24479     24481     24479     24482     24482     24483
     24482     24484     24482     24485     24485     24486     24485     24487
     24485     24488     24488     24489     24488     24490     24488     24491
     24491     24492     24491     24493     24491     24494     24495     24499
     24495     24503     24495     24507     24499     24500     24499     24501
     24499     24502     24503     24504     24503     24505     24503     24506
     24507     24508     24507     24509     24507     24510     24495     24496
     24496     24497     24496     24498     24496     24511     24511     24512
     24511     24513     24511     24517     24518     24519     24517     24514
     24514     24518     24514     24515     24514     24516     24519     24520
     24519     24521     24519     24522     24522     24523     24522     24530
     24522     24524     24530     24531     24530     24532     24530     24533
     24524     24525     24525     24527     24525     24526     24527     24528
     24527     24529     24527     24539     24539     24540     24539     24541
     24539     24542     24542     24543     24542     24544     24542     24545
     24545     24546     24545     24547     24545     24548     24548     24549
     24548     24550     24548     24551     24551     24552     24551     24553
     24551     24554     24554     24555     24554     24556     24554     24557
     24557     24558     24557     24559     24559     24560     24559     24561
     24561     24562     24561     24563     24561     24564     24564     24565
     24564     24566     24564     24567     24567     24568     24567     24569
     24567     24570     24570     24571     24570     24572     24570     24573
     24573     24574     24573     24575     24573     24576     24576     24577
     24576     24578     24576     24579     24579     24580     24579     24581
     24579     24582     24582     24583     24582     24584     24582     24585
     24533     24534     24534     24536     24534     24535     24536     24537
     24536     24538     24536     24586     24586     24587     24586     24588
     24586     24589     24589     24590     24589     24591     24589     24592
     24592     24593     24592     24594     24592     24595     24595     24596
     24595     24597     24595     24598     24598     24599     24598     24600
     24598     24601     24601     24602     24601     24603     24601     24604
     24604     24605     24604     24606     24604     24607     24607     24608
     24607     24609     24607     24610     24610     24611     24610     24612
     24610     24613     24613     24614     24613     24615     24613     24616
     24616     24617     24616     24618     24616     24619     24619     24620
     24619     24621     24619     24622     24622     24623     24622     24624
     24622     24625     24625     24626     24625     24627     24625     24628
     24629     24633     24629     24637     24629     24641     24633     24634
     24633     24635     24633     24636     24637     24638     24637     24639
     24637     24640     24641     24642     24641     24643     24641     24644
     24629     24630     24630     24631     24630     24632     24630     24645
     24645     24646     24645     24647     24645     24651     24652     24653
     24651     24648     24648     24652     24648     24649     24648     24650
     24653     24654     24653     24655     24653     24656     24656     24657
     24656     24664     24656     24658     24664     24665     24664     24666
     24664     24667     24658     24659     24659     24661     24659     24660
     24661     24662     24661     24663     24661     24673     24673     24674
     24673     24675     24673     24676     24676     24677     24676     24678
     24676     24679     24679     24680     24679     24681     24679     24682
     24682     24683     24682     24684     24682     24685     24685     24686
     24685     24687     24685     24688     24688     24689     24688     24690
     24688     24691     24691     24692     24691     24693     24693     24694
     24693     24695     24695     24696     24695     24697     24695     24698
     24698     24699     24698     24700     24698     24701     24701     24702
     24701     24703     24701     24704     24704     24705     24704     24706
     24704     24707     24707     24708     24707     24709     24707     24710
     24710     24711     24710     24712     24710     24713     24713     24714
     24713     24715     24713     24716     24716     24717     24716     24718
     24716     24719     24667     24668     24668     24670     24668     24669
     24670     24671     24670     24672     24670     24720     24720     24721
     24720     24722     24720     24723     24723     24724     24723     24725
     24723     24726     24726     24727     24726     24728     24726     24729
     24729     24730     24729     24731     24729     24732     24732     24733
     24732     24734     24732     24735     24735     24736     24735     24737
     24735     24738     24738     24739     24738     24740     24738     24741
     24741     24742     24741     24743     24741     24744     24744     24745
     24744     24746     24744     24747     24747     24748     24747     24749
     24747     24750     24750     24751     24750     24752     24750     24753
     24753     24754     24753     24755     24753     24756     24756     24757
     24756     24758     24756     24759     24759     24760     24759     24761
     24759     24762     24763     24767     24763     24771     24763     24775
     24767     24768     24767     24769     24767     24770     24771     24772
     24771     24773     24771     24774     24775     24776     24775     24777
     24775     24778     24763     24764     24764     24765     24764     24766
     24764     24779     24779     24780     24779     24781     24779     24785
     24786     24787     24785     24782     24782     24786     24782     24783
     24782     24784     24787     24788     24787     24789     24787     24790
     24790     24791     24790     24798     24790     24792     24798     24799
     24798     24800     24798     24801     24792     24793     24793     24795
     24793     24794     24795     24796     24795     24797     24795     24807
     24807     24808     24807     24809     24807     24810     24810     24811
     24810     24812     24810     24813     24813     24814     24813     24815
     24813     24816     24816     24817     24816     24818     24816     24819
     24819     24820     24819     24821     24819     24822     24822     24823
     24822     24824     24822     24825     24825     24826     24825     24827
     24827     24828     24827     24829     24829     24830     24829     24831
     24829     24832     24832     24833     24832     24834     24832     24835
     24835     24836     24835     24837     24835     24838     24838     24839
     24838     24840     24838     24841     24841     24842     24841     24843
     24841     24844     24844     24845     24844     24846     24844     24847
     24847     24848     24847     24849     24847     24850     24850     24851
     24850     24852     24850     24853     24801     24802     24802     24804
     24802     24803     24804     24805     24804     24806     24804     24854
     24854     24855     24854     24856     24854     24857     24857     24858
     24857     24859     24857     24860     24860     24861     24860     24862
     24860     24863     24863     24864     24863     24865     24863     24866
     24866     24867     24866     24868     24866     24869     24869     24870
     24869     24871     24869     24872     24872     24873     24872     24874
     24872     24875     24875     24876     24875     24877     24875     24878
     24878     24879     24878     24880     24878     24881     24881     24882
     24881     24883     24881     24884     24884     24885     24884     24886
     24884     24887     24887     24888     24887     24889     24887     24890
     24890     24891     24890     24892     24890     24893     24893     24894
     24893     24895     24893     24896     24897     24901     24897     24905
     24897     24909     24901     24902     24901     24903     24901     24904
     24905     24906     24905     24907     24905     24908     24909     24910
     24909     24911     24909     24912     24897     24898     24898     24899
     24898     24900     24898     24913     24913     24914     24913     24915
     24913     24919     24920     24921     24919     24916     24916     24920
     24916     24917     24916     24918     24921     24922     24921     24923
     24921     24924     24924     24925     24924     24932     24924     24926
     24932     24933     24932     24934     24932     24935     24926     24927
     24927     24929     24927     24928     24929     24930     24929     24931
     24929     24941     24941     24942     24941     24943     24941     24944
     24944     24945     24944     24946     24944     24947     24947     24948
     24947     24949     24947     24950     24950     24951     24950     24952
     24950     24953     24953     24954     24953     24955     24953     24956
     24956     24957     24956     24958     24956     24959     24959     24960
     24959     24961     24961     24962     24961     24963     24963     24964
     24963     24965     24963     24966     24966     24967     24966     24968
     24966     24969     24969     24970     24969     24971     24969     24972
     24972     24973     24972     24974     24972     24975     24975     24976
     24975     24977     24975     24978     24978     24979     24978     24980
     24978     24981     24981     24982     24981     24983     24981     24984
     24984     24985     24984     24986     24984     24987     24935     24936
     24936     24938     24936     24937     24938     24939     24938     24940
     24938     24988     24988     24989     24988     24990     24988     24991
     24991     24992     24991     24993     24991     24994     24994     24995
     24994     24996     24994     24997     24997     24998     24997     24999
     24997     25000     25000     25001     25000     25002     25000     25003
     25003     25004     25003     25005     25003     25006     25006     25007
     25006     25008     25006     25009     25009     25010     25009     25011
     25009     25012     25012     25013     25012     25014     25012     25015
     25015     25016     25015     25017     25015     25018     25018     25019
     25018     25020     25018     25021     25021     25022     25021     25023
     25021     25024     25024     25025     25024     25026     25024     25027
     25027     25028     25027     25029     25027     25030     25031     25035
     25031     25039     25031     25043     25035     25036     25035     25037
     25035     25038     25039     25040     25039     25041     25039     25042
     25043     25044     25043     25045     25043     25046     25031     25032
     25032     25033     25032     25034     25032     25047     25047     25048
     25047     25049     25047     25053     25054     25055     25053     25050
     25050     25054     25050     25051     25050     25052     25055     25056
     25055     25057     25055     25058     25058     25059     25058     25066
     25058     25060     25066     25067     25066     25068     25066     25069
     25060     25061     25061     25063     25061     25062     25063     25064
     25063     25065     25063     25075     25075     25076     25075     25077
     25075     25078     25078     25079     25078     25080     25078     25081
     25081     25082     25081     25083     25081     25084     25084     25085
     25084     25086     25084     25087     25087     25088     25087     25089
     25087     25090     25090     25091     25090     25092     25090     25093
     25093     25094     25093     25095     25095     25096     25095     25097
     25097     25098     25097     25099     25097     25100     25100     25101
     25100     25102     25100     25103     25103     25104     25103     25105
     25103     25106     25106     25107     25106     25108     25106     25109
     25109     25110     25109     25111     25109     25112     25112     25113
     25112     25114     25112     25115     25115     25116     25115     25117
     25115     25118     25118     25119     25118     25120     25118     25121
     25069     25070     25070     25072     25070     25071     25072     25073
     25072     25074     25072     25122     25122     25123     25122     25124
     25122     25125     25125     25126     25125     25127     25125     25128
     25128     25129     25128     25130     25128     25131     25131     25132
     25131     25133     25131     25134     25134     25135     25134     25136
     25134     25137     25137     25138     25137     25139     25137     25140
     25140     25141     25140     25142     25140     25143     25143     25144
     25143     25145     25143     25146     25146     25147     25146     25148
     25146     25149     25149     25150     25149     25151     25149     25152
     25152     25153     25152     25154     25152     25155     25155     25156
     25155     25157     25155     25158     25158     25159     25158     25160
     25158     25161     25161     25162     25161     25163     25161     25164
     25165     25169     25165     25173     25165     25177     25169     25170
     25169     25171     25169     25172     25173     25174     25173     25175
     25173     25176     25177     25178     25177     25179     25177     25180
     25165     25166     25166     25167     25166     25168     25166     25181
     25181     25182     25181     25183     25181     25187     25188     25189
     25187     25184     25184     25188     25184     25185     25184     25186
     25189     25190     25189     25191     25189     25192     25192     25193
     25192     25200     25192     25194     25200     25201     25200     25202
     25200     25203     25194     25195     25195     25197     25195     25196
     25197     25198     25197     25199     25197     25209     25209     25210
     25209     25211     25209     25212     25212     25213     25212     25214
     25212     25215     25215     25216     25215     25217     25215     25218
     25218     25219     25218     25220     25218     25221     25221     25222
     25221     25223     25221     25224     25224     25225     25224     25226
     25224     25227     25227     25228     25227     25229     25229     25230
     25229     25231     25231     25232     25231     25233     25231     25234
     25234     25235     25234     25236     25234     25237     25237     25238
     25237     25239     25237     25240     25240     25241     25240     25242
     25240     25243     25243     25244     25243     25245     25243     25246
     25246     25247     25246     25248     25246     25249     25249     25250
     25249     25251     25249     25252     25252     25253     25252     25254
     25252     25255     25203     25204     25204     25206     25204     25205
     25206     25207     25206     25208     25206     25256     25256     25257
     25256     25258     25256     25259     25259     25260     25259     25261
     25259     25262     25262     25263     25262     25264     25262     25265
     25265     25266     25265     25267     25265     25268     25268     25269
     25268     25270     25268     25271     25271     25272     25271     25273
     25271     25274     25274     25275     25274     25276     25274     25277
     25277     25278     25277     25279     25277     25280     25280     25281
     25280     25282     25280     25283     25283     25284     25283     25285
     25283     25286     25286     25287     25286     25288     25286     25289
     25289     25290     25289     25291     25289     25292     25292     25293
     25292     25294     25292     25295     25295     25296     25295     25297
     25295     25298     25299     25303     25299     25307     25299     25311
     25303     25304     25303     25305     25303     25306     25307     25308
     25307     25309     25307     25310     25311     25312     25311     25313
     25311     25314     25299     25300     25300     25301     25300     25302
     25300     25315     25315     25316     25315     25317     25315     25321
     25322     25323     25321     25318     25318     25322     25318     25319
     25318     25320     25323     25324     25323     25325     25323     25326
     25326     25327     25326     25334     25326     25328     25334     25335
     25334     25336     25334     25337     25328     25329     25329     25331
     25329     25330     25331     25332     25331     25333     25331     25343
     25343     25344     25343     25345     25343     25346     25346     25347
     25346     25348     25346     25349     25349     25350     25349     25351
     25349     25352     25352     25353     25352     25354     25352     25355
     25355     25356     25355     25357     25355     25358     25358     25359
     25358     25360     25358     25361     25361     25362     25361     25363
     25363     25364     25363     25365     25365     25366     25365     25367
     25365     25368     25368     25369     25368     25370     25368     25371
     25371     25372     25371     25373     25371     25374     25374     25375
     25374     25376     25374     25377     25377     25378     25377     25379
     25377     25380     25380     25381     25380     25382     25380     25383
     25383     25384     25383     25385     25383     25386     25386     25387
     25386     25388     25386     25389     25337     25338     25338     25340
     25338     25339     25340     25341     25340     25342     25340     25390
     25390     25391     25390     25392     25390     25393     25393     25394
     25393     25395     25393     25396     25396     25397     25396     25398
     25396     25399     25399     25400     25399     25401     25399     25402
     25402     25403     25402     25404     25402     25405     25405     25406
     25405     25407     25405     25408     25408     25409     25408     25410
     25408     25411     25411     25412     25411     25413     25411     25414
     25414     25415     25414     25416     25414     25417     25417     25418
     25417     25419     25417     25420     25420     25421     25420     25422
     25420     25423     25423     25424     25423     25425     25423     25426
     25426     25427     25426     25428     25426     25429     25429     25430
     25429     25431     25429     25432     25433     25437     25433     25441
     25433     25445     25437     25438     25437     25439     25437     25440
     25441     25442     25441     25443     25441     25444     25445     25446
     25445     25447     25445     25448     25433     25434     25434     25435
     25434     25436     25434     25449     25449     25450     25449     25451
     25449     25455     25456     25457     25455     25452     25452     25456
     25452     25453     25452     25454     25457     25458     25457     25459
     25457     25460     25460     25461     25460     25468     25460     25462
     25468     25469     25468     25470     25468     25471     25462     25463
     25463     25465     25463     25464     25465     25466     25465     25467
     25465     25477     25477     25478     25477     25479     25477     25480
     25480     25481     25480     25482     25480     25483     25483     25484
     25483     25485     25483     25486     25486     25487     25486     25488
     25486     25489     25489     25490     25489     25491     25489     25492
     25492     25493     25492     25494     25492     25495     25495     25496
     25495     25497     25497     25498     25497     25499     25499     25500
     25499     25501     25499     25502     25502     25503     25502     25504
     25502     25505     25505     25506     25505     25507     25505     25508
     25508     25509     25508     25510     25508     25511     25511     25512
     25511     25513     25511     25514     25514     25515     25514     25516
     25514     25517     25517     25518     25517     25519     25517     25520
     25520     25521     25520     25522     25520     25523     25471     25472
     25472     25474     25472     25473     25474     25475     25474     25476
     25474     25524     25524     25525     25524     25526     25524     25527
     25527     25528     25527     25529     25527     25530     25530     25531
     25530     25532     25530     25533     25533     25534     25533     25535
     25533     25536     25536     25537     25536     25538     25536     25539
     25539     25540     25539     25541     25539     25542     25542     25543
     25542     25544     25542     25545     25545     25546     25545     25547
     25545     25548     25548     25549     25548     25550     25548     25551
     25551     25552     25551     25553     25551     25554     25554     25555
     25554     25556     25554     25557     25557     25558     25557     25559
     25557     25560     25560     25561     25560     25562     25560     25563
     25563     25564     25563     25565     25563     25566     25567     25571
     25567     25575     25567     25579     25571     25572     25571     25573
     25571     25574     25575     25576     25575     25577     25575     25578
     25579     25580     25579     25581     25579     25582     25567     25568
     25568     25569     25568     25570     25568     25583     25583     25584
     25583     25585     25583     25589     25590     25591     25589     25586
     25586     25590     25586     25587     25586     25588     25591     25592
     25591     25593     25591     25594     25594     25595     25594     25602
     25594     25596     25602     25603     25602     25604     25602     25605
     25596     25597     25597     25599     25597     25598     25599     25600
     25599     25601     25599     25611     25611     25612     25611     25613
     25611     25614     25614     25615     25614     25616     25614     25617
     25617     25618     25617     25619     25617     25620     25620     25621
     25620     25622     25620     25623     25623     25624     25623     25625
     25623     25626     25626     25627     25626     25628     25626     25629
     25629     25630     25629     25631     25631     25632     25631     25633
     25633     25634     25633     25635     25633     25636     25636     25637
     25636     25638     25636     25639     25639     25640     25639     25641
     25639     25642     25642     25643     25642     25644     25642     25645
     25645     25646     25645     25647     25645     25648     25648     25649
     25648     25650     25648     25651     25651     25652     25651     25653
     25651     25654     25654     25655     25654     25656     25654     25657
     25605     25606     25606     25608     25606     25607     25608     25609
     25608     25610     25608     25658     25658     25659     25658     25660
     25658     25661     25661     25662     25661     25663     25661     25664
     25664     25665     25664     25666     25664     25667     25667     25668
     25667     25669     25667     25670     25670     25671     25670     25672
     25670     25673     25673     25674     25673     25675     25673     25676
     25676     25677     25676     25678     25676     25679     25679     25680
     25679     25681     25679     25682     25682     25683     25682     25684
     25682     25685     25685     25686     25685     25687     25685     25688
     25688     25689     25688     25690     25688     25691     25691     25692
     25691     25693     25691     25694     25694     25695     25694     25696
     25694     25697     25697     25698     25697     25699     25697     25700
     25701     25705     25701     25709     25701     25713     25705     25706
     25705     25707     25705     25708     25709     25710     25709     25711
     25709     25712     25713     25714     25713     25715     25713     25716
     25701     25702     25702     25703     25702     25704     25702     25717
     25717     25718     25717     25719     25717     25723     25724     25725
     25723     25720     25720     25724     25720     25721     25720     25722
     25725     25726     25725     25727     25725     25728     25728     25729
     25728     25736     25728     25730     25736     25737     25736     25738
     25736     25739     25730     25731     25731     25733     25731     25732
     25733     25734     25733     25735     25733     25745     25745     25746
     25745     25747     25745     25748     25748     25749     25748     25750
     25748     25751     25751     25752     25751     25753     25751     25754
     25754     25755     25754     25756     25754     25757     25757     25758
     25757     25759     25757     25760     25760     25761     25760     25762
     25760     25763     25763     25764     25763     25765     25765     25766
     25765     25767     25767     25768     25767     25769     25767     25770
     25770     25771     25770     25772     25770     25773     25773     25774
     25773     25775     25773     25776     25776     25777     25776     25778
     25776     25779     25779     25780     25779     25781     25779     25782
     25782     25783     25782     25784     25782     25785     25785     25786
     25785     25787     25785     25788     25788     25789     25788     25790
     25788     25791     25739     25740     25740     25742     25740     25741
     25742     25743     25742     25744     25742     25792     25792     25793
     25792     25794     25792     25795     25795     25796     25795     25797
     25795     25798     25798     25799     25798     25800     25798     25801
     25801     25802     25801     25803     25801     25804     25804     25805
     25804     25806     25804     25807     25807     25808     25807     25809
     25807     25810     25810     25811     25810     25812     25810     25813
     25813     25814     25813     25815     25813     25816     25816     25817
     25816     25818     25816     25819     25819     25820     25819     25821
     25819     25822     25822     25823     25822     25824     25822     25825
     25825     25826     25825     25827     25825     25828     25828     25829
     25828     25830     25828     25831     25831     25832     25831     25833
     25831     25834     25835     25839     25835     25843     25835     25847
     25839     25840     25839     25841     25839     25842     25843     25844
     25843     25845     25843     25846     25847     25848     25847     25849
     25847     25850     25835     25836     25836     25837     25836     25838
     25836     25851     25851     25852     25851     25853     25851     25857
     25858     25859     25857     25854     25854     25858     25854     25855
     25854     25856     25859     25860     25859     25861     25859     25862
     25862     25863     25862     25870     25862     25864     25870     25871
     25870     25872     25870     25873     25864     25865     25865     25867
     25865     25866     25867     25868     25867     25869     25867     25879
     25879     25880     25879     25881     25879     25882     25882     25883
     25882     25884     25882     25885     25885     25886     25885     25887
     25885     25888     25888     25889     25888     25890     25888     25891
     25891     25892     25891     25893     25891     25894     25894     25895
     25894     25896     25894     25897     25897     25898     25897     25899
     25899     25900     25899     25901     25901     25902     25901     25903
     25901     25904     25904     25905     25904     25906     25904     25907
     25907     25908     25907     25909     25907     25910     25910     25911
     25910     25912     25910     25913     25913     25914     25913     25915
     25913     25916     25916     25917     25916     25918     25916     25919
     25919     25920     25919     25921     25919     25922     25922     25923
     25922     25924     25922     25925     25873     25874     25874     25876
     25874     25875     25876     25877     25876     25878     25876     25926
     25926     25927     25926     25928     25926     25929     25929     25930
     25929     25931     25929     25932     25932     25933     25932     25934
     25932     25935     25935     25936     25935     25937     25935     25938
     25938     25939     25938     25940     25938     25941     25941     25942
     25941     25943     25941     25944     25944     25945     25944     25946
     25944     25947     25947     25948     25947     25949     25947     25950
     25950     25951     25950     25952     25950     25953     25953     25954
     25953     25955     25953     25956     25956     25957     25956     25958
     25956     25959     25959     25960     25959     25961     25959     25962
     25962     25963     25962     25964     25962     25965     25965     25966
     25965     25967     25965     25968     25969     25973     25969     25977
     25969     25981     25973     25974     25973     25975     25973     25976
     25977     25978     25977     25979     25977     25980     25981     25982
     25981     25983     25981     25984     25969     25970     25970     25971
     25970     25972     25970     25985     25985     25986     25985     25987
     25985     25991     25992     25993     25991     25988     25988     25992
     25988     25989     25988     25990     25993     25994     25993     25995
     25993     25996     25996     25997     25996     26004     25996     25998
     26004     26005     26004     26006     26004     26007     25998     25999
     25999     26001     25999     26000     26001     26002     26001     26003
     26001     26013     26013     26014     26013     26015     26013     26016
     26016     26017     26016     26018     26016     26019     26019     26020
     26019     26021     26019     26022     26022     26023     26022     26024
     26022     26025     26025     26026     26025     26027     26025     26028
     26028     26029     26028     26030     26028     26031     26031     26032
     26031     26033     26033     26034     26033     26035     26035     26036
     26035     26037     26035     26038     26038     26039     26038     26040
     26038     26041     26041     26042     26041     26043     26041     26044
     26044     26045     26044     26046     26044     26047     26047     26048
     26047     26049     26047     26050     26050     26051     26050     26052
     26050     26053     26053     26054     26053     26055     26053     26056
     26056     26057     26056     26058     26056     26059     26007     26008
     26008     26010     26008     26009     26010     26011     26010     26012
     26010     26060     26060     26061     26060     26062     26060     26063
     26063     26064     26063     26065     26063     26066     26066     26067
     26066     26068     26066     26069     26069     26070     26069     26071
     26069     26072     26072     26073     26072     26074     26072     26075
     26075     26076     26075     26077     26075     26078     26078     26079
     26078     26080     26078     26081     26081     26082     26081     26083
     26081     26084     26084     26085     26084     26086     26084     26087
     26087     26088     26087     26089     26087     26090     26090     26091
     26090     26092     26090     26093     26093     26094     26093     26095
     26093     26096     26096     26097     26096     26098     26096     26099
     26099     26100     26099     26101     26099     26102     26103     26107
     26103     26111     26103     26115     26107     26108     26107     26109
     26107     26110     26111     26112     26111     26113     26111     26114
     26115     26116     26115     26117     26115     26118     26103     26104
     26104     26105     26104     26106     26104     26119     26119     26120
     26119     26121     26119     26125     26126     26127     26125     26122
     26122     26126     26122     26123     26122     26124     26127     26128
     26127     26129     26127     26130     26130     26131     26130     26138
     26130     26132     26138     26139     26138     26140     26138     26141
     26132     26133     26133     26135     26133     26134     26135     26136
     26135     26137     26135     26147     26147     26148     26147     26149
     26147     26150     26150     26151     26150     26152     26150     26153
     26153     26154     26153     26155     26153     26156     26156     26157
     26156     26158     26156     26159     26159     26160     26159     26161
     26159     26162     26162     26163     26162     26164     26162     26165
     26165     26166     26165     26167     26167     26168     26167     26169
     26169     26170     26169     26171     26169     26172     26172     26173
     26172     26174     26172     26175     26175     26176     26175     26177
     26175     26178     26178     26179     26178     26180     26178     26181
     26181     26182     26181     26183     26181     26184     26184     26185
     26184     26186     26184     26187     26187     26188     26187     26189
     26187     26190     26190     26191     26190     26192     26190     26193
     26141     26142     26142     26144     26142     26143     26144     26145
     26144     26146     26144     26194     26194     26195     26194     26196
     26194     26197     26197     26198     26197     26199     26197     26200
     26200     26201     26200     26202     26200     26203     26203     26204
     26203     26205     26203     26206     26206     26207     26206     26208
     26206     26209     26209     26210     26209     26211     26209     26212
     26212     26213     26212     26214     26212     26215     26215     26216
     26215     26217     26215     26218     26218     26219     26218     26220
     26218     26221     26221     26222     26221     26223     26221     26224
     26224     26225     26224     26226     26224     26227     26227     26228
     26227     26229     26227     26230     26230     26231     26230     26232
     26230     26233     26233     26234     26233     26235     26233     26236
     26237     26241     26237     26245     26237     26249     26241     26242
     26241     26243     26241     26244     26245     26246     26245     26247
     26245     26248     26249     26250     26249     26251     26249     26252
     26237     26238     26238     26239     26238     26240     26238     26253
     26253     26254     26253     26255     26253     26259     26260     26261
     26259     26256     26256     26260     26256     26257     26256     26258
     26261     26262     26261     26263     26261     26264     26264     26265
     26264     26272     26264     26266     26272     26273     26272     26274
     26272     26275     26266     26267     26267     26269     26267     26268
     26269     26270     26269     26271     26269     26281     26281     26282
     26281     26283     26281     26284     26284     26285     26284     26286
     26284     26287     26287     26288     26287     26289     26287     26290
     26290     26291     26290     26292     26290     26293     26293     26294
     26293     26295     26293     26296     26296     26297     26296     26298
     26296     26299     26299     26300     26299     26301     26301     26302
     26301     26303     26303     26304     26303     26305     26303     26306
     26306     26307     26306     26308     26306     26309     26309     26310
     26309     26311     26309     26312     26312     26313     26312     26314
     26312     26315     26315     26316     26315     26317     26315     26318
     26318     26319     26318     26320     26318     26321     26321     26322
     26321     26323     26321     26324     26324     26325     26324     26326
     26324     26327     26275     26276     26276     26278     26276     26277
     26278     26279     26278     26280     26278     26328     26328     26329
     26328     26330     26328     26331     26331     26332     26331     26333
     26331     26334     26334     26335     26334     26336     26334     26337
     26337     26338     26337     26339     26337     26340     26340     26341
     26340     26342     26340     26343     26343     26344     26343     26345
     26343     26346     26346     26347     26346     26348     26346     26349
     26349     26350     26349     26351     26349     26352     26352     26353
     26352     26354     26352     26355     26355     26356     26355     26357
     26355     26358     26358     26359     26358     26360     26358     26361
     26361     26362     26361     26363     26361     26364     26364     26365
     26364     26366     26364     26367     26367     26368     26367     26369
     26367     26370     26371     26375     26371     26379     26371     26383
     26375     26376     26375     26377     26375     26378     26379     26380
     26379     26381     26379     26382     26383     26384     26383     26385
     26383     26386     26371     26372     26372     26373     26372     26374
     26372     26387     26387     26388     26387     26389     26387     26393
     26394     26395     26393     26390     26390     26394     26390     26391
     26390     26392     26395     26396     26395     26397     26395     26398
     26398     26399     26398     26406     26398     26400     26406     26407
     26406     26408     26406     26409     26400     26401     26401     26403
     26401     26402     26403     26404     26403     26405     26403     26415
     26415     26416     26415     26417     26415     26418     26418     26419
     26418     26420     26418     26421     26421     26422     26421     26423
     26421     26424     26424     26425     26424     26426     26424     26427
     26427     26428     26427     26429     26427     26430     26430     26431
     26430     26432     26430     26433     26433     26434     26433     26435
     26435     26436     26435     26437     26437     26438     26437     26439
     26437     26440     26440     26441     26440     26442     26440     26443
     26443     26444     26443     26445     26443     26446     26446     26447
     26446     26448     26446     26449     26449     26450     26449     26451
     26449     26452     26452     26453     26452     26454     26452     26455
     26455     26456     26455     26457     26455     26458     26458     26459
     26458     26460     26458     26461     26409     26410     26410     26412
     26410     26411     26412     26413     26412     26414     26412     26462
     26462     26463     26462     26464     26462     26465     26465     26466
     26465     26467     26465     26468     26468     26469     26468     26470
     26468     26471     26471     26472     26471     26473     26471     26474
     26474     26475     26474     26476     26474     26477     26477     26478
     26477     26479     26477     26480     26480     26481     26480     26482
     26480     26483     26483     26484     26483     26485     26483     26486
     26486     26487     26486     26488     26486     26489     26489     26490
     26489     26491     26489     26492     26492     26493     26492     26494
     26492     26495     26495     26496     26495     26497     26495     26498
     26498     26499     26498     26500     26498     26501     26501     26502
     26501     26503     26501     26504     26505     26509     26505     26513
     26505     26517     26509     26510     26509     26511     26509     26512
     26513     26514     26513     26515     26513     26516     26517     26518
     26517     26519     26517     26520     26505     26506     26506     26507
     26506     26508     26506     26521     26521     26522     26521     26523
     26521     26527     26528     26529     26527     26524     26524     26528
     26524     26525     26524     26526     26529     26530     26529     26531
     26529     26532     26532     26533     26532     26540     26532     26534
     26540     26541     26540     26542     26540     26543     26534     26535
     26535     26537     26535     26536     26537     26538     26537     26539
     26537     26549     26549     26550     26549     26551     26549     26552
     26552     26553     26552     26554     26552     26555     26555     26556
     26555     26557     26555     26558     26558     26559     26558     26560
     26558     26561     26561     26562     26561     26563     26561     26564
     26564     26565     26564     26566     26564     26567     26567     26568
     26567     26569     26569     26570     26569     26571     26571     26572
     26571     26573     26571     26574     26574     26575     26574     26576
     26574     26577     26577     26578     26577     26579     26577     26580
     26580     26581     26580     26582     26580     26583     26583     26584
     26583     26585     26583     26586     26586     26587     26586     26588
     26586     26589     26589     26590     26589     26591     26589     26592
     26592     26593     26592     26594     26592     26595     26543     26544
     26544     26546     26544     26545     26546     26547     26546     26548
     26546     26596     26596     26597     26596     26598     26596     26599
     26599     26600     26599     26601     26599     26602     26602     26603
     26602     26604     26602     26605     26605     26606     26605     26607
     26605     26608     26608     26609     26608     26610     26608     26611
     26611     26612     26611     26613     26611     26614     26614     26615
     26614     26616     26614     26617     26617     26618     26617     26619
     26617     26620     26620     26621     26620     26622     26620     26623
     26623     26624     26623     26625     26623     26626     26626     26627
     26626     26628     26626     26629     26629     26630     26629     26631
     26629     26632     26632     26633     26632     26634     26632     26635
     26635     26636     26635     26637     26635     26638     26639     26643
     26639     26647     26639     26651     26643     26644     26643     26645
     26643     26646     26647     26648     26647     26649     26647     26650
     26651     26652     26651     26653     26651     26654     26639     26640
     26640     26641     26640     26642     26640     26655     26655     26656
     26655     26657     26655     26661     26662     26663     26661     26658
     26658     26662     26658     26659     26658     26660     26663     26664
     26663     26665     26663     26666     26666     26667     26666     26674
     26666     26668     26674     26675     26674     26676     26674     26677
     26668     26669     26669     26671     26669     26670     26671     26672
     26671     26673     26671     26683     26683     26684     26683     26685
     26683     26686     26686     26687     26686     26688     26686     26689
     26689     26690     26689     26691     26689     26692     26692     26693
     26692     26694     26692     26695     26695     26696     26695     26697
     26695     26698     26698     26699     26698     26700     26698     26701
     26701     26702     26701     26703     26703     26704     26703     26705
     26705     26706     26705     26707     26705     26708     26708     26709
     26708     26710     26708     26711     26711     26712     26711     26713
     26711     26714     26714     26715     26714     26716     26714     26717
     26717     26718     26717     26719     26717     26720     26720     26721
     26720     26722     26720     26723     26723     26724     26723     26725
     26723     26726     26726     26727     26726     26728     26726     26729
     26677     26678     26678     26680     26678     26679     26680     26681
     26680     26682     26680     26730     26730     26731     26730     26732
     26730     26733     26733     26734     26733     26735     26733     26736
     26736     26737     26736     26738     26736     26739     26739     26740
     26739     26741     26739     26742     26742     26743     26742     26744
     26742     26745     26745     26746     26745     26747     26745     26748
     26748     26749     26748     26750     26748     26751     26751     26752
     26751     26753     26751     26754     26754     26755     26754     26756
     26754     26757     26757     26758     26757     26759     26757     26760
     26760     26761     26760     26762     26760     26763     26763     26764
     26763     26765     26763     26766     26766     26767     26766     26768
     26766     26769     26769     26770     26769     26771     26769     26772
     26773     26777     26773     26781     26773     26785     26777     26778
     26777     26779     26777     26780     26781     26782     26781     26783
     26781     26784     26785     26786     26785     26787     26785     26788
     26773     26774     26774     26775     26774     26776     26774     26789
     26789     26790     26789     26791     26789     26795     26796     26797
     26795     26792     26792     26796     26792     26793     26792     26794
     26797     26798     26797     26799     26797     26800     26800     26801
     26800     26808     26800     26802     26808     26809     26808     26810
     26808     26811     26802     26803     26803     26805     26803     26804
     26805     26806     26805     26807     26805     26817     26817     26818
     26817     26819     26817     26820     26820     26821     26820     26822
     26820     26823     26823     26824     26823     26825     26823     26826
     26826     26827     26826     26828     26826     26829     26829     26830
     26829     26831     26829     26832     26832     26833     26832     26834
     26832     26835     26835     26836     26835     26837     26837     26838
     26837     26839     26839     26840     26839     26841     26839     26842
     26842     26843     26842     26844     26842     26845     26845     26846
     26845     26847     26845     26848     26848     26849     26848     26850
     26848     26851     26851     26852     26851     26853     26851     26854
     26854     26855     26854     26856     26854     26857     26857     26858
     26857     26859     26857     26860     26860     26861     26860     26862
     26860     26863     26811     26812     26812     26814     26812     26813
     26814     26815     26814     26816     26814     26864     26864     26865
     26864     26866     26864     26867     26867     26868     26867     26869
     26867     26870     26870     26871     26870     26872     26870     26873
     26873     26874     26873     26875     26873     26876     26876     26877
     26876     26878     26876     26879     26879     26880     26879     26881
     26879     26882     26882     26883     26882     26884     26882     26885
     26885     26886     26885     26887     26885     26888     26888     26889
     26888     26890     26888     26891     26891     26892     26891     26893
     26891     26894     26894     26895     26894     26896     26894     26897
     26897     26898     26897     26899     26897     26900     26900     26901
     26900     26902     26900     26903     26903     26904     26903     26905
     26903     26906     26907     26911     26907     26915     26907     26919
     26911     26912     26911     26913     26911     26914     26915     26916
     26915     26917     26915     26918     26919     26920     26919     26921
     26919     26922     26907     26908     26908     26909     26908     26910
     26908     26923     26923     26924     26923     26925     26923     26929
     26930     26931     26929     26926     26926     26930     26926     26927
     26926     26928     26931     26932     26931     26933     26931     26934
     26934     26935     26934     26942     26934     26936     26942     26943
     26942     26944     26942     26945     26936     26937     26937     26939
     26937     26938     26939     26940     26939     26941     26939     26951
     26951     26952     26951     26953     26951     26954     26954     26955
     26954     26956     26954     26957     26957     26958     26957     26959
     26957     26960     26960     26961     26960     26962     26960     26963
     26963     26964     26963     26965     26963     26966     26966     26967
     26966     26968     26966     26969     26969     26970     26969     26971
     26971     26972     26971     26973     26973     26974     26973     26975
     26973     26976     26976     26977     26976     26978     26976     26979
     26979     26980     26979     26981     26979     26982     26982     26983
     26982     26984     26982     26985     26985     26986     26985     26987
     26985     26988     26988     26989     26988     26990     26988     26991
     26991     26992     26991     26993     26991     26994     26994     26995
     26994     26996     26994     26997     26945     26946     26946     26948
     26946     26947     26948     26949     26948     26950     26948     26998
     26998     26999     26998     27000     26998     27001     27001     27002
     27001     27003     27001     27004     27004     27005     27004     27006
     27004     27007     27007     27008     27007     27009     27007     27010
     27010     27011     27010     27012     27010     27013     27013     27014
     27013     27015     27013     27016     27016     27017     27016     27018
     27016     27019     27019     27020     27019     27021     27019     27022
     27022     27023     27022     27024     27022     27025     27025     27026
     27025     27027     27025     27028     27028     27029     27028     27030
     27028     27031     27031     27032     27031     27033     27031     27034
     27034     27035     27034     27036     27034     27037     27037     27038
     27037     27039     27037     27040     27041     27045     27041     27049
     27041     27053     27045     27046     27045     27047     27045     27048
     27049     27050     27049     27051     27049     27052     27053     27054
     27053     27055     27053     27056     27041     27042     27042     27043
     27042     27044     27042     27057     27057     27058     27057     27059
     27057     27063     27064     27065     27063     27060     27060     27064
     27060     27061     27060     27062     27065     27066     27065     27067
     27065     27068     27068     27069     27068     27076     27068     27070
     27076     27077     27076     27078     27076     27079     27070     27071
     27071     27073     27071     27072     27073     27074     27073     27075
     27073     27085     27085     27086     27085     27087     27085     27088
     27088     27089     27088     27090     27088     27091     27091     27092
     27091     27093     27091     27094     27094     27095     27094     27096
     27094     27097     27097     27098     27097     27099     27097     27100
     27100     27101     27100     27102     27100     27103     27103     27104
     27103     27105     27105     27106     27105     27107     27107     27108
     27107     27109     27107     27110     27110     27111     27110     27112
     27110     27113     27113     27114     27113     27115     27113     27116
     27116     27117     27116     27118     27116     27119     27119     27120
     27119     27121     27119     27122     27122     27123     27122     27124
     27122     27125     27125     27126     27125     27127     27125     27128
     27128     27129     27128     27130     27128     27131     27079     27080
     27080     27082     27080     27081     27082     27083     27082     27084
     27082     27132     27132     27133     27132     27134     27132     27135
     27135     27136     27135     27137     27135     27138     27138     27139
     27138     27140     27138     27141     27141     27142     27141     27143
     27141     27144     27144     27145     27144     27146     27144     27147
     27147     27148     27147     27149     27147     27150     27150     27151
     27150     27152     27150     27153     27153     27154     27153     27155
     27153     27156     27156     27157     27156     27158     27156     27159
     27159     27160     27159     27161     27159     27162     27162     27163
     27162     27164     27162     27165     27165     27166     27165     27167
     27165     27168     27168     27169     27168     27170     27168     27171
     27171     27172     27171     27173     27171     27174     27175     27179
     27175     27183     27175     27187     27179     27180     27179     27181
     27179     27182     27183     27184     27183     27185     27183     27186
     27187     27188     27187     27189     27187     27190     27175     27176
     27176     27177     27176     27178     27176     27191     27191     27192
     27191     27193     27191     27197     27198     27199     27197     27194
     27194     27198     27194     27195     27194     27196     27199     27200
     27199     27201     27199     27202     27202     27203     27202     27210
     27202     27204     27210     27211     27210     27212     27210     27213
     27204     27205     27205     27207     27205     27206     27207     27208
     27207     27209     27207     27219     27219     27220     27219     27221
     27219     27222     27222     27223     27222     27224     27222     27225
     27225     27226     27225     27227     27225     27228     27228     27229
     27228     27230     27228     27231     27231     27232     27231     27233
     27231     27234     27234     27235     27234     27236     27234     27237
     27237     27238     27237     27239     27239     27240     27239     27241
     27241     27242     27241     27243     27241     27244     27244     27245
     27244     27246     27244     27247     27247     27248     27247     27249
     27247     27250     27250     27251     27250     27252     27250     27253
     27253     27254     27253     27255     27253     27256     27256     27257
     27256     27258     27256     27259     27259     27260     27259     27261
     27259     27262     27262     27263     27262     27264     27262     27265
     27213     27214     27214     27216     27214     27215     27216     27217
     27216     27218     27216     27266     27266     27267     27266     27268
     27266     27269     27269     27270     27269     27271     27269     27272
     27272     27273     27272     27274     27272     27275     27275     27276
     27275     27277     27275     27278     27278     27279     27278     27280
     27278     27281     27281     27282     27281     27283     27281     27284
     27284     27285     27284     27286     27284     27287     27287     27288
     27287     27289     27287     27290     27290     27291     27290     27292
     27290     27293     27293     27294     27293     27295     27293     27296
     27296     27297     27296     27298     27296     27299     27299     27300
     27299     27301     27299     27302     27302     27303     27302     27304
     27302     27305     27305     27306     27305     27307     27305     27308
     27309     27313     27309     27317     27309     27321     27313     27314
     27313     27315     27313     27316     27317     27318     27317     27319
     27317     27320     27321     27322     27321     27323     27321     27324
     27309     27310     27310     27311     27310     27312     27310     27325
     27325     27326     27325     27327     27325     27331     27332     27333
     27331     27328     27328     27332     27328     27329     27328     27330
     27333     27334     27333     27335     27333     27336     27336     27337
     27336     27344     27336     27338     27344     27345     27344     27346
     27344     27347     27338     27339     27339     27341     27339     27340
     27341     27342     27341     27343     27341     27353     27353     27354
     27353     27355     27353     27356     27356     27357     27356     27358
     27356     27359     27359     27360     27359     27361     27359     27362
     27362     27363     27362     27364     27362     27365     27365     27366
     27365     27367     27365     27368     27368     27369     27368     27370
     27368     27371     27371     27372     27371     27373     27373     27374
     27373     27375     27375     27376     27375     27377     27375     27378
     27378     27379     27378     27380     27378     27381     27381     27382
     27381     27383     27381     27384     27384     27385     27384     27386
     27384     27387     27387     27388     27387     27389     27387     27390
     27390     27391     27390     27392     27390     27393     27393     27394
     27393     27395     27393     27396     27396     27397     27396     27398
     27396     27399     27347     27348     27348     27350     27348     27349
     27350     27351     27350     27352     27350     27400     27400     27401
     27400     27402     27400     27403     27403     27404     27403     27405
     27403     27406     27406     27407     27406     27408     27406     27409
     27409     27410     27409     27411     27409     27412     27412     27413
     27412     27414     27412     27415     27415     27416     27415     27417
     27415     27418     27418     27419     27418     27420     27418     27421
     27421     27422     27421     27423     27421     27424     27424     27425
     27424     27426     27424     27427     27427     27428     27427     27429
     27427     27430     27430     27431     27430     27432     27430     27433
     27433     27434     27433     27435     27433     27436     27436     27437
     27436     27438     27436     27439     27439     27440     27439     27441
     27439     27442     27443     27447     27443     27451     27443     27455
     27447     27448     27447     27449     27447     27450     27451     27452
     27451     27453     27451     27454     27455     27456     27455     27457
     27455     27458     27443     27444     27444     27445     27444     27446
     27444     27459     27459     27460     27459     27461     27459     27465
     27466     27467     27465     27462     27462     27466     27462     27463
     27462     27464     27467     27468     27467     27469     27467     27470
     27470     27471     27470     27478     27470     27472     27478     27479
     27478     27480     27478     27481     27472     27473     27473     27475
     27473     27474     27475     27476     27475     27477     27475     27487
     27487     27488     27487     27489     27487     27490     27490     27491
     27490     27492     27490     27493     27493     27494     27493     27495
     27493     27496     27496     27497     27496     27498     27496     27499
     27499     27500     27499     27501     27499     27502     27502     27503
     27502     27504     27502     27505     27505     27506     27505     27507
     27507     27508     27507     27509     27509     27510     27509     27511
     27509     27512     27512     27513     27512     27514     27512     27515
     27515     27516     27515     27517     27515     27518     27518     27519
     27518     27520     27518     27521     27521     27522     27521     27523
     27521     27524     27524     27525     27524     27526     27524     27527
     27527     27528     27527     27529     27527     27530     27530     27531
     27530     27532     27530     27533     27481     27482     27482     27484
     27482     27483     27484     27485     27484     27486     27484     27534
     27534     27535     27534     27536     27534     27537     27537     27538
     27537     27539     27537     27540     27540     27541     27540     27542
     27540     27543     27543     27544     27543     27545     27543     27546
     27546     27547     27546     27548     27546     27549     27549     27550
     27549     27551     27549     27552     27552     27553     27552     27554
     27552     27555     27555     27556     27555     27557     27555     27558
     27558     27559     27558     27560     27558     27561     27561     27562
     27561     27563     27561     27564     27564     27565     27564     27566
     27564     27567     27567     27568     27567     27569     27567     27570
     27570     27571     27570     27572     27570     27573     27573     27574
     27573     27575     27573     27576     27577     27581     27577     27585
     27577     27589     27581     27582     27581     27583     27581     27584
     27585     27586     27585     27587     27585     27588     27589     27590
     27589     27591     27589     27592     27577     27578     27578     27579
     27578     27580     27578     27593     27593     27594     27593     27595
     27593     27599     27600     27601     27599     27596     27596     27600
     27596     27597     27596     27598     27601     27602     27601     27603
     27601     27604     27604     27605     27604     27612     27604     27606
     27612     27613     27612     27614     27612     27615     27606     27607
     27607     27609     27607     27608     27609     27610     27609     27611
     27609     27621     27621     27622     27621     27623     27621     27624
     27624     27625     27624     27626     27624     27627     27627     27628
     27627     27629     27627     27630     27630     27631     27630     27632
     27630     27633     27633     27634     27633     27635     27633     27636
     27636     27637     27636     27638     27636     27639     27639     27640
     27639     27641     27641     27642     27641     27643     27643     27644
     27643     27645     27643     27646     27646     27647     27646     27648
     27646     27649     27649     27650     27649     27651     27649     27652
     27652     27653     27652     27654     27652     27655     27655     27656
     27655     27657     27655     27658     27658     27659     27658     27660
     27658     27661     27661     27662     27661     27663     27661     27664
     27664     27665     27664     27666     27664     27667     27615     27616
     27616     27618     27616     27617     27618     27619     27618     27620
     27618     27668     27668     27669     27668     27670     27668     27671
     27671     27672     27671     27673     27671     27674     27674     27675
     27674     27676     27674     27677     27677     27678     27677     27679
     27677     27680     27680     27681     27680     27682     27680     27683
     27683     27684     27683     27685     27683     27686     27686     27687
     27686     27688     27686     27689     27689     27690     27689     27691
     27689     27692     27692     27693     27692     27694     27692     27695
     27695     27696     27695     27697     27695     27698     27698     27699
     27698     27700     27698     27701     27701     27702     27701     27703
     27701     27704     27704     27705     27704     27706     27704     27707
     27707     27708     27707     27709     27707     27710     27711     27715
     27711     27719     27711     27723     27715     27716     27715     27717
     27715     27718     27719     27720     27719     27721     27719     27722
     27723     27724     27723     27725     27723     27726     27711     27712
     27712     27713     27712     27714     27712     27727     27727     27728
     27727     27729     27727     27733     27734     27735     27733     27730
     27730     27734     27730     27731     27730     27732     27735     27736
     27735     27737     27735     27738     27738     27739     27738     27746
     27738     27740     27746     27747     27746     27748     27746     27749
     27740     27741     27741     27743     27741     27742     27743     27744
     27743     27745     27743     27755     27755     27756     27755     27757
     27755     27758     27758     27759     27758     27760     27758     27761
     27761     27762     27761     27763     27761     27764     27764     27765
     27764     27766     27764     27767     27767     27768     27767     27769
     27767     27770     27770     27771     27770     27772     27770     27773
     27773     27774     27773     27775     27775     27776     27775     27777
     27777     27778     27777     27779     27777     27780     27780     27781
     27780     27782     27780     27783     27783     27784     27783     27785
     27783     27786     27786     27787     27786     27788     27786     27789
     27789     27790     27789     27791     27789     27792     27792     27793
     27792     27794     27792     27795     27795     27796     27795     27797
     27795     27798     27798     27799     27798     27800     27798     27801
     27749     27750     27750     27752     27750     27751     27752     27753
     27752     27754     27752     27802     27802     27803     27802     27804
     27802     27805     27805     27806     27805     27807     27805     27808
     27808     27809     27808     27810     27808     27811     27811     27812
     27811     27813     27811     27814     27814     27815     27814     27816
     27814     27817     27817     27818     27817     27819     27817     27820
     27820     27821     27820     27822     27820     27823     27823     27824
     27823     27825     27823     27826     27826     27827     27826     27828
     27826     27829     27829     27830     27829     27831     27829     27832
     27832     27833     27832     27834     27832     27835     27835     27836
     27835     27837     27835     27838     27838     27839     27838     27840
     27838     27841     27841     27842     27841     27843     27841     27844
     27845     27849     27845     27853     27845     27857     27849     27850
     27849     27851     27849     27852     27853     27854     27853     27855
     27853     27856     27857     27858     27857     27859     27857     27860
     27845     27846     27846     27847     27846     27848     27846     27861
     27861     27862     27861     27863     27861     27867     27868     27869
     27867     27864     27864     27868     27864     27865     27864     27866
     27869     27870     27869     27871     27869     27872     27872     27873
     27872     27880     27872     27874     27880     27881     27880     27882
     27880     27883     27874     27875     27875     27877     27875     27876
     27877     27878     27877     27879     27877     27889     27889     27890
     27889     27891     27889     27892     27892     27893     27892     27894
     27892     27895     27895     27896     27895     27897     27895     27898
     27898     27899     27898     27900     27898     27901     27901     27902
     27901     27903     27901     27904     27904     27905     27904     27906
     27904     27907     27907     27908     27907     27909     27909     27910
     27909     27911     27911     27912     27911     27913     27911     27914
     27914     27915     27914     27916     27914     27917     27917     27918
     27917     27919     27917     27920     27920     27921     27920     27922
     27920     27923     27923     27924     27923     27925     27923     27926
     27926     27927     27926     27928     27926     27929     27929     27930
     27929     27931     27929     27932     27932     27933     27932     27934
     27932     27935     27883     27884     27884     27886     27884     27885
     27886     27887     27886     27888     27886     27936     27936     27937
     27936     27938     27936     27939     27939     27940     27939     27941
     27939     27942     27942     27943     27942     27944     27942     27945
     27945     27946     27945     27947     27945     27948     27948     27949
     27948     27950     27948     27951     27951     27952     27951     27953
     27951     27954     27954     27955     27954     27956     27954     27957
     27957     27958     27957     27959     27957     27960     27960     27961
     27960     27962     27960     27963     27963     27964     27963     27965
     27963     27966     27966     27967     27966     27968     27966     27969
     27969     27970     27969     27971     27969     27972     27972     27973
     27972     27974     27972     27975     27975     27976     27975     27977
     27975     27978     27979     27983     27979     27987     27979     27991
     27983     27984     27983     27985     27983     27986     27987     27988
     27987     27989     27987     27990     27991     27992     27991     27993
     27991     27994     27979     27980     27980     27981     27980     27982
     27980     27995     27995     27996     27995     27997     27995     28001
     28002     28003     28001     27998     27998     28002     27998     27999
     27998     28000     28003     28004     28003     28005     28003     28006
     28006     28007     28006     28014     28006     28008     28014     28015
     28014     28016     28014     28017     28008     28009     28009     28011
     28009     28010     28011     28012     28011     28013     28011     28023
     28023     28024     28023     28025     28023     28026     28026     28027
     28026     28028     28026     28029     28029     28030     28029     28031
     28029     28032     28032     28033     28032     28034     28032     28035
     28035     28036     28035     28037     28035     28038     28038     28039
     28038     28040     28038     28041     28041     28042     28041     28043
     28043     28044     28043     28045     28045     28046     28045     28047
     28045     28048     28048     28049     28048     28050     28048     28051
     28051     28052     28051     28053     28051     28054     28054     28055
     28054     28056     28054     28057     28057     28058     28057     28059
     28057     28060     28060     28061     28060     28062     28060     28063
     28063     28064     28063     28065     28063     28066     28066     28067
     28066     28068     28066     28069     28017     28018     28018     28020
     28018     28019     28020     28021     28020     28022     28020     28070
     28070     28071     28070     28072     28070     28073     28073     28074
     28073     28075     28073     28076     28076     28077     28076     28078
     28076     28079     28079     28080     28079     28081     28079     28082
     28082     28083     28082     28084     28082     28085     28085     28086
     28085     28087     28085     28088     28088     28089     28088     28090
     28088     28091     28091     28092     28091     28093     28091     28094
     28094     28095     28094     28096     28094     28097     28097     28098
     28097     28099     28097     28100     28100     28101     28100     28102
     28100     28103     28103     28104     28103     28105     28103     28106
     28106     28107     28106     28108     28106     28109     28109     28110
     28109     28111     28109     28112     28113     28117     28113     28121
     28113     28125     28117     28118     28117     28119     28117     28120
     28121     28122     28121     28123     28121     28124     28125     28126
     28125     28127     28125     28128     28113     28114     28114     28115
     28114     28116     28114     28129     28129     28130     28129     28131
     28129     28135     28136     28137     28135     28132     28132     28136
     28132     28133     28132     28134     28137     28138     28137     28139
     28137     28140     28140     28141     28140     28148     28140     28142
     28148     28149     28148     28150     28148     28151     28142     28143
     28143     28145     28143     28144     28145     28146     28145     28147
     28145     28157     28157     28158     28157     28159     28157     28160
     28160     28161     28160     28162     28160     28163     28163     28164
     28163     28165     28163     28166     28166     28167     28166     28168
     28166     28169     28169     28170     28169     28171     28169     28172
     28172     28173     28172     28174     28172     28175     28175     28176
     28175     28177     28177     28178     28177     28179     28179     28180
     28179     28181     28179     28182     28182     28183     28182     28184
     28182     28185     28185     28186     28185     28187     28185     28188
     28188     28189     28188     28190     28188     28191     28191     28192
     28191     28193     28191     28194     28194     28195     28194     28196
     28194     28197     28197     28198     28197     28199     28197     28200
     28200     28201     28200     28202     28200     28203     28151     28152
     28152     28154     28152     28153     28154     28155     28154     28156
     28154     28204     28204     28205     28204     28206     28204     28207
     28207     28208     28207     28209     28207     28210     28210     28211
     28210     28212     28210     28213     28213     28214     28213     28215
     28213     28216     28216     28217     28216     28218     28216     28219
     28219     28220     28219     28221     28219     28222     28222     28223
     28222     28224     28222     28225     28225     28226     28225     28227
     28225     28228     28228     28229     28228     28230     28228     28231
     28231     28232     28231     28233     28231     28234     28234     28235
     28234     28236     28234     28237     28237     28238     28237     28239
     28237     28240     28240     28241     28240     28242     28240     28243
     28243     28244     28243     28245     28243     28246     28247     28251
     28247     28255     28247     28259     28251     28252     28251     28253
     28251     28254     28255     28256     28255     28257     28255     28258
     28259     28260     28259     28261     28259     28262     28247     28248
     28248     28249     28248     28250     28248     28263     28263     28264
     28263     28265     28263     28269     28270     28271     28269     28266
     28266     28270     28266     28267     28266     28268     28271     28272
     28271     28273     28271     28274     28274     28275     28274     28282
     28274     28276     28282     28283     28282     28284     28282     28285
     28276     28277     28277     28279     28277     28278     28279     28280
     28279     28281     28279     28291     28291     28292     28291     28293
     28291     28294     28294     28295     28294     28296     28294     28297
     28297     28298     28297     28299     28297     28300     28300     28301
     28300     28302     28300     28303     28303     28304     28303     28305
     28303     28306     28306     28307     28306     28308     28306     28309
     28309     28310     28309     28311     28311     28312     28311     28313
     28313     28314     28313     28315     28313     28316     28316     28317
     28316     28318     28316     28319     28319     28320     28319     28321
     28319     28322     28322     28323     28322     28324     28322     28325
     28325     28326     28325     28327     28325     28328     28328     28329
     28328     28330     28328     28331     28331     28332     28331     28333
     28331     28334     28334     28335     28334     28336     28334     28337
     28285     28286     28286     28288     28286     28287     28288     28289
     28288     28290     28288     28338     28338     28339     28338     28340
     28338     28341     28341     28342     28341     28343     28341     28344
     28344     28345     28344     28346     28344     28347     28347     28348
     28347     28349     28347     28350     28350     28351     28350     28352
     28350     28353     28353     28354     28353     28355     28353     28356
     28356     28357     28356     28358     28356     28359     28359     28360
     28359     28361     28359     28362     28362     28363     28362     28364
     28362     28365     28365     28366     28365     28367     28365     28368
     28368     28369     28368     28370     28368     28371     28371     28372
     28371     28373     28371     28374     28374     28375     28374     28376
     28374     28377     28377     28378     28377     28379     28377     28380
     28381     28385     28381     28389     28381     28393     28385     28386
     28385     28387     28385     28388     28389     28390     28389     28391
     28389     28392     28393     28394     28393     28395     28393     28396
     28381     28382     28382     28383     28382     28384     28382     28397
     28397     28398     28397     28399     28397     28403     28404     28405
     28403     28400     28400     28404     28400     28401     28400     28402
     28405     28406     28405     28407     28405     28408     28408     28409
     28408     28416     28408     28410     28416     28417     28416     28418
     28416     28419     28410     28411     28411     28413     28411     28412
     28413     28414     28413     28415     28413     28425     28425     28426
     28425     28427     28425     28428     28428     28429     28428     28430
     28428     28431     28431     28432     28431     28433     28431     28434
     28434     28435     28434     28436     28434     28437     28437     28438
     28437     28439     28437     28440     28440     28441     28440     28442
     28440     28443     28443     28444     28443     28445     28445     28446
     28445     28447     28447     28448     28447     28449     28447     28450
     28450     28451     28450     28452     28450     28453     28453     28454
     28453     28455     28453     28456     28456     28457     28456     28458
     28456     28459     28459     28460     28459     28461     28459     28462
     28462     28463     28462     28464     28462     28465     28465     28466
     28465     28467     28465     28468     28468     28469     28468     28470
     28468     28471     28419     28420     28420     28422     28420     28421
     28422     28423     28422     28424     28422     28472     28472     28473
     28472     28474     28472     28475     28475     28476     28475     28477
     28475     28478     28478     28479     28478     28480     28478     28481
     28481     28482     28481     28483     28481     28484     28484     28485
     28484     28486     28484     28487     28487     28488     28487     28489
     28487     28490     28490     28491     28490     28492     28490     28493
     28493     28494     28493     28495     28493     28496     28496     28497
     28496     28498     28496     28499     28499     28500     28499     28501
     28499     28502     28502     28503     28502     28504     28502     28505
     28505     28506     28505     28507     28505     28508     28508     28509
     28508     28510     28508     28511     28511     28512     28511     28513
     28511     28514     28515     28519     28515     28523     28515     28527
     28519     28520     28519     28521     28519     28522     28523     28524
     28523     28525     28523     28526     28527     28528     28527     28529
     28527     28530     28515     28516     28516     28517     28516     28518
     28516     28531     28531     28532     28531     28533     28531     28537
     28538     28539     28537     28534     28534     28538     28534     28535
     28534     28536     28539     28540     28539     28541     28539     28542
     28542     28543     28542     28550     28542     28544     28550     28551
     28550     28552     28550     28553     28544     28545     28545     28547
     28545     28546     28547     28548     28547     28549     28547     28559
     28559     28560     28559     28561     28559     28562     28562     28563
     28562     28564     28562     28565     28565     28566     28565     28567
     28565     28568     28568     28569     28568     28570     28568     28571
     28571     28572     28571     28573     28571     28574     28574     28575
     28574     28576     28574     28577     28577     28578     28577     28579
     28579     28580     28579     28581     28581     28582     28581     28583
     28581     28584     28584     28585     28584     28586     28584     28587
     28587     28588     28587     28589     28587     28590     28590     28591
     28590     28592     28590     28593     28593     28594     28593     28595
     28593     28596     28596     28597     28596     28598     28596     28599
     28599     28600     28599     28601     28599     28602     28602     28603
     28602     28604     28602     28605     28553     28554     28554     28556
     28554     28555     28556     28557     28556     28558     28556     28606
     28606     28607     28606     28608     28606     28609     28609     28610
     28609     28611     28609     28612     28612     28613     28612     28614
     28612     28615     28615     28616     28615     28617     28615     28618
     28618     28619     28618     28620     28618     28621     28621     28622
     28621     28623     28621     28624     28624     28625     28624     28626
     28624     28627     28627     28628     28627     28629     28627     28630
     28630     28631     28630     28632     28630     28633     28633     28634
     28633     28635     28633     28636     28636     28637     28636     28638
     28636     28639     28639     28640     28639     28641     28639     28642
     28642     28643     28642     28644     28642     28645     28645     28646
     28645     28647     28645     28648     28649     28653     28649     28657
     28649     28661     28653     28654     28653     28655     28653     28656
     28657     28658     28657     28659     28657     28660     28661     28662
     28661     28663     28661     28664     28649     28650     28650     28651
     28650     28652     28650     28665     28665     28666     28665     28667
     28665     28671     28672     28673     28671     28668     28668     28672
     28668     28669     28668     28670     28673     28674     28673     28675
     28673     28676     28676     28677     28676     28684     28676     28678
     28684     28685     28684     28686     28684     28687     28678     28679
     28679     28681     28679     28680     28681     28682     28681     28683
     28681     28693     28693     28694     28693     28695     28693     28696
     28696     28697     28696     28698     28696     28699     28699     28700
     28699     28701     28699     28702     28702     28703     28702     28704
     28702     28705     28705     28706     28705     28707     28705     28708
     28708     28709     28708     28710     28708     28711     28711     28712
     28711     28713     28713     28714     28713     28715     28715     28716
     28715     28717     28715     28718     28718     28719     28718     28720
     28718     28721     28721     28722     28721     28723     28721     28724
     28724     28725     28724     28726     28724     28727     28727     28728
     28727     28729     28727     28730     28730     28731     28730     28732
     28730     28733     28733     28734     28733     28735     28733     28736
     28736     28737     28736     28738     28736     28739     28687     28688
     28688     28690     28688     28689     28690     28691     28690     28692
     28690     28740     28740     28741     28740     28742     28740     28743
     28743     28744     28743     28745     28743     28746     28746     28747
     28746     28748     28746     28749     28749     28750     28749     28751
     28749     28752     28752     28753     28752     28754     28752     28755
     28755     28756     28755     28757     28755     28758     28758     28759
     28758     28760     28758     28761     28761     28762     28761     28763
     28761     28764     28764     28765     28764     28766     28764     28767
     28767     28768     28767     28769     28767     28770     28770     28771
     28770     28772     28770     28773     28773     28774     28773     28775
     28773     28776     28776     28777     28776     28778     28776     28779
     28779     28780     28779     28781     28779     28782     28783     28787
     28783     28791     28783     28795     28787     28788     28787     28789
     28787     28790     28791     28792     28791     28793     28791     28794
     28795     28796     28795     28797     28795     28798     28783     28784
     28784     28785     28784     28786     28784     28799     28799     28800
     28799     28801     28799     28805     28806     28807     28805     28802
     28802     28806     28802     28803     28802     28804     28807     28808
     28807     28809     28807     28810     28810     28811     28810     28818
     28810     28812     28818     28819     28818     28820     28818     28821
     28812     28813     28813     28815     28813     28814     28815     28816
     28815     28817     28815     28827     28827     28828     28827     28829
     28827     28830     28830     28831     28830     28832     28830     28833
     28833     28834     28833     28835     28833     28836     28836     28837
     28836     28838     28836     28839     28839     28840     28839     28841
     28839     28842     28842     28843     28842     28844     28842     28845
     28845     28846     28845     28847     28847     28848     28847     28849
     28849     28850     28849     28851     28849     28852     28852     28853
     28852     28854     28852     28855     28855     28856     28855     28857
     28855     28858     28858     28859     28858     28860     28858     28861
     28861     28862     28861     28863     28861     28864     28864     28865
     28864     28866     28864     28867     28867     28868     28867     28869
     28867     28870     28870     28871     28870     28872     28870     28873
     28821     28822     28822     28824     28822     28823     28824     28825
     28824     28826     28824     28874     28874     28875     28874     28876
     28874     28877     28877     28878     28877     28879     28877     28880
     28880     28881     28880     28882     28880     28883     28883     28884
     28883     28885     28883     28886     28886     28887     28886     28888
     28886     28889     28889     28890     28889     28891     28889     28892
     28892     28893     28892     28894     28892     28895     28895     28896
     28895     28897     28895     28898     28898     28899     28898     28900
     28898     28901     28901     28902     28901     28903     28901     28904
     28904     28905     28904     28906     28904     28907     28907     28908
     28907     28909     28907     28910     28910     28911     28910     28912
     28910     28913     28913     28914     28913     28915     28913     28916
     28917     28921     28917     28925     28917     28929     28921     28922
     28921     28923     28921     28924     28925     28926     28925     28927
     28925     28928     28929     28930     28929     28931     28929     28932
     28917     28918     28918     28919     28918     28920     28918     28933
     28933     28934     28933     28935     28933     28939     28940     28941
     28939     28936     28936     28940     28936     28937     28936     28938
     28941     28942     28941     28943     28941     28944     28944     28945
     28944     28952     28944     28946     28952     28953     28952     28954
     28952     28955     28946     28947     28947     28949     28947     28948
     28949     28950     28949     28951     28949     28961     28961     28962
     28961     28963     28961     28964     28964     28965     28964     28966
     28964     28967     28967     28968     28967     28969     28967     28970
     28970     28971     28970     28972     28970     28973     28973     28974
     28973     28975     28973     28976     28976     28977     28976     28978
     28976     28979     28979     28980     28979     28981     28981     28982
     28981     28983     28983     28984     28983     28985     28983     28986
     28986     28987     28986     28988     28986     28989     28989     28990
     28989     28991     28989     28992     28992     28993     28992     28994
     28992     28995     28995     28996     28995     28997     28995     28998
     28998     28999     28998     29000     28998     29001     29001     29002
     29001     29003     29001     29004     29004     29005     29004     29006
     29004     29007     28955     28956     28956     28958     28956     28957
     28958     28959     28958     28960     28958     29008     29008     29009
     29008     29010     29008     29011     29011     29012     29011     29013
     29011     29014     29014     29015     29014     29016     29014     29017
     29017     29018     29017     29019     29017     29020     29020     29021
     29020     29022     29020     29023     29023     29024     29023     29025
     29023     29026     29026     29027     29026     29028     29026     29029
     29029     29030     29029     29031     29029     29032     29032     29033
     29032     29034     29032     29035     29035     29036     29035     29037
     29035     29038     29038     29039     29038     29040     29038     29041
     29041     29042     29041     29043     29041     29044     29044     29045
     29044     29046     29044     29047     29047     29048     29047     29049
     29047     29050     29051     29055     29051     29059     29051     29063
     29055     29056     29055     29057     29055     29058     29059     29060
     29059     29061     29059     29062     29063     29064     29063     29065
     29063     29066     29051     29052     29052     29053     29052     29054
     29052     29067     29067     29068     29067     29069     29067     29073
     29074     29075     29073     29070     29070     29074     29070     29071
     29070     29072     29075     29076     29075     29077     29075     29078
     29078     29079     29078     29086     29078     29080     29086     29087
     29086     29088     29086     29089     29080     29081     29081     29083
     29081     29082     29083     29084     29083     29085     29083     29095
     29095     29096     29095     29097     29095     29098     29098     29099
     29098     29100     29098     29101     29101     29102     29101     29103
     29101     29104     29104     29105     29104     29106     29104     29107
     29107     29108     29107     29109     29107     29110     29110     29111
     29110     29112     29110     29113     29113     29114     29113     29115
     29115     29116     29115     29117     29117     29118     29117     29119
     29117     29120     29120     29121     29120     29122     29120     29123
     29123     29124     29123     29125     29123     29126     29126     29127
     29126     29128     29126     29129     29129     29130     29129     29131
     29129     29132     29132     29133     29132     29134     29132     29135
     29135     29136     29135     29137     29135     29138     29138     29139
     29138     29140     29138     29141     29089     29090     29090     29092
     29090     29091     29092     29093     29092     29094     29092     29142
     29142     29143     29142     29144     29142     29145     29145     29146
     29145     29147     29145     29148     29148     29149     29148     29150
     29148     29151     29151     29152     29151     29153     29151     29154
     29154     29155     29154     29156     29154     29157     29157     29158
     29157     29159     29157     29160     29160     29161     29160     29162
     29160     29163     29163     29164     29163     29165     29163     29166
     29166     29167     29166     29168     29166     29169     29169     29170
     29169     29171     29169     29172     29172     29173     29172     29174
     29172     29175     29175     29176     29175     29177     29175     29178
     29178     29179     29178     29180     29178     29181     29181     29182
     29181     29183     29181     29184     29185     29189     29185     29193
     29185     29197     29189     29190     29189     29191     29189     29192
     29193     29194     29193     29195     29193     29196     29197     29198
     29197     29199     29197     29200     29185     29186     29186     29187
     29186     29188     29186     29201     29201     29202     29201     29203
     29201     29207     29208     29209     29207     29204     29204     29208
     29204     29205     29204     29206     29209     29210     29209     29211
     29209     29212     29212     29213     29212     29220     29212     29214
     29220     29221     29220     29222     29220     29223     29214     29215
     29215     29217     29215     29216     29217     29218     29217     29219
     29217     29229     29229     29230     29229     29231     29229     29232
     29232     29233     29232     29234     29232     29235     29235     29236
     29235     29237     29235     29238     29238     29239     29238     29240
     29238     29241     29241     29242     29241     29243     29241     29244
     29244     29245     29244     29246     29244     29247     29247     29248
     29247     29249     29249     29250     29249     29251     29251     29252
     29251     29253     29251     29254     29254     29255     29254     29256
     29254     29257     29257     29258     29257     29259     29257     29260
     29260     29261     29260     29262     29260     29263     29263     29264
     29263     29265     29263     29266     29266     29267     29266     29268
     29266     29269     29269     29270     29269     29271     29269     29272
     29272     29273     29272     29274     29272     29275     29223     29224
     29224     29226     29224     29225     29226     29227     29226     29228
     29226     29276     29276     29277     29276     29278     29276     29279
     29279     29280     29279     29281     29279     29282     29282     29283
     29282     29284     29282     29285     29285     29286     29285     29287
     29285     29288     29288     29289     29288     29290     29288     29291
     29291     29292     29291     29293     29291     29294     29294     29295
     29294     29296     29294     29297     29297     29298     29297     29299
     29297     29300     29300     29301     29300     29302     29300     29303
     29303     29304     29303     29305     29303     29306     29306     29307
     29306     29308     29306     29309     29309     29310     29309     29311
     29309     29312     29312     29313     29312     29314     29312     29315
     29315     29316     29315     29317     29315     29318     29319     29323
     29319     29327     29319     29331     29323     29324     29323     29325
     29323     29326     29327     29328     29327     29329     29327     29330
     29331     29332     29331     29333     29331     29334     29319     29320
     29320     29321     29320     29322     29320     29335     29335     29336
     29335     29337     29335     29341     29342     29343     29341     29338
     29338     29342     29338     29339     29338     29340     29343     29344
     29343     29345     29343     29346     29346     29347     29346     29354
     29346     29348     29354     29355     29354     29356     29354     29357
     29348     29349     29349     29351     29349     29350     29351     29352
     29351     29353     29351     29363     29363     29364     29363     29365
     29363     29366     29366     29367     29366     29368     29366     29369
     29369     29370     29369     29371     29369     29372     29372     29373
     29372     29374     29372     29375     29375     29376     29375     29377
     29375     29378     29378     29379     29378     29380     29378     29381
     29381     29382     29381     29383     29383     29384     29383     29385
     29385     29386     29385     29387     29385     29388     29388     29389
     29388     29390     29388     29391     29391     29392     29391     29393
     29391     29394     29394     29395     29394     29396     29394     29397
     29397     29398     29397     29399     29397     29400     29400     29401
     29400     29402     29400     29403     29403     29404     29403     29405
     29403     29406     29406     29407     29406     29408     29406     29409
     29357     29358     29358     29360     29358     29359     29360     29361
     29360     29362     29360     29410     29410     29411     29410     29412
     29410     29413     29413     29414     29413     29415     29413     29416
     29416     29417     29416     29418     29416     29419     29419     29420
     29419     29421     29419     29422     29422     29423     29422     29424
     29422     29425     29425     29426     29425     29427     29425     29428
     29428     29429     29428     29430     29428     29431     29431     29432
     29431     29433     29431     29434     29434     29435     29434     29436
     29434     29437     29437     29438     29437     29439     29437     29440
     29440     29441     29440     29442     29440     29443     29443     29444
     29443     29445     29443     29446     29446     29447     29446     29448
     29446     29449     29449     29450     29449     29451     29449     29452
     29453     29457     29453     29461     29453     29465     29457     29458
     29457     29459     29457     29460     29461     29462     29461     29463
     29461     29464     29465     29466     29465     29467     29465     29468
     29453     29454     29454     29455     29454     29456     29454     29469
     29469     29470     29469     29471     29469     29475     29476     29477
     29475     29472     29472     29476     29472     29473     29472     29474
     29477     29478     29477     29479     29477     29480     29480     29481
     29480     29488     29480     29482     29488     29489     29488     29490
     29488     29491     29482     29483     29483     29485     29483     29484
     29485     29486     29485     29487     29485     29497     29497     29498
     29497     29499     29497     29500     29500     29501     29500     29502
     29500     29503     29503     29504     29503     29505     29503     29506
     29506     29507     29506     29508     29506     29509     29509     29510
     29509     29511     29509     29512     29512     29513     29512     29514
     29512     29515     29515     29516     29515     29517     29517     29518
     29517     29519     29519     29520     29519     29521     29519     29522
     29522     29523     29522     29524     29522     29525     29525     29526
     29525     29527     29525     29528     29528     29529     29528     29530
     29528     29531     29531     29532     29531     29533     29531     29534
     29534     29535     29534     29536     29534     29537     29537     29538
     29537     29539     29537     29540     29540     29541     29540     29542
     29540     29543     29491     29492     29492     29494     29492     29493
     29494     29495     29494     29496     29494     29544     29544     29545
     29544     29546     29544     29547     29547     29548     29547     29549
     29547     29550     29550     29551     29550     29552     29550     29553
     29553     29554     29553     29555     29553     29556     29556     29557
     29556     29558     29556     29559     29559     29560     29559     29561
     29559     29562     29562     29563     29562     29564     29562     29565
     29565     29566     29565     29567     29565     29568     29568     29569
     29568     29570     29568     29571     29571     29572     29571     29573
     29571     29574     29574     29575     29574     29576     29574     29577
     29577     29578     29577     29579     29577     29580     29580     29581
     29580     29582     29580     29583     29583     29584     29583     29585
     29583     29586     29587     29591     29587     29595     29587     29599
     29591     29592     29591     29593     29591     29594     29595     29596
     29595     29597     29595     29598     29599     29600     29599     29601
     29599     29602     29587     29588     29588     29589     29588     29590
     29588     29603     29603     29604     29603     29605     29603     29609
     29610     29611     29609     29606     29606     29610     29606     29607
     29606     29608     29611     29612     29611     29613     29611     29614
     29614     29615     29614     29622     29614     29616     29622     29623
     29622     29624     29622     29625     29616     29617     29617     29619
     29617     29618     29619     29620     29619     29621     29619     29631
     29631     29632     29631     29633     29631     29634     29634     29635
     29634     29636     29634     29637     29637     29638     29637     29639
     29637     29640     29640     29641     29640     29642     29640     29643
     29643     29644     29643     29645     29643     29646     29646     29647
     29646     29648     29646     29649     29649     29650     29649     29651
     29651     29652     29651     29653     29653     29654     29653     29655
     29653     29656     29656     29657     29656     29658     29656     29659
     29659     29660     29659     29661     29659     29662     29662     29663
     29662     29664     29662     29665     29665     29666     29665     29667
     29665     29668     29668     29669     29668     29670     29668     29671
     29671     29672     29671     29673     29671     29674     29674     29675
     29674     29676     29674     29677     29625     29626     29626     29628
     29626     29627     29628     29629     29628     29630     29628     29678
     29678     29679     29678     29680     29678     29681     29681     29682
     29681     29683     29681     29684     29684     29685     29684     29686
     29684     29687     29687     29688     29687     29689     29687     29690
     29690     29691     29690     29692     29690     29693     29693     29694
     29693     29695     29693     29696     29696     29697     29696     29698
     29696     29699     29699     29700     29699     29701     29699     29702
     29702     29703     29702     29704     29702     29705     29705     29706
     29705     29707     29705     29708     29708     29709     29708     29710
     29708     29711     29711     29712     29711     29713     29711     29714
     29714     29715     29714     29716     29714     29717     29717     29718
     29717     29719     29717     29720     29721     29725     29721     29729
     29721     29733     29725     29726     29725     29727     29725     29728
     29729     29730     29729     29731     29729     29732     29733     29734
     29733     29735     29733     29736     29721     29722     29722     29723
     29722     29724     29722     29737     29737     29738     29737     29739
     29737     29743     29744     29745     29743     29740     29740     29744
     29740     29741     29740     29742     29745     29746     29745     29747
     29745     29748     29748     29749     29748     29756     29748     29750
     29756     29757     29756     29758     29756     29759     29750     29751
     29751     29753     29751     29752     29753     29754     29753     29755
     29753     29765     29765     29766     29765     29767     29765     29768
     29768     29769     29768     29770     29768     29771     29771     29772
     29771     29773     29771     29774     29774     29775     29774     29776
     29774     29777     29777     29778     29777     29779     29777     29780
     29780     29781     29780     29782     29780     29783     29783     29784
     29783     29785     29785     29786     29785     29787     29787     29788
     29787     29789     29787     29790     29790     29791     29790     29792
     29790     29793     29793     29794     29793     29795     29793     29796
     29796     29797     29796     29798     29796     29799     29799     29800
     29799     29801     29799     29802     29802     29803     29802     29804
     29802     29805     29805     29806     29805     29807     29805     29808
     29808     29809     29808     29810     29808     29811     29759     29760
     29760     29762     29760     29761     29762     29763     29762     29764
     29762     29812     29812     29813     29812     29814     29812     29815
     29815     29816     29815     29817     29815     29818     29818     29819
     29818     29820     29818     29821     29821     29822     29821     29823
     29821     29824     29824     29825     29824     29826     29824     29827
     29827     29828     29827     29829     29827     29830     29830     29831
     29830     29832     29830     29833     29833     29834     29833     29835
     29833     29836     29836     29837     29836     29838     29836     29839
     29839     29840     29839     29841     29839     29842     29842     29843
     29842     29844     29842     29845     29845     29846     29845     29847
     29845     29848     29848     29849     29848     29850     29848     29851
     29851     29852     29851     29853     29851     29854     29855     29859
     29855     29863     29855     29867     29859     29860     29859     29861
     29859     29862     29863     29864     29863     29865     29863     29866
     29867     29868     29867     29869     29867     29870     29855     29856
     29856     29857     29856     29858     29856     29871     29871     29872
     29871     29873     29871     29877     29878     29879     29877     29874
     29874     29878     29874     29875     29874     29876     29879     29880
     29879     29881     29879     29882     29882     29883     29882     29890
     29882     29884     29890     29891     29890     29892     29890     29893
     29884     29885     29885     29887     29885     29886     29887     29888
     29887     29889     29887     29899     29899     29900     29899     29901
     29899     29902     29902     29903     29902     29904     29902     29905
     29905     29906     29905     29907     29905     29908     29908     29909
     29908     29910     29908     29911     29911     29912     29911     29913
     29911     29914     29914     29915     29914     29916     29914     29917
     29917     29918     29917     29919     29919     29920     29919     29921
     29921     29922     29921     29923     29921     29924     29924     29925
     29924     29926     29924     29927     29927     29928     29927     29929
     29927     29930     29930     29931     29930     29932     29930     29933
     29933     29934     29933     29935     29933     29936     29936     29937
     29936     29938     29936     29939     29939     29940     29939     29941
     29939     29942     29942     29943     29942     29944     29942     29945
     29893     29894     29894     29896     29894     29895     29896     29897
     29896     29898     29896     29946     29946     29947     29946     29948
     29946     29949     29949     29950     29949     29951     29949     29952
     29952     29953     29952     29954     29952     29955     29955     29956
     29955     29957     29955     29958     29958     29959     29958     29960
     29958     29961     29961     29962     29961     29963     29961     29964
     29964     29965     29964     29966     29964     29967     29967     29968
     29967     29969     29967     29970     29970     29971     29970     29972
     29970     29973     29973     29974     29973     29975     29973     29976
     29976     29977     29976     29978     29976     29979     29979     29980
     29979     29981     29979     29982     29982     29983     29982     29984
     29982     29985     29985     29986     29985     29987     29985     29988
     29989     29993     29989     29997     29989     30001     29993     29994
     29993     29995     29993     29996     29997     29998     29997     29999
     29997     30000     30001     30002     30001     30003     30001     30004
     29989     29990     29990     29991     29990     29992     29990     30005
     30005     30006     30005     30007     30005     30011     30012     30013
     30011     30008     30008     30012     30008     30009     30008     30010
     30013     30014     30013     30015     30013     30016     30016     30017
     30016     30024     30016     30018     30024     30025     30024     30026
     30024     30027     30018     30019     30019     30021     30019     30020
     30021     30022     30021     30023     30021     30033     30033     30034
     30033     30035     30033     30036     30036     30037     30036     30038
     30036     30039     30039     30040     30039     30041     30039     30042
     30042     30043     30042     30044     30042     30045     30045     30046
     30045     30047     30045     30048     30048     30049     30048     30050
     30048     30051     30051     30052     30051     30053     30053     30054
     30053     30055     30055     30056     30055     30057     30055     30058
     30058     30059     30058     30060     30058     30061     30061     30062
     30061     30063     30061     30064     30064     30065     30064     30066
     30064     30067     30067     30068     30067     30069     30067     30070
     30070     30071     30070     30072     30070     30073     30073     30074
     30073     30075     30073     30076     30076     30077     30076     30078
     30076     30079     30027     30028     30028     30030     30028     30029
     30030     30031     30030     30032     30030     30080     30080     30081
     30080     30082     30080     30083     30083     30084     30083     30085
     30083     30086     30086     30087     30086     30088     30086     30089
     30089     30090     30089     30091     30089     30092     30092     30093
     30092     30094     30092     30095     30095     30096     30095     30097
     30095     30098     30098     30099     30098     30100     30098     30101
     30101     30102     30101     30103     30101     30104     30104     30105
     30104     30106     30104     30107     30107     30108     30107     30109
     30107     30110     30110     30111     30110     30112     30110     30113
     30113     30114     30113     30115     30113     30116     30116     30117
     30116     30118     30116     30119     30119     30120     30119     30121
     30119     30122     30123     30127     30123     30131     30123     30135
     30127     30128     30127     30129     30127     30130     30131     30132
     30131     30133     30131     30134     30135     30136     30135     30137
     30135     30138     30123     30124     30124     30125     30124     30126
     30124     30139     30139     30140     30139     30141     30139     30145
     30146     30147     30145     30142     30142     30146     30142     30143
     30142     30144     30147     30148     30147     30149     30147     30150
     30150     30151     30150     30158     30150     30152     30158     30159
     30158     30160     30158     30161     30152     30153     30153     30155
     30153     30154     30155     30156     30155     30157     30155     30167
     30167     30168     30167     30169     30167     30170     30170     30171
     30170     30172     30170     30173     30173     30174     30173     30175
     30173     30176     30176     30177     30176     30178     30176     30179
     30179     30180     30179     30181     30179     30182     30182     30183
     30182     30184     30182     30185     30185     30186     30185     30187
     30187     30188     30187     30189     30189     30190     30189     30191
     30189     30192     30192     30193     30192     30194     30192     30195
     30195     30196     30195     30197     30195     30198     30198     30199
     30198     30200     30198     30201     30201     30202     30201     30203
     30201     30204     30204     30205     30204     30206     30204     30207
     30207     30208     30207     30209     30207     30210     30210     30211
     30210     30212     30210     30213     30161     30162     30162     30164
     30162     30163     30164     30165     30164     30166     30164     30214
     30214     30215     30214     30216     30214     30217     30217     30218
     30217     30219     30217     30220     30220     30221     30220     30222
     30220     30223     30223     30224     30223     30225     30223     30226
     30226     30227     30226     30228     30226     30229     30229     30230
     30229     30231     30229     30232     30232     30233     30232     30234
     30232     30235     30235     30236     30235     30237     30235     30238
     30238     30239     30238     30240     30238     30241     30241     30242
     30241     30243     30241     30244     30244     30245     30244     30246
     30244     30247     30247     30248     30247     30249     30247     30250
     30250     30251     30250     30252     30250     30253     30253     30254
     30253     30255     30253     30256     30257     30261     30257     30265
     30257     30269     30261     30262     30261     30263     30261     30264
     30265     30266     30265     30267     30265     30268     30269     30270
     30269     30271     30269     30272     30257     30258     30258     30259
     30258     30260     30258     30273     30273     30274     30273     30275
     30273     30279     30280     30281     30279     30276     30276     30280
     30276     30277     30276     30278     30281     30282     30281     30283
     30281     30284     30284     30285     30284     30292     30284     30286
     30292     30293     30292     30294     30292     30295     30286     30287
     30287     30289     30287     30288     30289     30290     30289     30291
     30289     30301     30301     30302     30301     30303     30301     30304
     30304     30305     30304     30306     30304     30307     30307     30308
     30307     30309     30307     30310     30310     30311     30310     30312
     30310     30313     30313     30314     30313     30315     30313     30316
     30316     30317     30316     30318     30316     30319     30319     30320
     30319     30321     30321     30322     30321     30323     30323     30324
     30323     30325     30323     30326     30326     30327     30326     30328
     30326     30329     30329     30330     30329     30331     30329     30332
     30332     30333     30332     30334     30332     30335     30335     30336
     30335     30337     30335     30338     30338     30339     30338     30340
     30338     30341     30341     30342     30341     30343     30341     30344
     30344     30345     30344     30346     30344     30347     30295     30296
     30296     30298     30296     30297     30298     30299     30298     30300
     30298     30348     30348     30349     30348     30350     30348     30351
     30351     30352     30351     30353     30351     30354     30354     30355
     30354     30356     30354     30357     30357     30358     30357     30359
     30357     30360     30360     30361     30360     30362     30360     30363
     30363     30364     30363     30365     30363     30366     30366     30367
     30366     30368     30366     30369     30369     30370     30369     30371
     30369     30372     30372     30373     30372     30374     30372     30375
     30375     30376     30375     30377     30375     30378     30378     30379
     30378     30380     30378     30381     30381     30382     30381     30383
     30381     30384     30384     30385     30384     30386     30384     30387
     30387     30388     30387     30389     30387     30390     30391     30395
     30391     30399     30391     30403     30395     30396     30395     30397
     30395     30398     30399     30400     30399     30401     30399     30402
     30403     30404     30403     30405     30403     30406     30391     30392
     30392     30393     30392     30394     30392     30407     30407     30408
     30407     30409     30407     30413     30414     30415     30413     30410
     30410     30414     30410     30411     30410     30412     30415     30416
     30415     30417     30415     30418     30418     30419     30418     30426
     30418     30420     30426     30427     30426     30428     30426     30429
     30420     30421     30421     30423     30421     30422     30423     30424
     30423     30425     30423     30435     30435     30436     30435     30437
     30435     30438     30438     30439     30438     30440     30438     30441
     30441     30442     30441     30443     30441     30444     30444     30445
     30444     30446     30444     30447     30447     30448     30447     30449
     30447     30450     30450     30451     30450     30452     30450     30453
     30453     30454     30453     30455     30455     30456     30455     30457
     30457     30458     30457     30459     30457     30460     30460     30461
     30460     30462     30460     30463     30463     30464     30463     30465
     30463     30466     30466     30467     30466     30468     30466     30469
     30469     30470     30469     30471     30469     30472     30472     30473
     30472     30474     30472     30475     30475     30476     30475     30477
     30475     30478     30478     30479     30478     30480     30478     30481
     30429     30430     30430     30432     30430     30431     30432     30433
     30432     30434     30432     30482     30482     30483     30482     30484
     30482     30485     30485     30486     30485     30487     30485     30488
     30488     30489     30488     30490     30488     30491     30491     30492
     30491     30493     30491     30494     30494     30495     30494     30496
     30494     30497     30497     30498     30497     30499     30497     30500
     30500     30501     30500     30502     30500     30503     30503     30504
     30503     30505     30503     30506     30506     30507     30506     30508
     30506     30509     30509     30510     30509     30511     30509     30512
     30512     30513     30512     30514     30512     30515     30515     30516
     30515     30517     30515     30518     30518     30519     30518     30520
     30518     30521     30521     30522     30521     30523     30521     30524
     30525     30529     30525     30533     30525     30537     30529     30530
     30529     30531     30529     30532     30533     30534     30533     30535
     30533     30536     30537     30538     30537     30539     30537     30540
     30525     30526     30526     30527     30526     30528     30526     30541
     30541     30542     30541     30543     30541     30547     30548     30549
     30547     30544     30544     30548     30544     30545     30544     30546
     30549     30550     30549     30551     30549     30552     30552     30553
     30552     30560     30552     30554     30560     30561     30560     30562
     30560     30563     30554     30555     30555     30557     30555     30556
     30557     30558     30557     30559     30557     30569     30569     30570
     30569     30571     30569     30572     30572     30573     30572     30574
     30572     30575     30575     30576     30575     30577     30575     30578
     30578     30579     30578     30580     30578     30581     30581     30582
     30581     30583     30581     30584     30584     30585     30584     30586
     30584     30587     30587     30588     30587     30589     30589     30590
     30589     30591     30591     30592     30591     30593     30591     30594
     30594     30595     30594     30596     30594     30597     30597     30598
     30597     30599     30597     30600     30600     30601     30600     30602
     30600     30603     30603     30604     30603     30605     30603     30606
     30606     30607     30606     30608     30606     30609     30609     30610
     30609     30611     30609     30612     30612     30613     30612     30614
     30612     30615     30563     30564     30564     30566     30564     30565
     30566     30567     30566     30568     30566     30616     30616     30617
     30616     30618     30616     30619     30619     30620     30619     30621
     30619     30622     30622     30623     30622     30624     30622     30625
     30625     30626     30625     30627     30625     30628     30628     30629
     30628     30630     30628     30631     30631     30632     30631     30633
     30631     30634     30634     30635     30634     30636     30634     30637
     30637     30638     30637     30639     30637     30640     30640     30641
     30640     30642     30640     30643     30643     30644     30643     30645
     30643     30646     30646     30647     30646     30648     30646     30649
     30649     30650     30649     30651     30649     30652     30652     30653
     30652     30654     30652     30655     30655     30656     30655     30657
     30655     30658     30659     30663     30659     30667     30659     30671
     30663     30664     30663     30665     30663     30666     30667     30668
     30667     30669     30667     30670     30671     30672     30671     30673
     30671     30674     30659     30660     30660     30661     30660     30662
     30660     30675     30675     30676     30675     30677     30675     30681
     30682     30683     30681     30678     30678     30682     30678     30679
     30678     30680     30683     30684     30683     30685     30683     30686
     30686     30687     30686     30694     30686     30688     30694     30695
     30694     30696     30694     30697     30688     30689     30689     30691
     30689     30690     30691     30692     30691     30693     30691     30703
     30703     30704     30703     30705     30703     30706     30706     30707
     30706     30708     30706     30709     30709     30710     30709     30711
     30709     30712     30712     30713     30712     30714     30712     30715
     30715     30716     30715     30717     30715     30718     30718     30719
     30718     30720     30718     30721     30721     30722     30721     30723
     30723     30724     30723     30725     30725     30726     30725     30727
     30725     30728     30728     30729     30728     30730     30728     30731
     30731     30732     30731     30733     30731     30734     30734     30735
     30734     30736     30734     30737     30737     30738     30737     30739
     30737     30740     30740     30741     30740     30742     30740     30743
     30743     30744     30743     30745     30743     30746     30746     30747
     30746     30748     30746     30749     30697     30698     30698     30700
     30698     30699     30700     30701     30700     30702     30700     30750
     30750     30751     30750     30752     30750     30753     30753     30754
     30753     30755     30753     30756     30756     30757     30756     30758
     30756     30759     30759     30760     30759     30761     30759     30762
     30762     30763     30762     30764     30762     30765     30765     30766
     30765     30767     30765     30768     30768     30769     30768     30770
     30768     30771     30771     30772     30771     30773     30771     30774
     30774     30775     30774     30776     30774     30777     30777     30778
     30777     30779     30777     30780     30780     30781     30780     30782
     30780     30783     30783     30784     30783     30785     30783     30786
     30786     30787     30786     30788     30786     30789     30789     30790
     30789     30791     30789     30792     30793     30797     30793     30801
     30793     30805     30797     30798     30797     30799     30797     30800
     30801     30802     30801     30803     30801     30804     30805     30806
     30805     30807     30805     30808     30793     30794     30794     30795
     30794     30796     30794     30809     30809     30810     30809     30811
     30809     30815     30816     30817     30815     30812     30812     30816
     30812     30813     30812     30814     30817     30818     30817     30819
     30817     30820     30820     30821     30820     30828     30820     30822
     30828     30829     30828     30830     30828     30831     30822     30823
     30823     30825     30823     30824     30825     30826     30825     30827
     30825     30837     30837     30838     30837     30839     30837     30840
     30840     30841     30840     30842     30840     30843     30843     30844
     30843     30845     30843     30846     30846     30847     30846     30848
     30846     30849     30849     30850     30849     30851     30849     30852
     30852     30853     30852     30854     30852     30855     30855     30856
     30855     30857     30857     30858     30857     30859     30859     30860
     30859     30861     30859     30862     30862     30863     30862     30864
     30862     30865     30865     30866     30865     30867     30865     30868
     30868     30869     30868     30870     30868     30871     30871     30872
     30871     30873     30871     30874     30874     30875     30874     30876
     30874     30877     30877     30878     30877     30879     30877     30880
     30880     30881     30880     30882     30880     30883     30831     30832
     30832     30834     30832     30833     30834     30835     30834     30836
     30834     30884     30884     30885     30884     30886     30884     30887
     30887     30888     30887     30889     30887     30890     30890     30891
     30890     30892     30890     30893     30893     30894     30893     30895
     30893     30896     30896     30897     30896     30898     30896     30899
     30899     30900     30899     30901     30899     30902     30902     30903
     30902     30904     30902     30905     30905     30906     30905     30907
     30905     30908     30908     30909     30908     30910     30908     30911
     30911     30912     30911     30913     30911     30914     30914     30915
     30914     30916     30914     30917     30917     30918     30917     30919
     30917     30920     30920     30921     30920     30922     30920     30923
     30923     30924     30923     30925     30923     30926     30927     30931
     30927     30935     30927     30939     30931     30932     30931     30933
     30931     30934     30935     30936     30935     30937     30935     30938
     30939     30940     30939     30941     30939     30942     30927     30928
     30928     30929     30928     30930     30928     30943     30943     30944
     30943     30945     30943     30949     30950     30951     30949     30946
     30946     30950     30946     30947     30946     30948     30951     30952
     30951     30953     30951     30954     30954     30955     30954     30962
     30954     30956     30962     30963     30962     30964     30962     30965
     30956     30957     30957     30959     30957     30958     30959     30960
     30959     30961     30959     30971     30971     30972     30971     30973
     30971     30974     30974     30975     30974     30976     30974     30977
     30977     30978     30977     30979     30977     30980     30980     30981
     30980     30982     30980     30983     30983     30984     30983     30985
     30983     30986     30986     30987     30986     30988     30986     30989
     30989     30990     30989     30991     30991     30992     30991     30993
     30993     30994     30993     30995     30993     30996     30996     30997
     30996     30998     30996     30999     30999     31000     30999     31001
     30999     31002     31002     31003     31002     31004     31002     31005
     31005     31006     31005     31007     31005     31008     31008     31009
     31008     31010     31008     31011     31011     31012     31011     31013
     31011     31014     31014     31015     31014     31016     31014     31017
     30965     30966     30966     30968     30966     30967     30968     30969
     30968     30970     30968     31018     31018     31019     31018     31020
     31018     31021     31021     31022     31021     31023     31021     31024
     31024     31025     31024     31026     31024     31027     31027     31028
     31027     31029     31027     31030     31030     31031     31030     31032
     31030     31033     31033     31034     31033     31035     31033     31036
     31036     31037     31036     31038     31036     31039     31039     31040
     31039     31041     31039     31042     31042     31043     31042     31044
     31042     31045     31045     31046     31045     31047     31045     31048
     31048     31049     31048     31050     31048     31051     31051     31052
     31051     31053     31051     31054     31054     31055     31054     31056
     31054     31057     31057     31058     31057     31059     31057     31060
     31061     31065     31061     31069     31061     31073     31065     31066
     31065     31067     31065     31068     31069     31070     31069     31071
     31069     31072     31073     31074     31073     31075     31073     31076
     31061     31062     31062     31063     31062     31064     31062     31077
     31077     31078     31077     31079     31077     31083     31084     31085
     31083     31080     31080     31084     31080     31081     31080     31082
     31085     31086     31085     31087     31085     31088     31088     31089
     31088     31096     31088     31090     31096     31097     31096     31098
     31096     31099     31090     31091     31091     31093     31091     31092
     31093     31094     31093     31095     31093     31105     31105     31106
     31105     31107     31105     31108     31108     31109     31108     31110
     31108     31111     31111     31112     31111     31113     31111     31114
     31114     31115     31114     31116     31114     31117     31117     31118
     31117     31119     31117     31120     31120     31121     31120     31122
     31120     31123     31123     31124     31123     31125     31125     31126
     31125     31127     31127     31128     31127     31129     31127     31130
     31130     31131     31130     31132     31130     31133     31133     31134
     31133     31135     31133     31136     31136     31137     31136     31138
     31136     31139     31139     31140     31139     31141     31139     31142
     31142     31143     31142     31144     31142     31145     31145     31146
     31145     31147     31145     31148     31148     31149     31148     31150
     31148     31151     31099     31100     31100     31102     31100     31101
     31102     31103     31102     31104     31102     31152     31152     31153
     31152     31154     31152     31155     31155     31156     31155     31157
     31155     31158     31158     31159     31158     31160     31158     31161
     31161     31162     31161     31163     31161     31164     31164     31165
     31164     31166     31164     31167     31167     31168     31167     31169
     31167     31170     31170     31171     31170     31172     31170     31173
     31173     31174     31173     31175     31173     31176     31176     31177
     31176     31178     31176     31179     31179     31180     31179     31181
     31179     31182     31182     31183     31182     31184     31182     31185
     31185     31186     31185     31187     31185     31188     31188     31189
     31188     31190     31188     31191     31191     31192     31191     31193
     31191     31194     31195     31199     31195     31203     31195     31207
     31199     31200     31199     31201     31199     31202     31203     31204
     31203     31205     31203     31206     31207     31208     31207     31209
     31207     31210     31195     31196     31196     31197     31196     31198
     31196     31211     31211     31212     31211     31213     31211     31217
     31218     31219     31217     31214     31214     31218     31214     31215
     31214     31216     31219     31220     31219     31221     31219     31222
     31222     31223     31222     31230     31222     31224     31230     31231
     31230     31232     31230     31233     31224     31225     31225     31227
     31225     31226     31227     31228     31227     31229     31227     31239
     31239     31240     31239     31241     31239     31242     31242     31243
     31242     31244     31242     31245     31245     31246     31245     31247
     31245     31248     31248     31249     31248     31250     31248     31251
     31251     31252     31251     31253     31251     31254     31254     31255
     31254     31256     31254     31257     31257     31258     31257     31259
     31259     31260     31259     31261     31261     31262     31261     31263
     31261     31264     31264     31265     31264     31266     31264     31267
     31267     31268     31267     31269     31267     31270     31270     31271
     31270     31272     31270     31273     31273     31274     31273     31275
     31273     31276     31276     31277     31276     31278     31276     31279
     31279     31280     31279     31281     31279     31282     31282     31283
     31282     31284     31282     31285     31233     31234     31234     31236
     31234     31235     31236     31237     31236     31238     31236     31286
     31286     31287     31286     31288     31286     31289     31289     31290
     31289     31291     31289     31292     31292     31293     31292     31294
     31292     31295     31295     31296     31295     31297     31295     31298
     31298     31299     31298     31300     31298     31301     31301     31302
     31301     31303     31301     31304     31304     31305     31304     31306
     31304     31307     31307     31308     31307     31309     31307     31310
     31310     31311     31310     31312     31310     31313     31313     31314
     31313     31315     31313     31316     31316     31317     31316     31318
     31316     31319     31319     31320     31319     31321     31319     31322
     31322     31323     31322     31324     31322     31325     31325     31326
     31325     31327     31325     31328     31329     31333     31329     31337
     31329     31341     31333     31334     31333     31335     31333     31336
     31337     31338     31337     31339     31337     31340     31341     31342
     31341     31343     31341     31344     31329     31330     31330     31331
     31330     31332     31330     31345     31345     31346     31345     31347
     31345     31351     31352     31353     31351     31348     31348     31352
     31348     31349     31348     31350     31353     31354     31353     31355
     31353     31356     31356     31357     31356     31364     31356     31358
     31364     31365     31364     31366     31364     31367     31358     31359
     31359     31361     31359     31360     31361     31362     31361     31363
     31361     31373     31373     31374     31373     31375     31373     31376
     31376     31377     31376     31378     31376     31379     31379     31380
     31379     31381     31379     31382     31382     31383     31382     31384
     31382     31385     31385     31386     31385     31387     31385     31388
     31388     31389     31388     31390     31388     31391     31391     31392
     31391     31393     31393     31394     31393     31395     31395     31396
     31395     31397     31395     31398     31398     31399     31398     31400
     31398     31401     31401     31402     31401     31403     31401     31404
     31404     31405     31404     31406     31404     31407     31407     31408
     31407     31409     31407     31410     31410     31411     31410     31412
     31410     31413     31413     31414     31413     31415     31413     31416
     31416     31417     31416     31418     31416     31419     31367     31368
     31368     31370     31368     31369     31370     31371     31370     31372
     31370     31420     31420     31421     31420     31422     31420     31423
     31423     31424     31423     31425     31423     31426     31426     31427
     31426     31428     31426     31429     31429     31430     31429     31431
     31429     31432     31432     31433     31432     31434     31432     31435
     31435     31436     31435     31437     31435     31438     31438     31439
     31438     31440     31438     31441     31441     31442     31441     31443
     31441     31444     31444     31445     31444     31446     31444     31447
     31447     31448     31447     31449     31447     31450     31450     31451
     31450     31452     31450     31453     31453     31454     31453     31455
     31453     31456     31456     31457     31456     31458     31456     31459
     31459     31460     31459     31461     31459     31462     31463     31467
     31463     31471     31463     31475     31467     31468     31467     31469
     31467     31470     31471     31472     31471     31473     31471     31474
     31475     31476     31475     31477     31475     31478     31463     31464
     31464     31465     31464     31466     31464     31479     31479     31480
     31479     31481     31479     31485     31486     31487     31485     31482
     31482     31486     31482     31483     31482     31484     31487     31488
     31487     31489     31487     31490     31490     31491     31490     31498
     31490     31492     31498     31499     31498     31500     31498     31501
     31492     31493     31493     31495     31493     31494     31495     31496
     31495     31497     31495     31507     31507     31508     31507     31509
     31507     31510     31510     31511     31510     31512     31510     31513
     31513     31514     31513     31515     31513     31516     31516     31517
     31516     31518     31516     31519     31519     31520     31519     31521
     31519     31522     31522     31523     31522     31524     31522     31525
     31525     31526     31525     31527     31527     31528     31527     31529
     31529     31530     31529     31531     31529     31532     31532     31533
     31532     31534     31532     31535     31535     31536     31535     31537
     31535     31538     31538     31539     31538     31540     31538     31541
     31541     31542     31541     31543     31541     31544     31544     31545
     31544     31546     31544     31547     31547     31548     31547     31549
     31547     31550     31550     31551     31550     31552     31550     31553
     31501     31502     31502     31504     31502     31503     31504     31505
     31504     31506     31504     31554     31554     31555     31554     31556
     31554     31557     31557     31558     31557     31559     31557     31560
     31560     31561     31560     31562     31560     31563     31563     31564
     31563     31565     31563     31566     31566     31567     31566     31568
     31566     31569     31569     31570     31569     31571     31569     31572
     31572     31573     31572     31574     31572     31575     31575     31576
     31575     31577     31575     31578     31578     31579     31578     31580
     31578     31581     31581     31582     31581     31583     31581     31584
     31584     31585     31584     31586     31584     31587     31587     31588
     31587     31589     31587     31590     31590     31591     31590     31592
     31590     31593     31593     31594     31593     31595     31593     31596
     31597     31601     31597     31605     31597     31609     31601     31602
     31601     31603     31601     31604     31605     31606     31605     31607
     31605     31608     31609     31610     31609     31611     31609     31612
     31597     31598     31598     31599     31598     31600     31598     31613
     31613     31614     31613     31615     31613     31619     31620     31621
     31619     31616     31616     31620     31616     31617     31616     31618
     31621     31622     31621     31623     31621     31624     31624     31625
     31624     31632     31624     31626     31632     31633     31632     31634
     31632     31635     31626     31627     31627     31629     31627     31628
     31629     31630     31629     31631     31629     31641     31641     31642
     31641     31643     31641     31644     31644     31645     31644     31646
     31644     31647     31647     31648     31647     31649     31647     31650
     31650     31651     31650     31652     31650     31653     31653     31654
     31653     31655     31653     31656     31656     31657     31656     31658
     31656     31659     31659     31660     31659     31661     31661     31662
     31661     31663     31663     31664     31663     31665     31663     31666
     31666     31667     31666     31668     31666     31669     31669     31670
     31669     31671     31669     31672     31672     31673     31672     31674
     31672     31675     31675     31676     31675     31677     31675     31678
     31678     31679     31678     31680     31678     31681     31681     31682
     31681     31683     31681     31684     31684     31685     31684     31686
     31684     31687     31635     31636     31636     31638     31636     31637
     31638     31639     31638     31640     31638     31688     31688     31689
     31688     31690     31688     31691     31691     31692     31691     31693
     31691     31694     31694     31695     31694     31696     31694     31697
     31697     31698     31697     31699     31697     31700     31700     31701
     31700     31702     31700     31703     31703     31704     31703     31705
     31703     31706     31706     31707     31706     31708     31706     31709
     31709     31710     31709     31711     31709     31712     31712     31713
     31712     31714     31712     31715     31715     31716     31715     31717
     31715     31718     31718     31719     31718     31720     31718     31721
     31721     31722     31721     31723     31721     31724     31724     31725
     31724     31726     31724     31727     31727     31728     31727     31729
     31727     31730     31731     31735     31731     31739     31731     31743
     31735     31736     31735     31737     31735     31738     31739     31740
     31739     31741     31739     31742     31743     31744     31743     31745
     31743     31746     31731     31732     31732     31733     31732     31734
     31732     31747     31747     31748     31747     31749     31747     31753
     31754     31755     31753     31750     31750     31754     31750     31751
     31750     31752     31755     31756     31755     31757     31755     31758
     31758     31759     31758     31766     31758     31760     31766     31767
     31766     31768     31766     31769     31760     31761     31761     31763
     31761     31762     31763     31764     31763     31765     31763     31775
     31775     31776     31775     31777     31775     31778     31778     31779
     31778     31780     31778     31781     31781     31782     31781     31783
     31781     31784     31784     31785     31784     31786     31784     31787
     31787     31788     31787     31789     31787     31790     31790     31791
     31790     31792     31790     31793     31793     31794     31793     31795
     31795     31796     31795     31797     31797     31798     31797     31799
     31797     31800     31800     31801     31800     31802     31800     31803
     31803     31804     31803     31805     31803     31806     31806     31807
     31806     31808     31806     31809     31809     31810     31809     31811
     31809     31812     31812     31813     31812     31814     31812     31815
     31815     31816     31815     31817     31815     31818     31818     31819
     31818     31820     31818     31821     31769     31770     31770     31772
     31770     31771     31772     31773     31772     31774     31772     31822
     31822     31823     31822     31824     31822     31825     31825     31826
     31825     31827     31825     31828     31828     31829     31828     31830
     31828     31831     31831     31832     31831     31833     31831     31834
     31834     31835     31834     31836     31834     31837     31837     31838
     31837     31839     31837     31840     31840     31841     31840     31842
     31840     31843     31843     31844     31843     31845     31843     31846
     31846     31847     31846     31848     31846     31849     31849     31850
     31849     31851     31849     31852     31852     31853     31852     31854
     31852     31855     31855     31856     31855     31857     31855     31858
     31858     31859     31858     31860     31858     31861     31861     31862
     31861     31863     31861     31864     31865     31869     31865     31873
     31865     31877     31869     31870     31869     31871     31869     31872
     31873     31874     31873     31875     31873     31876     31877     31878
     31877     31879     31877     31880     31865     31866     31866     31867
     31866     31868     31866     31881     31881     31882     31881     31883
     31881     31887     31888     31889     31887     31884     31884     31888
     31884     31885     31884     31886     31889     31890     31889     31891
     31889     31892     31892     31893     31892     31900     31892     31894
     31900     31901     31900     31902     31900     31903     31894     31895
     31895     31897     31895     31896     31897     31898     31897     31899
     31897     31909     31909     31910     31909     31911     31909     31912
     31912     31913     31912     31914     31912     31915     31915     31916
     31915     31917     31915     31918     31918     31919     31918     31920
     31918     31921     31921     31922     31921     31923     31921     31924
     31924     31925     31924     31926     31924     31927     31927     31928
     31927     31929     31929     31930     31929     31931     31931     31932
     31931     31933     31931     31934     31934     31935     31934     31936
     31934     31937     31937     31938     31937     31939     31937     31940
     31940     31941     31940     31942     31940     31943     31943     31944
     31943     31945     31943     31946     31946     31947     31946     31948
     31946     31949     31949     31950     31949     31951     31949     31952
     31952     31953     31952     31954     31952     31955     31903     31904
     31904     31906     31904     31905     31906     31907     31906     31908
     31906     31956     31956     31957     31956     31958     31956     31959
     31959     31960     31959     31961     31959     31962     31962     31963
     31962     31964     31962     31965     31965     31966     31965     31967
     31965     31968     31968     31969     31968     31970     31968     31971
     31971     31972     31971     31973     31971     31974     31974     31975
     31974     31976     31974     31977     31977     31978     31977     31979
     31977     31980     31980     31981     31980     31982     31980     31983
     31983     31984     31983     31985     31983     31986     31986     31987
     31986     31988     31986     31989     31989     31990     31989     31991
     31989     31992     31992     31993     31992     31994     31992     31995
     31995     31996     31995     31997     31995     31998     31999     32003
     31999     32007     31999     32011     32003     32004     32003     32005
     32003     32006     32007     32008     32007     32009     32007     32010
     32011     32012     32011     32013     32011     32014     31999     32000
     32000     32001     32000     32002     32000     32015     32015     32016
     32015     32017     32015     32021     32022     32023     32021     32018
     32018     32022     32018     32019     32018     32020     32023     32024
     32023     32025     32023     32026     32026     32027     32026     32034
     32026     32028     32034     32035     32034     32036     32034     32037
     32028     32029     32029     32031     32029     32030     32031     32032
     32031     32033     32031     32043     32043     32044     32043     32045
     32043     32046     32046     32047     32046     32048     32046     32049
     32049     32050     32049     32051     32049     32052     32052     32053
     32052     32054     32052     32055     32055     32056     32055     32057
     32055     32058     32058     32059     32058     32060     32058     32061
     32061     32062     32061     32063     32063     32064     32063     32065
     32065     32066     32065     32067     32065     32068     32068     32069
     32068     32070     32068     32071     32071     32072     32071     32073
     32071     32074     32074     32075     32074     32076     32074     32077
     32077     32078     32077     32079     32077     32080     32080     32081
     32080     32082     32080     32083     32083     32084     32083     32085
     32083     32086     32086     32087     32086     32088     32086     32089
     32037     32038     32038     32040     32038     32039     32040     32041
     32040     32042     32040     32090     32090     32091     32090     32092
     32090     32093     32093     32094     32093     32095     32093     32096
     32096     32097     32096     32098     32096     32099     32099     32100
     32099     32101     32099     32102     32102     32103     32102     32104
     32102     32105     32105     32106     32105     32107     32105     32108
     32108     32109     32108     32110     32108     32111     32111     32112
     32111     32113     32111     32114     32114     32115     32114     32116
     32114     32117     32117     32118     32117     32119     32117     32120
     32120     32121     32120     32122     32120     32123     32123     32124
     32123     32125     32123     32126     32126     32127     32126     32128
     32126     32129     32129     32130     32129     32131     32129     32132
     32133     32137     32133     32141     32133     32145     32137     32138
     32137     32139     32137     32140     32141     32142     32141     32143
     32141     32144     32145     32146     32145     32147     32145     32148
     32133     32134     32134     32135     32134     32136     32134     32149
     32149     32150     32149     32151     32149     32155     32156     32157
     32155     32152     32152     32156     32152     32153     32152     32154
     32157     32158     32157     32159     32157     32160     32160     32161
     32160     32168     32160     32162     32168     32169     32168     32170
     32168     32171     32162     32163     32163     32165     32163     32164
     32165     32166     32165     32167     32165     32177     32177     32178
     32177     32179     32177     32180     32180     32181     32180     32182
     32180     32183     32183     32184     32183     32185     32183     32186
     32186     32187     32186     32188     32186     32189     32189     32190
     32189     32191     32189     32192     32192     32193     32192     32194
     32192     32195     32195     32196     32195     32197     32197     32198
     32197     32199     32199     32200     32199     32201     32199     32202
     32202     32203     32202     32204     32202     32205     32205     32206
     32205     32207     32205     32208     32208     32209     32208     32210
     32208     32211     32211     32212     32211     32213     32211     32214
     32214     32215     32214     32216     32214     32217     32217     32218
     32217     32219     32217     32220     32220     32221     32220     32222
     32220     32223     32171     32172     32172     32174     32172     32173
     32174     32175     32174     32176     32174     32224     32224     32225
     32224     32226     32224     32227     32227     32228     32227     32229
     32227     32230     32230     32231     32230     32232     32230     32233
     32233     32234     32233     32235     32233     32236     32236     32237
     32236     32238     32236     32239     32239     32240     32239     32241
     32239     32242     32242     32243     32242     32244     32242     32245
     32245     32246     32245     32247     32245     32248     32248     32249
     32248     32250     32248     32251     32251     32252     32251     32253
     32251     32254     32254     32255     32254     32256     32254     32257
     32257     32258     32257     32259     32257     32260     32260     32261
     32260     32262     32260     32263     32263     32264     32263     32265
     32263     32266     32267     32271     32267     32275     32267     32279
     32271     32272     32271     32273     32271     32274     32275     32276
     32275     32277     32275     32278     32279     32280     32279     32281
     32279     32282     32267     32268     32268     32269     32268     32270
     32268     32283     32283     32284     32283     32285     32283     32289
     32290     32291     32289     32286     32286     32290     32286     32287
     32286     32288     32291     32292     32291     32293     32291     32294
     32294     32295     32294     32302     32294     32296     32302     32303
     32302     32304     32302     32305     32296     32297     32297     32299
     32297     32298     32299     32300     32299     32301     32299     32311
     32311     32312     32311     32313     32311     32314     32314     32315
     32314     32316     32314     32317     32317     32318     32317     32319
     32317     32320     32320     32321     32320     32322     32320     32323
     32323     32324     32323     32325     32323     32326     32326     32327
     32326     32328     32326     32329     32329     32330     32329     32331
     32331     32332     32331     32333     32333     32334     32333     32335
     32333     32336     32336     32337     32336     32338     32336     32339
     32339     32340     32339     32341     32339     32342     32342     32343
     32342     32344     32342     32345     32345     32346     32345     32347
     32345     32348     32348     32349     32348     32350     32348     32351
     32351     32352     32351     32353     32351     32354     32354     32355
     32354     32356     32354     32357     32305     32306     32306     32308
     32306     32307     32308     32309     32308     32310     32308     32358
     32358     32359     32358     32360     32358     32361     32361     32362
     32361     32363     32361     32364     32364     32365     32364     32366
     32364     32367     32367     32368     32367     32369     32367     32370
     32370     32371     32370     32372     32370     32373     32373     32374
     32373     32375     32373     32376     32376     32377     32376     32378
     32376     32379     32379     32380     32379     32381     32379     32382
     32382     32383     32382     32384     32382     32385     32385     32386
     32385     32387     32385     32388     32388     32389     32388     32390
     32388     32391     32391     32392     32391     32393     32391     32394
     32394     32395     32394     32396     32394     32397     32397     32398
     32397     32399     32397     32400     32401     32405     32401     32409
     32401     32413     32405     32406     32405     32407     32405     32408
     32409     32410     32409     32411     32409     32412     32413     32414
     32413     32415     32413     32416     32401     32402     32402     32403
     32402     32404     32402     32417     32417     32418     32417     32419
     32417     32423     32424     32425     32423     32420     32420     32424
     32420     32421     32420     32422     32425     32426     32425     32427
     32425     32428     32428     32429     32428     32436     32428     32430
     32436     32437     32436     32438     32436     32439     32430     32431
     32431     32433     32431     32432     32433     32434     32433     32435
     32433     32445     32445     32446     32445     32447     32445     32448
     32448     32449     32448     32450     32448     32451     32451     32452
     32451     32453     32451     32454     32454     32455     32454     32456
     32454     32457     32457     32458     32457     32459     32457     32460
     32460     32461     32460     32462     32460     32463     32463     32464
     32463     32465     32465     32466     32465     32467     32467     32468
     32467     32469     32467     32470     32470     32471     32470     32472
     32470     32473     32473     32474     32473     32475     32473     32476
     32476     32477     32476     32478     32476     32479     32479     32480
     32479     32481     32479     32482     32482     32483     32482     32484
     32482     32485     32485     32486     32485     32487     32485     32488
     32488     32489     32488     32490     32488     32491     32439     32440
     32440     32442     32440     32441     32442     32443     32442     32444
     32442     32492     32492     32493     32492     32494     32492     32495
     32495     32496     32495     32497     32495     32498     32498     32499
     32498     32500     32498     32501     32501     32502     32501     32503
     32501     32504     32504     32505     32504     32506     32504     32507
     32507     32508     32507     32509     32507     32510     32510     32511
     32510     32512     32510     32513     32513     32514     32513     32515
     32513     32516     32516     32517     32516     32518     32516     32519
     32519     32520     32519     32521     32519     32522     32522     32523
     32522     32524     32522     32525     32525     32526     32525     32527
     32525     32528     32528     32529     32528     32530     32528     32531
     32531     32532     32531     32533     32531     32534     32535     32539
     32535     32543     32535     32547     32539     32540     32539     32541
     32539     32542     32543     32544     32543     32545     32543     32546
     32547     32548     32547     32549     32547     32550     32535     32536
     32536     32537     32536     32538     32536     32551     32551     32552
     32551     32553     32551     32557     32558     32559     32557     32554
     32554     32558     32554     32555     32554     32556     32559     32560
     32559     32561     32559     32562     32562     32563     32562     32570
     32562     32564     32570     32571     32570     32572     32570     32573
     32564     32565     32565     32567     32565     32566     32567     32568
     32567     32569     32567     32579     32579     32580     32579     32581
     32579     32582     32582     32583     32582     32584     32582     32585
     32585     32586     32585     32587     32585     32588     32588     32589
     32588     32590     32588     32591     32591     32592     32591     32593
     32591     32594     32594     32595     32594     32596     32594     32597
     32597     32598     32597     32599     32599     32600     32599     32601
     32601     32602     32601     32603     32601     32604     32604     32605
     32604     32606     32604     32607     32607     32608     32607     32609
     32607     32610     32610     32611     32610     32612     32610     32613
     32613     32614     32613     32615     32613     32616     32616     32617
     32616     32618     32616     32619     32619     32620     32619     32621
     32619     32622     32622     32623     32622     32624     32622     32625
     32573     32574     32574     32576     32574     32575     32576     32577
     32576     32578     32576     32626     32626     32627     32626     32628
     32626     32629     32629     32630     32629     32631     32629     32632
     32632     32633     32632     32634     32632     32635     32635     32636
     32635     32637     32635     32638     32638     32639     32638     32640
     32638     32641     32641     32642     32641     32643     32641     32644
     32644     32645     32644     32646     32644     32647     32647     32648
     32647     32649     32647     32650     32650     32651     32650     32652
     32650     32653     32653     32654     32653     32655     32653     32656
     32656     32657     32656     32658     32656     32659     32659     32660
     32659     32661     32659     32662     32662     32663     32662     32664
     32662     32665     32665     32666     32665     32667     32665     32668
     32669     32673     32669     32677     32669     32681     32673     32674
     32673     32675     32673     32676     32677     32678     32677     32679
     32677     32680     32681     32682     32681     32683     32681     32684
     32669     32670     32670     32671     32670     32672     32670     32685
     32685     32686     32685     32687     32685     32691     32692     32693
     32691     32688     32688     32692     32688     32689     32688     32690
     32693     32694     32693     32695     32693     32696     32696     32697
     32696     32704     32696     32698     32704     32705     32704     32706
     32704     32707     32698     32699     32699     32701     32699     32700
     32701     32702     32701     32703     32701     32713     32713     32714
     32713     32715     32713     32716     32716     32717     32716     32718
     32716     32719     32719     32720     32719     32721     32719     32722
     32722     32723     32722     32724     32722     32725     32725     32726
     32725     32727     32725     32728     32728     32729     32728     32730
     32728     32731     32731     32732     32731     32733     32733     32734
     32733     32735     32735     32736     32735     32737     32735     32738
     32738     32739     32738     32740     32738     32741     32741     32742
     32741     32743     32741     32744     32744     32745     32744     32746
     32744     32747     32747     32748     32747     32749     32747     32750
     32750     32751     32750     32752     32750     32753     32753     32754
     32753     32755     32753     32756     32756     32757     32756     32758
     32756     32759     32707     32708     32708     32710     32708     32709
     32710     32711     32710     32712     32710     32760     32760     32761
     32760     32762     32760     32763     32763     32764     32763     32765
     32763     32766     32766     32767     32766     32768     32766     32769
     32769     32770     32769     32771     32769     32772     32772     32773
     32772     32774     32772     32775     32775     32776     32775     32777
     32775     32778     32778     32779     32778     32780     32778     32781
     32781     32782     32781     32783     32781     32784     32784     32785
     32784     32786     32784     32787     32787     32788     32787     32789
     32787     32790     32790     32791     32790     32792     32790     32793
     32793     32794     32793     32795     32793     32796     32796     32797
     32796     32798     32796     32799     32799     32800     32799     32801
     32799     32802     32803     32807     32803     32811     32803     32815
     32807     32808     32807     32809     32807     32810     32811     32812
     32811     32813     32811     32814     32815     32816     32815     32817
     32815     32818     32803     32804     32804     32805     32804     32806
     32804     32819     32819     32820     32819     32821     32819     32825
     32826     32827     32825     32822     32822     32826     32822     32823
     32822     32824     32827     32828     32827     32829     32827     32830
     32830     32831     32830     32838     32830     32832     32838     32839
     32838     32840     32838     32841     32832     32833     32833     32835
     32833     32834     32835     32836     32835     32837     32835     32847
     32847     32848     32847     32849     32847     32850     32850     32851
     32850     32852     32850     32853     32853     32854     32853     32855
     32853     32856     32856     32857     32856     32858     32856     32859
     32859     32860     32859     32861     32859     32862     32862     32863
     32862     32864     32862     32865     32865     32866     32865     32867
     32867     32868     32867     32869     32869     32870     32869     32871
     32869     32872     32872     32873     32872     32874     32872     32875
     32875     32876     32875     32877     32875     32878     32878     32879
     32878     32880     32878     32881     32881     32882     32881     32883
     32881     32884     32884     32885     32884     32886     32884     32887
     32887     32888     32887     32889     32887     32890     32890     32891
     32890     32892     32890     32893     32841     32842     32842     32844
     32842     32843     32844     32845     32844     32846     32844     32894
     32894     32895     32894     32896     32894     32897     32897     32898
     32897     32899     32897     32900     32900     32901     32900     32902
     32900     32903     32903     32904     32903     32905     32903     32906
     32906     32907     32906     32908     32906     32909     32909     32910
     32909     32911     32909     32912     32912     32913     32912     32914
     32912     32915     32915     32916     32915     32917     32915     32918
     32918     32919     32918     32920     32918     32921     32921     32922
     32921     32923     32921     32924     32924     32925     32924     32926
     32924     32927     32927     32928     32927     32929     32927     32930
     32930     32931     32930     32932     32930     32933     32933     32934
     32933     32935     32933     32936     32937     32941     32937     32945
     32937     32949     32941     32942     32941     32943     32941     32944
     32945     32946     32945     32947     32945     32948     32949     32950
     32949     32951     32949     32952     32937     32938     32938     32939
     32938     32940     32938     32953     32953     32954     32953     32955
     32953     32959     32960     32961     32959     32956     32956     32960
     32956     32957     32956     32958     32961     32962     32961     32963
     32961     32964     32964     32965     32964     32972     32964     32966
     32972     32973     32972     32974     32972     32975     32966     32967
     32967     32969     32967     32968     32969     32970     32969     32971
     32969     32981     32981     32982     32981     32983     32981     32984
     32984     32985     32984     32986     32984     32987     32987     32988
     32987     32989     32987     32990     32990     32991     32990     32992
     32990     32993     32993     32994     32993     32995     32993     32996
     32996     32997     32996     32998     32996     32999     32999     33000
     32999     33001     33001     33002     33001     33003     33003     33004
     33003     33005     33003     33006     33006     33007     33006     33008
     33006     33009     33009     33010     33009     33011     33009     33012
     33012     33013     33012     33014     33012     33015     33015     33016
     33015     33017     33015     33018     33018     33019     33018     33020
     33018     33021     33021     33022     33021     33023     33021     33024
     33024     33025     33024     33026     33024     33027     32975     32976
     32976     32978     32976     32977     32978     32979     32978     32980
     32978     33028     33028     33029     33028     33030     33028     33031
     33031     33032     33031     33033     33031     33034     33034     33035
     33034     33036     33034     33037     33037     33038     33037     33039
     33037     33040     33040     33041     33040     33042     33040     33043
     33043     33044     33043     33045     33043     33046     33046     33047
     33046     33048     33046     33049     33049     33050     33049     33051
     33049     33052     33052     33053     33052     33054     33052     33055
     33055     33056     33055     33057     33055     33058     33058     33059
     33058     33060     33058     33061     33061     33062     33061     33063
     33061     33064     33064     33065     33064     33066     33064     33067
     33067     33068     33067     33069     33067     33070     33071     33075
     33071     33079     33071     33083     33075     33076     33075     33077
     33075     33078     33079     33080     33079     33081     33079     33082
     33083     33084     33083     33085     33083     33086     33071     33072
     33072     33073     33072     33074     33072     33087     33087     33088
     33087     33089     33087     33093     33094     33095     33093     33090
     33090     33094     33090     33091     33090     33092     33095     33096
     33095     33097     33095     33098     33098     33099     33098     33106
     33098     33100     33106     33107     33106     33108     33106     33109
     33100     33101     33101     33103     33101     33102     33103     33104
     33103     33105     33103     33115     33115     33116     33115     33117
     33115     33118     33118     33119     33118     33120     33118     33121
     33121     33122     33121     33123     33121     33124     33124     33125
     33124     33126     33124     33127     33127     33128     33127     33129
     33127     33130     33130     33131     33130     33132     33130     33133
     33133     33134     33133     33135     33135     33136     33135     33137
     33137     33138     33137     33139     33137     33140     33140     33141
     33140     33142     33140     33143     33143     33144     33143     33145
     33143     33146     33146     33147     33146     33148     33146     33149
     33149     33150     33149     33151     33149     33152     33152     33153
     33152     33154     33152     33155     33155     33156     33155     33157
     33155     33158     33158     33159     33158     33160     33158     33161
     33109     33110     33110     33112     33110     33111     33112     33113
     33112     33114     33112     33162     33162     33163     33162     33164
     33162     33165     33165     33166     33165     33167     33165     33168
     33168     33169     33168     33170     33168     33171     33171     33172
     33171     33173     33171     33174     33174     33175     33174     33176
     33174     33177     33177     33178     33177     33179     33177     33180
     33180     33181     33180     33182     33180     33183     33183     33184
     33183     33185     33183     33186     33186     33187     33186     33188
     33186     33189     33189     33190     33189     33191     33189     33192
     33192     33193     33192     33194     33192     33195     33195     33196
     33195     33197     33195     33198     33198     33199     33198     33200
     33198     33201     33201     33202     33201     33203     33201     33204
     33205     33209     33205     33213     33205     33217     33209     33210
     33209     33211     33209     33212     33213     33214     33213     33215
     33213     33216     33217     33218     33217     33219     33217     33220
     33205     33206     33206     33207     33206     33208     33206     33221
     33221     33222     33221     33223     33221     33227     33228     33229
     33227     33224     33224     33228     33224     33225     33224     33226
     33229     33230     33229     33231     33229     33232     33232     33233
     33232     33240     33232     33234     33240     33241     33240     33242
     33240     33243     33234     33235     33235     33237     33235     33236
     33237     33238     33237     33239     33237     33249     33249     33250
     33249     33251     33249     33252     33252     33253     33252     33254
     33252     33255     33255     33256     33255     33257     33255     33258
     33258     33259     33258     33260     33258     33261     33261     33262
     33261     33263     33261     33264     33264     33265     33264     33266
     33264     33267     33267     33268     33267     33269     33269     33270
     33269     33271     33271     33272     33271     33273     33271     33274
     33274     33275     33274     33276     33274     33277     33277     33278
     33277     33279     33277     33280     33280     33281     33280     33282
     33280     33283     33283     33284     33283     33285     33283     33286
     33286     33287     33286     33288     33286     33289     33289     33290
     33289     33291     33289     33292     33292     33293     33292     33294
     33292     33295     33243     33244     33244     33246     33244     33245
     33246     33247     33246     33248     33246     33296     33296     33297
     33296     33298     33296     33299     33299     33300     33299     33301
     33299     33302     33302     33303     33302     33304     33302     33305
     33305     33306     33305     33307     33305     33308     33308     33309
     33308     33310     33308     33311     33311     33312     33311     33313
     33311     33314     33314     33315     33314     33316     33314     33317
     33317     33318     33317     33319     33317     33320     33320     33321
     33320     33322     33320     33323     33323     33324     33323     33325
     33323     33326     33326     33327     33326     33328     33326     33329
     33329     33330     33329     33331     33329     33332     33332     33333
     33332     33334     33332     33335     33335     33336     33335     33337
     33335     33338     33339     33343     33339     33347     33339     33351
     33343     33344     33343     33345     33343     33346     33347     33348
     33347     33349     33347     33350     33351     33352     33351     33353
     33351     33354     33339     33340     33340     33341     33340     33342
     33340     33355     33355     33356     33355     33357     33355     33361
     33362     33363     33361     33358     33358     33362     33358     33359
     33358     33360     33363     33364     33363     33365     33363     33366
     33366     33367     33366     33374     33366     33368     33374     33375
     33374     33376     33374     33377     33368     33369     33369     33371
     33369     33370     33371     33372     33371     33373     33371     33383
     33383     33384     33383     33385     33383     33386     33386     33387
     33386     33388     33386     33389     33389     33390     33389     33391
     33389     33392     33392     33393     33392     33394     33392     33395
     33395     33396     33395     33397     33395     33398     33398     33399
     33398     33400     33398     33401     33401     33402     33401     33403
     33403     33404     33403     33405     33405     33406     33405     33407
     33405     33408     33408     33409     33408     33410     33408     33411
     33411     33412     33411     33413     33411     33414     33414     33415
     33414     33416     33414     33417     33417     33418     33417     33419
     33417     33420     33420     33421     33420     33422     33420     33423
     33423     33424     33423     33425     33423     33426     33426     33427
     33426     33428     33426     33429     33377     33378     33378     33380
     33378     33379     33380     33381     33380     33382     33380     33430
     33430     33431     33430     33432     33430     33433     33433     33434
     33433     33435     33433     33436     33436     33437     33436     33438
     33436     33439     33439     33440     33439     33441     33439     33442
     33442     33443     33442     33444     33442     33445     33445     33446
     33445     33447     33445     33448     33448     33449     33448     33450
     33448     33451     33451     33452     33451     33453     33451     33454
     33454     33455     33454     33456     33454     33457     33457     33458
     33457     33459     33457     33460     33460     33461     33460     33462
     33460     33463     33463     33464     33463     33465     33463     33466
     33466     33467     33466     33468     33466     33469     33469     33470
     33469     33471     33469     33472     33473     33477     33473     33481
     33473     33485     33477     33478     33477     33479     33477     33480
     33481     33482     33481     33483     33481     33484     33485     33486
     33485     33487     33485     33488     33473     33474     33474     33475
     33474     33476     33474     33489     33489     33490     33489     33491
     33489     33495     33496     33497     33495     33492     33492     33496
     33492     33493     33492     33494     33497     33498     33497     33499
     33497     33500     33500     33501     33500     33508     33500     33502
     33508     33509     33508     33510     33508     33511     33502     33503
     33503     33505     33503     33504     33505     33506     33505     33507
     33505     33517     33517     33518     33517     33519     33517     33520
     33520     33521     33520     33522     33520     33523     33523     33524
     33523     33525     33523     33526     33526     33527     33526     33528
     33526     33529     33529     33530     33529     33531     33529     33532
     33532     33533     33532     33534     33532     33535     33535     33536
     33535     33537     33537     33538     33537     33539     33539     33540
     33539     33541     33539     33542     33542     33543     33542     33544
     33542     33545     33545     33546     33545     33547     33545     33548
     33548     33549     33548     33550     33548     33551     33551     33552
     33551     33553     33551     33554     33554     33555     33554     33556
     33554     33557     33557     33558     33557     33559     33557     33560
     33560     33561     33560     33562     33560     33563     33511     33512
     33512     33514     33512     33513     33514     33515     33514     33516
     33514     33564     33564     33565     33564     33566     33564     33567
     33567     33568     33567     33569     33567     33570     33570     33571
     33570     33572     33570     33573     33573     33574     33573     33575
     33573     33576     33576     33577     33576     33578     33576     33579
     33579     33580     33579     33581     33579     33582     33582     33583
     33582     33584     33582     33585     33585     33586     33585     33587
     33585     33588     33588     33589     33588     33590     33588     33591
     33591     33592     33591     33593     33591     33594     33594     33595
     33594     33596     33594     33597     33597     33598     33597     33599
     33597     33600     33600     33601     33600     33602     33600     33603
     33603     33604     33603     33605     33603     33606     33607     33611
     33607     33615     33607     33619     33611     33612     33611     33613
     33611     33614     33615     33616     33615     33617     33615     33618
     33619     33620     33619     33621     33619     33622     33607     33608
     33608     33609     33608     33610     33608     33623     33623     33624
     33623     33625     33623     33629     33630     33631     33629     33626
     33626     33630     33626     33627     33626     33628     33631     33632
     33631     33633     33631     33634     33634     33635     33634     33642
     33634     33636     33642     33643     33642     33644     33642     33645
     33636     33637     33637     33639     33637     33638     33639     33640
     33639     33641     33639     33651     33651     33652     33651     33653
     33651     33654     33654     33655     33654     33656     33654     33657
     33657     33658     33657     33659     33657     33660     33660     33661
     33660     33662     33660     33663     33663     33664     33663     33665
     33663     33666     33666     33667     33666     33668     33666     33669
     33669     33670     33669     33671     33671     33672     33671     33673
     33673     33674     33673     33675     33673     33676     33676     33677
     33676     33678     33676     33679     33679     33680     33679     33681
     33679     33682     33682     33683     33682     33684     33682     33685
     33685     33686     33685     33687     33685     33688     33688     33689
     33688     33690     33688     33691     33691     33692     33691     33693
     33691     33694     33694     33695     33694     33696     33694     33697
     33645     33646     33646     33648     33646     33647     33648     33649
     33648     33650     33648     33698     33698     33699     33698     33700
     33698     33701     33701     33702     33701     33703     33701     33704
     33704     33705     33704     33706     33704     33707     33707     33708
     33707     33709     33707     33710     33710     33711     33710     33712
     33710     33713     33713     33714     33713     33715     33713     33716
     33716     33717     33716     33718     33716     33719     33719     33720
     33719     33721     33719     33722     33722     33723     33722     33724
     33722     33725     33725     33726     33725     33727     33725     33728
     33728     33729     33728     33730     33728     33731     33731     33732
     33731     33733     33731     33734     33734     33735     33734     33736
     33734     33737     33737     33738     33737     33739     33737     33740
     33741     33745     33741     33749     33741     33753     33745     33746
     33745     33747     33745     33748     33749     33750     33749     33751
     33749     33752     33753     33754     33753     33755     33753     33756
     33741     33742     33742     33743     33742     33744     33742     33757
     33757     33758     33757     33759     33757     33763     33764     33765
     33763     33760     33760     33764     33760     33761     33760     33762
     33765     33766     33765     33767     33765     33768     33768     33769
     33768     33776     33768     33770     33776     33777     33776     33778
     33776     33779     33770     33771     33771     33773     33771     33772
     33773     33774     33773     33775     33773     33785     33785     33786
     33785     33787     33785     33788     33788     33789     33788     33790
     33788     33791     33791     33792     33791     33793     33791     33794
     33794     33795     33794     33796     33794     33797     33797     33798
     33797     33799     33797     33800     33800     33801     33800     33802
     33800     33803     33803     33804     33803     33805     33805     33806
     33805     33807     33807     33808     33807     33809     33807     33810
     33810     33811     33810     33812     33810     33813     33813     33814
     33813     33815     33813     33816     33816     33817     33816     33818
     33816     33819     33819     33820     33819     33821     33819     33822
     33822     33823     33822     33824     33822     33825     33825     33826
     33825     33827     33825     33828     33828     33829     33828     33830
     33828     33831     33779     33780     33780     33782     33780     33781
     33782     33783     33782     33784     33782     33832     33832     33833
     33832     33834     33832     33835     33835     33836     33835     33837
     33835     33838     33838     33839     33838     33840     33838     33841
     33841     33842     33841     33843     33841     33844     33844     33845
     33844     33846     33844     33847     33847     33848     33847     33849
     33847     33850     33850     33851     33850     33852     33850     33853
     33853     33854     33853     33855     33853     33856     33856     33857
     33856     33858     33856     33859     33859     33860     33859     33861
     33859     33862     33862     33863     33862     33864     33862     33865
     33865     33866     33865     33867     33865     33868     33868     33869
     33868     33870     33868     33871     33871     33872     33871     33873
     33871     33874     33875     33879     33875     33883     33875     33887
     33879     33880     33879     33881     33879     33882     33883     33884
     33883     33885     33883     33886     33887     33888     33887     33889
     33887     33890     33875     33876     33876     33877     33876     33878
     33876     33891     33891     33892     33891     33893     33891     33897
     33898     33899     33897     33894     33894     33898     33894     33895
     33894     33896     33899     33900     33899     33901     33899     33902
     33902     33903     33902     33910     33902     33904     33910     33911
     33910     33912     33910     33913     33904     33905     33905     33907
     33905     33906     33907     33908     33907     33909     33907     33919
     33919     33920     33919     33921     33919     33922     33922     33923
     33922     33924     33922     33925     33925     33926     33925     33927
     33925     33928     33928     33929     33928     33930     33928     33931
     33931     33932     33931     33933     33931     33934     33934     33935
     33934     33936     33934     33937     33937     33938     33937     33939
     33939     33940     33939     33941     33941     33942     33941     33943
     33941     33944     33944     33945     33944     33946     33944     33947
     33947     33948     33947     33949     33947     33950     33950     33951
     33950     33952     33950     33953     33953     33954     33953     33955
     33953     33956     33956     33957     33956     33958     33956     33959
     33959     33960     33959     33961     33959     33962     33962     33963
     33962     33964     33962     33965     33913     33914     33914     33916
     33914     33915     33916     33917     33916     33918     33916     33966
     33966     33967     33966     33968     33966     33969     33969     33970
     33969     33971     33969     33972     33972     33973     33972     33974
     33972     33975     33975     33976     33975     33977     33975     33978
     33978     33979     33978     33980     33978     33981     33981     33982
     33981     33983     33981     33984     33984     33985     33984     33986
     33984     33987     33987     33988     33987     33989     33987     33990
     33990     33991     33990     33992     33990     33993     33993     33994
     33993     33995     33993     33996     33996     33997     33996     33998
     33996     33999     33999     34000     33999     34001     33999     34002
     34002     34003     34002     34004     34002     34005     34005     34006
     34005     34007     34005     34008     34009     34013     34009     34017
     34009     34021     34013     34014     34013     34015     34013     34016
     34017     34018     34017     34019     34017     34020     34021     34022
     34021     34023     34021     34024     34009     34010     34010     34011
     34010     34012     34010     34025     34025     34026     34025     34027
     34025     34031     34032     34033     34031     34028     34028     34032
     34028     34029     34028     34030     34033     34034     34033     34035
     34033     34036     34036     34037     34036     34044     34036     34038
     34044     34045     34044     34046     34044     34047     34038     34039
     34039     34041     34039     34040     34041     34042     34041     34043
     34041     34053     34053     34054     34053     34055     34053     34056
     34056     34057     34056     34058     34056     34059     34059     34060
     34059     34061     34059     34062     34062     34063     34062     34064
     34062     34065     34065     34066     34065     34067     34065     34068
     34068     34069     34068     34070     34068     34071     34071     34072
     34071     34073     34073     34074     34073     34075     34075     34076
     34075     34077     34075     34078     34078     34079     34078     34080
     34078     34081     34081     34082     34081     34083     34081     34084
     34084     34085     34084     34086     34084     34087     34087     34088
     34087     34089     34087     34090     34090     34091     34090     34092
     34090     34093     34093     34094     34093     34095     34093     34096
     34096     34097     34096     34098     34096     34099     34047     34048
     34048     34050     34048     34049     34050     34051     34050     34052
     34050     34100     34100     34101     34100     34102     34100     34103
     34103     34104     34103     34105     34103     34106     34106     34107
     34106     34108     34106     34109     34109     34110     34109     34111
     34109     34112     34112     34113     34112     34114     34112     34115
     34115     34116     34115     34117     34115     34118     34118     34119
     34118     34120     34118     34121     34121     34122     34121     34123
     34121     34124     34124     34125     34124     34126     34124     34127
     34127     34128     34127     34129     34127     34130     34130     34131
     34130     34132     34130     34133     34133     34134     34133     34135
     34133     34136     34136     34137     34136     34138     34136     34139
     34139     34140     34139     34141     34139     34142     34143     34147
     34143     34151     34143     34155     34147     34148     34147     34149
     34147     34150     34151     34152     34151     34153     34151     34154
     34155     34156     34155     34157     34155     34158     34143     34144
     34144     34145     34144     34146     34144     34159     34159     34160
     34159     34161     34159     34165     34166     34167     34165     34162
     34162     34166     34162     34163     34162     34164     34167     34168
     34167     34169     34167     34170     34170     34171     34170     34178
     34170     34172     34178     34179     34178     34180     34178     34181
     34172     34173     34173     34175     34173     34174     34175     34176
     34175     34177     34175     34187     34187     34188     34187     34189
     34187     34190     34190     34191     34190     34192     34190     34193
     34193     34194     34193     34195     34193     34196     34196     34197
     34196     34198     34196     34199     34199     34200     34199     34201
     34199     34202     34202     34203     34202     34204     34202     34205
     34205     34206     34205     34207     34207     34208     34207     34209
     34209     34210     34209     34211     34209     34212     34212     34213
     34212     34214     34212     34215     34215     34216     34215     34217
     34215     34218     34218     34219     34218     34220     34218     34221
     34221     34222     34221     34223     34221     34224     34224     34225
     34224     34226     34224     34227     34227     34228     34227     34229
     34227     34230     34230     34231     34230     34232     34230     34233
     34181     34182     34182     34184     34182     34183     34184     34185
     34184     34186     34184     34234     34234     34235     34234     34236
     34234     34237     34237     34238     34237     34239     34237     34240
     34240     34241     34240     34242     34240     34243     34243     34244
     34243     34245     34243     34246     34246     34247     34246     34248
     34246     34249     34249     34250     34249     34251     34249     34252
     34252     34253     34252     34254     34252     34255     34255     34256
     34255     34257     34255     34258     34258     34259     34258     34260
     34258     34261     34261     34262     34261     34263     34261     34264
     34264     34265     34264     34266     34264     34267     34267     34268
     34267     34269     34267     34270     34270     34271     34270     34272
     34270     34273     34273     34274     34273     34275     34273     34276
     34277     34281     34277     34285     34277     34289     34281     34282
     34281     34283     34281     34284     34285     34286     34285     34287
     34285     34288     34289     34290     34289     34291     34289     34292
     34277     34278     34278     34279     34278     34280     34278     34293
     34293     34294     34293     34295     34293     34299     34300     34301
     34299     34296     34296     34300     34296     34297     34296     34298
     34301     34302     34301     34303     34301     34304     34304     34305
     34304     34312     34304     34306     34312     34313     34312     34314
     34312     34315     34306     34307     34307     34309     34307     34308
     34309     34310     34309     34311     34309     34321     34321     34322
     34321     34323     34321     34324     34324     34325     34324     34326
     34324     34327     34327     34328     34327     34329     34327     34330
     34330     34331     34330     34332     34330     34333     34333     34334
     34333     34335     34333     34336     34336     34337     34336     34338
     34336     34339     34339     34340     34339     34341     34341     34342
     34341     34343     34343     34344     34343     34345     34343     34346
     34346     34347     34346     34348     34346     34349     34349     34350
     34349     34351     34349     34352     34352     34353     34352     34354
     34352     34355     34355     34356     34355     34357     34355     34358
     34358     34359     34358     34360     34358     34361     34361     34362
     34361     34363     34361     34364     34364     34365     34364     34366
     34364     34367     34315     34316     34316     34318     34316     34317
     34318     34319     34318     34320     34318     34368     34368     34369
     34368     34370     34368     34371     34371     34372     34371     34373
     34371     34374     34374     34375     34374     34376     34374     34377
     34377     34378     34377     34379     34377     34380     34380     34381
     34380     34382     34380     34383     34383     34384     34383     34385
     34383     34386     34386     34387     34386     34388     34386     34389
     34389     34390     34389     34391     34389     34392     34392     34393
     34392     34394     34392     34395     34395     34396     34395     34397
     34395     34398     34398     34399     34398     34400     34398     34401
     34401     34402     34401     34403     34401     34404     34404     34405
     34404     34406     34404     34407     34407     34408     34407     34409
     34407     34410     34411     34415     34411     34419     34411     34423
     34415     34416     34415     34417     34415     34418     34419     34420
     34419     34421     34419     34422     34423     34424     34423     34425
     34423     34426     34411     34412     34412     34413     34412     34414
     34412     34427     34427     34428     34427     34429     34427     34433
     34434     34435     34433     34430     34430     34434     34430     34431
     34430     34432     34435     34436     34435     34437     34435     34438
     34438     34439     34438     34446     34438     34440     34446     34447
     34446     34448     34446     34449     34440     34441     34441     34443
     34441     34442     34443     34444     34443     34445     34443     34455
     34455     34456     34455     34457     34455     34458     34458     34459
     34458     34460     34458     34461     34461     34462     34461     34463
     34461     34464     34464     34465     34464     34466     34464     34467
     34467     34468     34467     34469     34467     34470     34470     34471
     34470     34472     34470     34473     34473     34474     34473     34475
     34475     34476     34475     34477     34477     34478     34477     34479
     34477     34480     34480     34481     34480     34482     34480     34483
     34483     34484     34483     34485     34483     34486     34486     34487
     34486     34488     34486     34489     34489     34490     34489     34491
     34489     34492     34492     34493     34492     34494     34492     34495
     34495     34496     34495     34497     34495     34498     34498     34499
     34498     34500     34498     34501     34449     34450     34450     34452
     34450     34451     34452     34453     34452     34454     34452     34502
     34502     34503     34502     34504     34502     34505     34505     34506
     34505     34507     34505     34508     34508     34509     34508     34510
     34508     34511     34511     34512     34511     34513     34511     34514
     34514     34515     34514     34516     34514     34517     34517     34518
     34517     34519     34517     34520     34520     34521     34520     34522
     34520     34523     34523     34524     34523     34525     34523     34526
     34526     34527     34526     34528     34526     34529     34529     34530
     34529     34531     34529     34532     34532     34533     34532     34534
     34532     34535     34535     34536     34535     34537     34535     34538
     34538     34539     34538     34540     34538     34541     34541     34542
     34541     34543     34541     34544     34545     34549     34545     34553
     34545     34557     34549     34550     34549     34551     34549     34552
     34553     34554     34553     34555     34553     34556     34557     34558
     34557     34559     34557     34560     34545     34546     34546     34547
     34546     34548     34546     34561     34561     34562     34561     34563
     34561     34567     34568     34569     34567     34564     34564     34568
     34564     34565     34564     34566     34569     34570     34569     34571
     34569     34572     34572     34573     34572     34580     34572     34574
     34580     34581     34580     34582     34580     34583     34574     34575
     34575     34577     34575     34576     34577     34578     34577     34579
     34577     34589     34589     34590     34589     34591     34589     34592
     34592     34593     34592     34594     34592     34595     34595     34596
     34595     34597     34595     34598     34598     34599     34598     34600
     34598     34601     34601     34602     34601     34603     34601     34604
     34604     34605     34604     34606     34604     34607     34607     34608
     34607     34609     34609     34610     34609     34611     34611     34612
     34611     34613     34611     34614     34614     34615     34614     34616
     34614     34617     34617     34618     34617     34619     34617     34620
     34620     34621     34620     34622     34620     34623     34623     34624
     34623     34625     34623     34626     34626     34627     34626     34628
     34626     34629     34629     34630     34629     34631     34629     34632
     34632     34633     34632     34634     34632     34635     34583     34584
     34584     34586     34584     34585     34586     34587     34586     34588
     34586     34636     34636     34637     34636     34638     34636     34639
     34639     34640     34639     34641     34639     34642     34642     34643
     34642     34644     34642     34645     34645     34646     34645     34647
     34645     34648     34648     34649     34648     34650     34648     34651
     34651     34652     34651     34653     34651     34654     34654     34655
     34654     34656     34654     34657     34657     34658     34657     34659
     34657     34660     34660     34661     34660     34662     34660     34663
     34663     34664     34663     34665     34663     34666     34666     34667
     34666     34668     34666     34669     34669     34670     34669     34671
     34669     34672     34672     34673     34672     34674     34672     34675
     34675     34676     34675     34677     34675     34678     34679     34683
     34679     34687     34679     34691     34683     34684     34683     34685
     34683     34686     34687     34688     34687     34689     34687     34690
     34691     34692     34691     34693     34691     34694     34679     34680
     34680     34681     34680     34682     34680     34695     34695     34696
     34695     34697     34695     34701     34702     34703     34701     34698
     34698     34702     34698     34699     34698     34700     34703     34704
     34703     34705     34703     34706     34706     34707     34706     34714
     34706     34708     34714     34715     34714     34716     34714     34717
     34708     34709     34709     34711     34709     34710     34711     34712
     34711     34713     34711     34723     34723     34724     34723     34725
     34723     34726     34726     34727     34726     34728     34726     34729
     34729     34730     34729     34731     34729     34732     34732     34733
     34732     34734     34732     34735     34735     34736     34735     34737
     34735     34738     34738     34739     34738     34740     34738     34741
     34741     34742     34741     34743     34743     34744     34743     34745
     34745     34746     34745     34747     34745     34748     34748     34749
     34748     34750     34748     34751     34751     34752     34751     34753
     34751     34754     34754     34755     34754     34756     34754     34757
     34757     34758     34757     34759     34757     34760     34760     34761
     34760     34762     34760     34763     34763     34764     34763     34765
     34763     34766     34766     34767     34766     34768     34766     34769
     34717     34718     34718     34720     34718     34719     34720     34721
     34720     34722     34720     34770     34770     34771     34770     34772
     34770     34773     34773     34774     34773     34775     34773     34776
     34776     34777     34776     34778     34776     34779     34779     34780
     34779     34781     34779     34782     34782     34783     34782     34784
     34782     34785     34785     34786     34785     34787     34785     34788
     34788     34789     34788     34790     34788     34791     34791     34792
     34791     34793     34791     34794     34794     34795     34794     34796
     34794     34797     34797     34798     34797     34799     34797     34800
     34800     34801     34800     34802     34800     34803     34803     34804
     34803     34805     34803     34806     34806     34807     34806     34808
     34806     34809     34809     34810     34809     34811     34809     34812
     34813     34817     34813     34821     34813     34825     34817     34818
     34817     34819     34817     34820     34821     34822     34821     34823
     34821     34824     34825     34826     34825     34827     34825     34828
     34813     34814     34814     34815     34814     34816     34814     34829
     34829     34830     34829     34831     34829     34835     34836     34837
     34835     34832     34832     34836     34832     34833     34832     34834
     34837     34838     34837     34839     34837     34840     34840     34841
     34840     34848     34840     34842     34848     34849     34848     34850
     34848     34851     34842     34843     34843     34845     34843     34844
     34845     34846     34845     34847     34845     34857     34857     34858
     34857     34859     34857     34860     34860     34861     34860     34862
     34860     34863     34863     34864     34863     34865     34863     34866
     34866     34867     34866     34868     34866     34869     34869     34870
     34869     34871     34869     34872     34872     34873     34872     34874
     34872     34875     34875     34876     34875     34877     34877     34878
     34877     34879     34879     34880     34879     34881     34879     34882
     34882     34883     34882     34884     34882     34885     34885     34886
     34885     34887     34885     34888     34888     34889     34888     34890
     34888     34891     34891     34892     34891     34893     34891     34894
     34894     34895     34894     34896     34894     34897     34897     34898
     34897     34899     34897     34900     34900     34901     34900     34902
     34900     34903     34851     34852     34852     34854     34852     34853
     34854     34855     34854     34856     34854     34904     34904     34905
     34904     34906     34904     34907     34907     34908     34907     34909
     34907     34910     34910     34911     34910     34912     34910     34913
     34913     34914     34913     34915     34913     34916     34916     34917
     34916     34918     34916     34919     34919     34920     34919     34921
     34919     34922     34922     34923     34922     34924     34922     34925
     34925     34926     34925     34927     34925     34928     34928     34929
     34928     34930     34928     34931     34931     34932     34931     34933
     34931     34934     34934     34935     34934     34936     34934     34937
     34937     34938     34937     34939     34937     34940     34940     34941
     34940     34942     34940     34943     34943     34944     34943     34945
     34943     34946     34947     34951     34947     34955     34947     34959
     34951     34952     34951     34953     34951     34954     34955     34956
     34955     34957     34955     34958     34959     34960     34959     34961
     34959     34962     34947     34948     34948     34949     34948     34950
     34948     34963     34963     34964     34963     34965     34963     34969
     34970     34971     34969     34966     34966     34970     34966     34967
     34966     34968     34971     34972     34971     34973     34971     34974
     34974     34975     34974     34982     34974     34976     34982     34983
     34982     34984     34982     34985     34976     34977     34977     34979
     34977     34978     34979     34980     34979     34981     34979     34991
     34991     34992     34991     34993     34991     34994     34994     34995
     34994     34996     34994     34997     34997     34998     34997     34999
     34997     35000     35000     35001     35000     35002     35000     35003
     35003     35004     35003     35005     35003     35006     35006     35007
     35006     35008     35006     35009     35009     35010     35009     35011
     35011     35012     35011     35013     35013     35014     35013     35015
     35013     35016     35016     35017     35016     35018     35016     35019
     35019     35020     35019     35021     35019     35022     35022     35023
     35022     35024     35022     35025     35025     35026     35025     35027
     35025     35028     35028     35029     35028     35030     35028     35031
     35031     35032     35031     35033     35031     35034     35034     35035
     35034     35036     35034     35037     34985     34986     34986     34988
     34986     34987     34988     34989     34988     34990     34988     35038
     35038     35039     35038     35040     35038     35041     35041     35042
     35041     35043     35041     35044     35044     35045     35044     35046
     35044     35047     35047     35048     35047     35049     35047     35050
     35050     35051     35050     35052     35050     35053     35053     35054
     35053     35055     35053     35056     35056     35057     35056     35058
     35056     35059     35059     35060     35059     35061     35059     35062
     35062     35063     35062     35064     35062     35065     35065     35066
     35065     35067     35065     35068     35068     35069     35068     35070
     35068     35071     35071     35072     35071     35073     35071     35074
     35074     35075     35074     35076     35074     35077     35077     35078
     35077     35079     35077     35080     35081     35085     35081     35089
     35081     35093     35085     35086     35085     35087     35085     35088
     35089     35090     35089     35091     35089     35092     35093     35094
     35093     35095     35093     35096     35081     35082     35082     35083
     35082     35084     35082     35097     35097     35098     35097     35099
     35097     35103     35104     35105     35103     35100     35100     35104
     35100     35101     35100     35102     35105     35106     35105     35107
     35105     35108     35108     35109     35108     35116     35108     35110
     35116     35117     35116     35118     35116     35119     35110     35111
     35111     35113     35111     35112     35113     35114     35113     35115
     35113     35125     35125     35126     35125     35127     35125     35128
     35128     35129     35128     35130     35128     35131     35131     35132
     35131     35133     35131     35134     35134     35135     35134     35136
     35134     35137     35137     35138     35137     35139     35137     35140
     35140     35141     35140     35142     35140     35143     35143     35144
     35143     35145     35145     35146     35145     35147     35147     35148
     35147     35149     35147     35150     35150     35151     35150     35152
     35150     35153     35153     35154     35153     35155     35153     35156
     35156     35157     35156     35158     35156     35159     35159     35160
     35159     35161     35159     35162     35162     35163     35162     35164
     35162     35165     35165     35166     35165     35167     35165     35168
     35168     35169     35168     35170     35168     35171     35119     35120
     35120     35122     35120     35121     35122     35123     35122     35124
     35122     35172     35172     35173     35172     35174     35172     35175
     35175     35176     35175     35177     35175     35178     35178     35179
     35178     35180     35178     35181     35181     35182     35181     35183
     35181     35184     35184     35185     35184     35186     35184     35187
     35187     35188     35187     35189     35187     35190     35190     35191
     35190     35192     35190     35193     35193     35194     35193     35195
     35193     35196     35196     35197     35196     35198     35196     35199
     35199     35200     35199     35201     35199     35202     35202     35203
     35202     35204     35202     35205     35205     35206     35205     35207
     35205     35208     35208     35209     35208     35210     35208     35211
     35211     35212     35211     35213     35211     35214     35215     35219
     35215     35223     35215     35227     35219     35220     35219     35221
     35219     35222     35223     35224     35223     35225     35223     35226
     35227     35228     35227     35229     35227     35230     35215     35216
     35216     35217     35216     35218     35216     35231     35231     35232
     35231     35233     35231     35237     35238     35239     35237     35234
     35234     35238     35234     35235     35234     35236     35239     35240
     35239     35241     35239     35242     35242     35243     35242     35250
     35242     35244     35250     35251     35250     35252     35250     35253
     35244     35245     35245     35247     35245     35246     35247     35248
     35247     35249     35247     35259     35259     35260     35259     35261
     35259     35262     35262     35263     35262     35264     35262     35265
     35265     35266     35265     35267     35265     35268     35268     35269
     35268     35270     35268     35271     35271     35272     35271     35273
     35271     35274     35274     35275     35274     35276     35274     35277
     35277     35278     35277     35279     35279     35280     35279     35281
     35281     35282     35281     35283     35281     35284     35284     35285
     35284     35286     35284     35287     35287     35288     35287     35289
     35287     35290     35290     35291     35290     35292     35290     35293
     35293     35294     35293     35295     35293     35296     35296     35297
     35296     35298     35296     35299     35299     35300     35299     35301
     35299     35302     35302     35303     35302     35304     35302     35305
     35253     35254     35254     35256     35254     35255     35256     35257
     35256     35258     35256     35306     35306     35307     35306     35308
     35306     35309     35309     35310     35309     35311     35309     35312
     35312     35313     35312     35314     35312     35315     35315     35316
     35315     35317     35315     35318     35318     35319     35318     35320
     35318     35321     35321     35322     35321     35323     35321     35324
     35324     35325     35324     35326     35324     35327     35327     35328
     35327     35329     35327     35330     35330     35331     35330     35332
     35330     35333     35333     35334     35333     35335     35333     35336
     35336     35337     35336     35338     35336     35339     35339     35340
     35339     35341     35339     35342     35342     35343     35342     35344
     35342     35345     35345     35346     35345     35347     35345     35348
     35349     35353     35349     35357     35349     35361     35353     35354
     35353     35355     35353     35356     35357     35358     35357     35359
     35357     35360     35361     35362     35361     35363     35361     35364
     35349     35350     35350     35351     35350     35352     35350     35365
     35365     35366     35365     35367     35365     35371     35372     35373
     35371     35368     35368     35372     35368     35369     35368     35370
     35373     35374     35373     35375     35373     35376     35376     35377
     35376     35384     35376     35378     35384     35385     35384     35386
     35384     35387     35378     35379     35379     35381     35379     35380
     35381     35382     35381     35383     35381     35393     35393     35394
     35393     35395     35393     35396     35396     35397     35396     35398
     35396     35399     35399     35400     35399     35401     35399     35402
     35402     35403     35402     35404     35402     35405     35405     35406
     35405     35407     35405     35408     35408     35409     35408     35410
     35408     35411     35411     35412     35411     35413     35413     35414
     35413     35415     35415     35416     35415     35417     35415     35418
     35418     35419     35418     35420     35418     35421     35421     35422
     35421     35423     35421     35424     35424     35425     35424     35426
     35424     35427     35427     35428     35427     35429     35427     35430
     35430     35431     35430     35432     35430     35433     35433     35434
     35433     35435     35433     35436     35436     35437     35436     35438
     35436     35439     35387     35388     35388     35390     35388     35389
     35390     35391     35390     35392     35390     35440     35440     35441
     35440     35442     35440     35443     35443     35444     35443     35445
     35443     35446     35446     35447     35446     35448     35446     35449
     35449     35450     35449     35451     35449     35452     35452     35453
     35452     35454     35452     35455     35455     35456     35455     35457
     35455     35458     35458     35459     35458     35460     35458     35461
     35461     35462     35461     35463     35461     35464     35464     35465
     35464     35466     35464     35467     35467     35468     35467     35469
     35467     35470     35470     35471     35470     35472     35470     35473
     35473     35474     35473     35475     35473     35476     35476     35477
     35476     35478     35476     35479     35479     35480     35479     35481
     35479     35482     35483     35487     35483     35491     35483     35495
     35487     35488     35487     35489     35487     35490     35491     35492
     35491     35493     35491     35494     35495     35496     35495     35497
     35495     35498     35483     35484     35484     35485     35484     35486
     35484     35499     35499     35500     35499     35501     35499     35505
     35506     35507     35505     35502     35502     35506     35502     35503
     35502     35504     35507     35508     35507     35509     35507     35510
     35510     35511     35510     35518     35510     35512     35518     35519
     35518     35520     35518     35521     35512     35513     35513     35515
     35513     35514     35515     35516     35515     35517     35515     35527
     35527     35528     35527     35529     35527     35530     35530     35531
     35530     35532     35530     35533     35533     35534     35533     35535
     35533     35536     35536     35537     35536     35538     35536     35539
     35539     35540     35539     35541     35539     35542     35542     35543
     35542     35544     35542     35545     35545     35546     35545     35547
     35547     35548     35547     35549     35549     35550     35549     35551
     35549     35552     35552     35553     35552     35554     35552     35555
     35555     35556     35555     35557     35555     35558     35558     35559
     35558     35560     35558     35561     35561     35562     35561     35563
     35561     35564     35564     35565     35564     35566     35564     35567
     35567     35568     35567     35569     35567     35570     35570     35571
     35570     35572     35570     35573     35521     35522     35522     35524
     35522     35523     35524     35525     35524     35526     35524     35574
     35574     35575     35574     35576     35574     35577     35577     35578
     35577     35579     35577     35580     35580     35581     35580     35582
     35580     35583     35583     35584     35583     35585     35583     35586
     35586     35587     35586     35588     35586     35589     35589     35590
     35589     35591     35589     35592     35592     35593     35592     35594
     35592     35595     35595     35596     35595     35597     35595     35598
     35598     35599     35598     35600     35598     35601     35601     35602
     35601     35603     35601     35604     35604     35605     35604     35606
     35604     35607     35607     35608     35607     35609     35607     35610
     35610     35611     35610     35612     35610     35613     35613     35614
     35613     35615     35613     35616     35617     35621     35617     35625
     35617     35629     35621     35622     35621     35623     35621     35624
     35625     35626     35625     35627     35625     35628     35629     35630
     35629     35631     35629     35632     35617     35618     35618     35619
     35618     35620     35618     35633     35633     35634     35633     35635
     35633     35639     35640     35641     35639     35636     35636     35640
     35636     35637     35636     35638     35641     35642     35641     35643
     35641     35644     35644     35645     35644     35652     35644     35646
     35652     35653     35652     35654     35652     35655     35646     35647
     35647     35649     35647     35648     35649     35650     35649     35651
     35649     35661     35661     35662     35661     35663     35661     35664
     35664     35665     35664     35666     35664     35667     35667     35668
     35667     35669     35667     35670     35670     35671     35670     35672
     35670     35673     35673     35674     35673     35675     35673     35676
     35676     35677     35676     35678     35676     35679     35679     35680
     35679     35681     35681     35682     35681     35683     35683     35684
     35683     35685     35683     35686     35686     35687     35686     35688
     35686     35689     35689     35690     35689     35691     35689     35692
     35692     35693     35692     35694     35692     35695     35695     35696
     35695     35697     35695     35698     35698     35699     35698     35700
     35698     35701     35701     35702     35701     35703     35701     35704
     35704     35705     35704     35706     35704     35707     35655     35656
     35656     35658     35656     35657     35658     35659     35658     35660
     35658     35708     35708     35709     35708     35710     35708     35711
     35711     35712     35711     35713     35711     35714     35714     35715
     35714     35716     35714     35717     35717     35718     35717     35719
     35717     35720     35720     35721     35720     35722     35720     35723
     35723     35724     35723     35725     35723     35726     35726     35727
     35726     35728     35726     35729     35729     35730     35729     35731
     35729     35732     35732     35733     35732     35734     35732     35735
     35735     35736     35735     35737     35735     35738     35738     35739
     35738     35740     35738     35741     35741     35742     35741     35743
     35741     35744     35744     35745     35744     35746     35744     35747
     35747     35748     35747     35749     35747     35750     35751     35755
     35751     35759     35751     35763     35755     35756     35755     35757
     35755     35758     35759     35760     35759     35761     35759     35762
     35763     35764     35763     35765     35763     35766     35751     35752
     35752     35753     35752     35754     35752     35767     35767     35768
     35767     35769     35767     35773     35774     35775     35773     35770
     35770     35774     35770     35771     35770     35772     35775     35776
     35775     35777     35775     35778     35778     35779     35778     35786
     35778     35780     35786     35787     35786     35788     35786     35789
     35780     35781     35781     35783     35781     35782     35783     35784
     35783     35785     35783     35795     35795     35796     35795     35797
     35795     35798     35798     35799     35798     35800     35798     35801
     35801     35802     35801     35803     35801     35804     35804     35805
     35804     35806     35804     35807     35807     35808     35807     35809
     35807     35810     35810     35811     35810     35812     35810     35813
     35813     35814     35813     35815     35815     35816     35815     35817
     35817     35818     35817     35819     35817     35820     35820     35821
     35820     35822     35820     35823     35823     35824     35823     35825
     35823     35826     35826     35827     35826     35828     35826     35829
     35829     35830     35829     35831     35829     35832     35832     35833
     35832     35834     35832     35835     35835     35836     35835     35837
     35835     35838     35838     35839     35838     35840     35838     35841
     35789     35790     35790     35792     35790     35791     35792     35793
     35792     35794     35792     35842     35842     35843     35842     35844
     35842     35845     35845     35846     35845     35847     35845     35848
     35848     35849     35848     35850     35848     35851     35851     35852
     35851     35853     35851     35854     35854     35855     35854     35856
     35854     35857     35857     35858     35857     35859     35857     35860
     35860     35861     35860     35862     35860     35863     35863     35864
     35863     35865     35863     35866     35866     35867     35866     35868
     35866     35869     35869     35870     35869     35871     35869     35872
     35872     35873     35872     35874     35872     35875     35875     35876
     35875     35877     35875     35878     35878     35879     35878     35880
     35878     35881     35881     35882     35881     35883     35881     35884
     35885     35889     35885     35893     35885     35897     35889     35890
     35889     35891     35889     35892     35893     35894     35893     35895
     35893     35896     35897     35898     35897     35899     35897     35900
     35885     35886     35886     35887     35886     35888     35886     35901
     35901     35902     35901     35903     35901     35907     35908     35909
     35907     35904     35904     35908     35904     35905     35904     35906
     35909     35910     35909     35911     35909     35912     35912     35913
     35912     35920     35912     35914     35920     35921     35920     35922
     35920     35923     35914     35915     35915     35917     35915     35916
     35917     35918     35917     35919     35917     35929     35929     35930
     35929     35931     35929     35932     35932     35933     35932     35934
     35932     35935     35935     35936     35935     35937     35935     35938
     35938     35939     35938     35940     35938     35941     35941     35942
     35941     35943     35941     35944     35944     35945     35944     35946
     35944     35947     35947     35948     35947     35949     35949     35950
     35949     35951     35951     35952     35951     35953     35951     35954
     35954     35955     35954     35956     35954     35957     35957     35958
     35957     35959     35957     35960     35960     35961     35960     35962
     35960     35963     35963     35964     35963     35965     35963     35966
     35966     35967     35966     35968     35966     35969     35969     35970
     35969     35971     35969     35972     35972     35973     35972     35974
     35972     35975     35923     35924     35924     35926     35924     35925
     35926     35927     35926     35928     35926     35976     35976     35977
     35976     35978     35976     35979     35979     35980     35979     35981
     35979     35982     35982     35983     35982     35984     35982     35985
     35985     35986     35985     35987     35985     35988     35988     35989
     35988     35990     35988     35991     35991     35992     35991     35993
     35991     35994     35994     35995     35994     35996     35994     35997
     35997     35998     35997     35999     35997     36000     36000     36001
     36000     36002     36000     36003     36003     36004     36003     36005
     36003     36006     36006     36007     36006     36008     36006     36009
     36009     36010     36009     36011     36009     36012     36012     36013
     36012     36014     36012     36015     36015     36016     36015     36017
     36015     36018     36019     36023     36019     36027     36019     36031
     36023     36024     36023     36025     36023     36026     36027     36028
     36027     36029     36027     36030     36031     36032     36031     36033
     36031     36034     36019     36020     36020     36021     36020     36022
     36020     36035     36035     36036     36035     36037     36035     36041
     36042     36043     36041     36038     36038     36042     36038     36039
     36038     36040     36043     36044     36043     36045     36043     36046
     36046     36047     36046     36054     36046     36048     36054     36055
     36054     36056     36054     36057     36048     36049     36049     36051
     36049     36050     36051     36052     36051     36053     36051     36063
     36063     36064     36063     36065     36063     36066     36066     36067
     36066     36068     36066     36069     36069     36070     36069     36071
     36069     36072     36072     36073     36072     36074     36072     36075
     36075     36076     36075     36077     36075     36078     36078     36079
     36078     36080     36078     36081     36081     36082     36081     36083
     36083     36084     36083     36085     36085     36086     36085     36087
     36085     36088     36088     36089     36088     36090     36088     36091
     36091     36092     36091     36093     36091     36094     36094     36095
     36094     36096     36094     36097     36097     36098     36097     36099
     36097     36100     36100     36101     36100     36102     36100     36103
     36103     36104     36103     36105     36103     36106     36106     36107
     36106     36108     36106     36109     36057     36058     36058     36060
     36058     36059     36060     36061     36060     36062     36060     36110
     36110     36111     36110     36112     36110     36113     36113     36114
     36113     36115     36113     36116     36116     36117     36116     36118
     36116     36119     36119     36120     36119     36121     36119     36122
     36122     36123     36122     36124     36122     36125     36125     36126
     36125     36127     36125     36128     36128     36129     36128     36130
     36128     36131     36131     36132     36131     36133     36131     36134
     36134     36135     36134     36136     36134     36137     36137     36138
     36137     36139     36137     36140     36140     36141     36140     36142
     36140     36143     36143     36144     36143     36145     36143     36146
     36146     36147     36146     36148     36146     36149     36149     36150
     36149     36151     36149     36152     36153     36157     36153     36161
     36153     36165     36157     36158     36157     36159     36157     36160
     36161     36162     36161     36163     36161     36164     36165     36166
     36165     36167     36165     36168     36153     36154     36154     36155
     36154     36156     36154     36169     36169     36170     36169     36171
     36169     36175     36176     36177     36175     36172     36172     36176
     36172     36173     36172     36174     36177     36178     36177     36179
     36177     36180     36180     36181     36180     36188     36180     36182
     36188     36189     36188     36190     36188     36191     36182     36183
     36183     36185     36183     36184     36185     36186     36185     36187
     36185     36197     36197     36198     36197     36199     36197     36200
     36200     36201     36200     36202     36200     36203     36203     36204
     36203     36205     36203     36206     36206     36207     36206     36208
     36206     36209     36209     36210     36209     36211     36209     36212
     36212     36213     36212     36214     36212     36215     36215     36216
     36215     36217     36217     36218     36217     36219     36219     36220
     36219     36221     36219     36222     36222     36223     36222     36224
     36222     36225     36225     36226     36225     36227     36225     36228
     36228     36229     36228     36230     36228     36231     36231     36232
     36231     36233     36231     36234     36234     36235     36234     36236
     36234     36237     36237     36238     36237     36239     36237     36240
     36240     36241     36240     36242     36240     36243     36191     36192
     36192     36194     36192     36193     36194     36195     36194     36196
     36194     36244     36244     36245     36244     36246     36244     36247
     36247     36248     36247     36249     36247     36250     36250     36251
     36250     36252     36250     36253     36253     36254     36253     36255
     36253     36256     36256     36257     36256     36258     36256     36259
     36259     36260     36259     36261     36259     36262     36262     36263
     36262     36264     36262     36265     36265     36266     36265     36267
     36265     36268     36268     36269     36268     36270     36268     36271
     36271     36272     36271     36273     36271     36274     36274     36275
     36274     36276     36274     36277     36277     36278     36277     36279
     36277     36280     36280     36281     36280     36282     36280     36283
     36283     36284     36283     36285     36283     36286     36287     36291
     36287     36295     36287     36299     36291     36292     36291     36293
     36291     36294     36295     36296     36295     36297     36295     36298
     36299     36300     36299     36301     36299     36302     36287     36288
     36288     36289     36288     36290     36288     36303     36303     36304
     36303     36305     36303     36309     36310     36311     36309     36306
     36306     36310     36306     36307     36306     36308     36311     36312
     36311     36313     36311     36314     36314     36315     36314     36322
     36314     36316     36322     36323     36322     36324     36322     36325
     36316     36317     36317     36319     36317     36318     36319     36320
     36319     36321     36319     36331     36331     36332     36331     36333
     36331     36334     36334     36335     36334     36336     36334     36337
     36337     36338     36337     36339     36337     36340     36340     36341
     36340     36342     36340     36343     36343     36344     36343     36345
     36343     36346     36346     36347     36346     36348     36346     36349
     36349     36350     36349     36351     36351     36352     36351     36353
     36353     36354     36353     36355     36353     36356     36356     36357
     36356     36358     36356     36359     36359     36360     36359     36361
     36359     36362     36362     36363     36362     36364     36362     36365
     36365     36366     36365     36367     36365     36368     36368     36369
     36368     36370     36368     36371     36371     36372     36371     36373
     36371     36374     36374     36375     36374     36376     36374     36377
     36325     36326     36326     36328     36326     36327     36328     36329
     36328     36330     36328     36378     36378     36379     36378     36380
     36378     36381     36381     36382     36381     36383     36381     36384
     36384     36385     36384     36386     36384     36387     36387     36388
     36387     36389     36387     36390     36390     36391     36390     36392
     36390     36393     36393     36394     36393     36395     36393     36396
     36396     36397     36396     36398     36396     36399     36399     36400
     36399     36401     36399     36402     36402     36403     36402     36404
     36402     36405     36405     36406     36405     36407     36405     36408
     36408     36409     36408     36410     36408     36411     36411     36412
     36411     36413     36411     36414     36414     36415     36414     36416
     36414     36417     36417     36418     36417     36419     36417     36420
     36421     36425     36421     36429     36421     36433     36425     36426
     36425     36427     36425     36428     36429     36430     36429     36431
     36429     36432     36433     36434     36433     36435     36433     36436
     36421     36422     36422     36423     36422     36424     36422     36437
     36437     36438     36437     36439     36437     36443     36444     36445
     36443     36440     36440     36444     36440     36441     36440     36442
     36445     36446     36445     36447     36445     36448     36448     36449
     36448     36456     36448     36450     36456     36457     36456     36458
     36456     36459     36450     36451     36451     36453     36451     36452
     36453     36454     36453     36455     36453     36465     36465     36466
     36465     36467     36465     36468     36468     36469     36468     36470
     36468     36471     36471     36472     36471     36473     36471     36474
     36474     36475     36474     36476     36474     36477     36477     36478
     36477     36479     36477     36480     36480     36481     36480     36482
     36480     36483     36483     36484     36483     36485     36485     36486
     36485     36487     36487     36488     36487     36489     36487     36490
     36490     36491     36490     36492     36490     36493     36493     36494
     36493     36495     36493     36496     36496     36497     36496     36498
     36496     36499     36499     36500     36499     36501     36499     36502
     36502     36503     36502     36504     36502     36505     36505     36506
     36505     36507     36505     36508     36508     36509     36508     36510
     36508     36511     36459     36460     36460     36462     36460     36461
     36462     36463     36462     36464     36462     36512     36512     36513
     36512     36514     36512     36515     36515     36516     36515     36517
     36515     36518     36518     36519     36518     36520     36518     36521
     36521     36522     36521     36523     36521     36524     36524     36525
     36524     36526     36524     36527     36527     36528     36527     36529
     36527     36530     36530     36531     36530     36532     36530     36533
     36533     36534     36533     36535     36533     36536     36536     36537
     36536     36538     36536     36539     36539     36540     36539     36541
     36539     36542     36542     36543     36542     36544     36542     36545
     36545     36546     36545     36547     36545     36548     36548     36549
     36548     36550     36548     36551     36551     36552     36551     36553
     36551     36554     36555     36559     36555     36563     36555     36567
     36559     36560     36559     36561     36559     36562     36563     36564
     36563     36565     36563     36566     36567     36568     36567     36569
     36567     36570     36555     36556     36556     36557     36556     36558
     36556     36571     36571     36572     36571     36573     36571     36577
     36578     36579     36577     36574     36574     36578     36574     36575
     36574     36576     36579     36580     36579     36581     36579     36582
     36582     36583     36582     36590     36582     36584     36590     36591
     36590     36592     36590     36593     36584     36585     36585     36587
     36585     36586     36587     36588     36587     36589     36587     36599
     36599     36600     36599     36601     36599     36602     36602     36603
     36602     36604     36602     36605     36605     36606     36605     36607
     36605     36608     36608     36609     36608     36610     36608     36611
     36611     36612     36611     36613     36611     36614     36614     36615
     36614     36616     36614     36617     36617     36618     36617     36619
     36619     36620     36619     36621     36621     36622     36621     36623
     36621     36624     36624     36625     36624     36626     36624     36627
     36627     36628     36627     36629     36627     36630     36630     36631
     36630     36632     36630     36633     36633     36634     36633     36635
     36633     36636     36636     36637     36636     36638     36636     36639
     36639     36640     36639     36641     36639     36642     36642     36643
     36642     36644     36642     36645     36593     36594     36594     36596
     36594     36595     36596     36597     36596     36598     36596     36646
     36646     36647     36646     36648     36646     36649     36649     36650
     36649     36651     36649     36652     36652     36653     36652     36654
     36652     36655     36655     36656     36655     36657     36655     36658
     36658     36659     36658     36660     36658     36661     36661     36662
     36661     36663     36661     36664     36664     36665     36664     36666
     36664     36667     36667     36668     36667     36669     36667     36670
     36670     36671     36670     36672     36670     36673     36673     36674
     36673     36675     36673     36676     36676     36677     36676     36678
     36676     36679     36679     36680     36679     36681     36679     36682
     36682     36683     36682     36684     36682     36685     36685     36686
     36685     36687     36685     36688     36689     36693     36689     36697
     36689     36701     36693     36694     36693     36695     36693     36696
     36697     36698     36697     36699     36697     36700     36701     36702
     36701     36703     36701     36704     36689     36690     36690     36691
     36690     36692     36690     36705     36705     36706     36705     36707
     36705     36711     36712     36713     36711     36708     36708     36712
     36708     36709     36708     36710     36713     36714     36713     36715
     36713     36716     36716     36717     36716     36724     36716     36718
     36724     36725     36724     36726     36724     36727     36718     36719
     36719     36721     36719     36720     36721     36722     36721     36723
     36721     36733     36733     36734     36733     36735     36733     36736
     36736     36737     36736     36738     36736     36739     36739     36740
     36739     36741     36739     36742     36742     36743     36742     36744
     36742     36745     36745     36746     36745     36747     36745     36748
     36748     36749     36748     36750     36748     36751     36751     36752
     36751     36753     36753     36754     36753     36755     36755     36756
     36755     36757     36755     36758     36758     36759     36758     36760
     36758     36761     36761     36762     36761     36763     36761     36764
     36764     36765     36764     36766     36764     36767     36767     36768
     36767     36769     36767     36770     36770     36771     36770     36772
     36770     36773     36773     36774     36773     36775     36773     36776
     36776     36777     36776     36778     36776     36779     36727     36728
     36728     36730     36728     36729     36730     36731     36730     36732
     36730     36780     36780     36781     36780     36782     36780     36783
     36783     36784     36783     36785     36783     36786     36786     36787
     36786     36788     36786     36789     36789     36790     36789     36791
     36789     36792     36792     36793     36792     36794     36792     36795
     36795     36796     36795     36797     36795     36798     36798     36799
     36798     36800     36798     36801     36801     36802     36801     36803
     36801     36804     36804     36805     36804     36806     36804     36807
     36807     36808     36807     36809     36807     36810     36810     36811
     36810     36812     36810     36813     36813     36814     36813     36815
     36813     36816     36816     36817     36816     36818     36816     36819
     36819     36820     36819     36821     36819     36822     36823     36827
     36823     36831     36823     36835     36827     36828     36827     36829
     36827     36830     36831     36832     36831     36833     36831     36834
     36835     36836     36835     36837     36835     36838     36823     36824
     36824     36825     36824     36826     36824     36839     36839     36840
     36839     36841     36839     36845     36846     36847     36845     36842
     36842     36846     36842     36843     36842     36844     36847     36848
     36847     36849     36847     36850     36850     36851     36850     36858
     36850     36852     36858     36859     36858     36860     36858     36861
     36852     36853     36853     36855     36853     36854     36855     36856
     36855     36857     36855     36867     36867     36868     36867     36869
     36867     36870     36870     36871     36870     36872     36870     36873
     36873     36874     36873     36875     36873     36876     36876     36877
     36876     36878     36876     36879     36879     36880     36879     36881
     36879     36882     36882     36883     36882     36884     36882     36885
     36885     36886     36885     36887     36887     36888     36887     36889
     36889     36890     36889     36891     36889     36892     36892     36893
     36892     36894     36892     36895     36895     36896     36895     36897
     36895     36898     36898     36899     36898     36900     36898     36901
     36901     36902     36901     36903     36901     36904     36904     36905
     36904     36906     36904     36907     36907     36908     36907     36909
     36907     36910     36910     36911     36910     36912     36910     36913
     36861     36862     36862     36864     36862     36863     36864     36865
     36864     36866     36864     36914     36914     36915     36914     36916
     36914     36917     36917     36918     36917     36919     36917     36920
     36920     36921     36920     36922     36920     36923     36923     36924
     36923     36925     36923     36926     36926     36927     36926     36928
     36926     36929     36929     36930     36929     36931     36929     36932
     36932     36933     36932     36934     36932     36935     36935     36936
     36935     36937     36935     36938     36938     36939     36938     36940
     36938     36941     36941     36942     36941     36943     36941     36944
     36944     36945     36944     36946     36944     36947     36947     36948
     36947     36949     36947     36950     36950     36951     36950     36952
     36950     36953     36953     36954     36953     36955     36953     36956
     36957     36961     36957     36965     36957     36969     36961     36962
     36961     36963     36961     36964     36965     36966     36965     36967
     36965     36968     36969     36970     36969     36971     36969     36972
     36957     36958     36958     36959     36958     36960     36958     36973
     36973     36974     36973     36975     36973     36979     36980     36981
     36979     36976     36976     36980     36976     36977     36976     36978
     36981     36982     36981     36983     36981     36984     36984     36985
     36984     36992     36984     36986     36992     36993     36992     36994
     36992     36995     36986     36987     36987     36989     36987     36988
     36989     36990     36989     36991     36989     37001     37001     37002
     37001     37003     37001     37004     37004     37005     37004     37006
     37004     37007     37007     37008     37007     37009     37007     37010
     37010     37011     37010     37012     37010     37013     37013     37014
     37013     37015     37013     37016     37016     37017     37016     37018
     37016     37019     37019     37020     37019     37021     37021     37022
     37021     37023     37023     37024     37023     37025     37023     37026
     37026     37027     37026     37028     37026     37029     37029     37030
     37029     37031     37029     37032     37032     37033     37032     37034
     37032     37035     37035     37036     37035     37037     37035     37038
     37038     37039     37038     37040     37038     37041     37041     37042
     37041     37043     37041     37044     37044     37045     37044     37046
     37044     37047     36995     36996     36996     36998     36996     36997
     36998     36999     36998     37000     36998     37048     37048     37049
     37048     37050     37048     37051     37051     37052     37051     37053
     37051     37054     37054     37055     37054     37056     37054     37057
     37057     37058     37057     37059     37057     37060     37060     37061
     37060     37062     37060     37063     37063     37064     37063     37065
     37063     37066     37066     37067     37066     37068     37066     37069
     37069     37070     37069     37071     37069     37072     37072     37073
     37072     37074     37072     37075     37075     37076     37075     37077
     37075     37078     37078     37079     37078     37080     37078     37081
     37081     37082     37081     37083     37081     37084     37084     37085
     37084     37086     37084     37087     37087     37088     37087     37089
     37087     37090     37091     37095     37091     37099     37091     37103
     37095     37096     37095     37097     37095     37098     37099     37100
     37099     37101     37099     37102     37103     37104     37103     37105
     37103     37106     37091     37092     37092     37093     37092     37094
     37092     37107     37107     37108     37107     37109     37107     37113
     37114     37115     37113     37110     37110     37114     37110     37111
     37110     37112     37115     37116     37115     37117     37115     37118
     37118     37119     37118     37126     37118     37120     37126     37127
     37126     37128     37126     37129     37120     37121     37121     37123
     37121     37122     37123     37124     37123     37125     37123     37135
     37135     37136     37135     37137     37135     37138     37138     37139
     37138     37140     37138     37141     37141     37142     37141     37143
     37141     37144     37144     37145     37144     37146     37144     37147
     37147     37148     37147     37149     37147     37150     37150     37151
     37150     37152     37150     37153     37153     37154     37153     37155
     37155     37156     37155     37157     37157     37158     37157     37159
     37157     37160     37160     37161     37160     37162     37160     37163
     37163     37164     37163     37165     37163     37166     37166     37167
     37166     37168     37166     37169     37169     37170     37169     37171
     37169     37172     37172     37173     37172     37174     37172     37175
     37175     37176     37175     37177     37175     37178     37178     37179
     37178     37180     37178     37181     37129     37130     37130     37132
     37130     37131     37132     37133     37132     37134     37132     37182
     37182     37183     37182     37184     37182     37185     37185     37186
     37185     37187     37185     37188     37188     37189     37188     37190
     37188     37191     37191     37192     37191     37193     37191     37194
     37194     37195     37194     37196     37194     37197     37197     37198
     37197     37199     37197     37200     37200     37201     37200     37202
     37200     37203     37203     37204     37203     37205     37203     37206
     37206     37207     37206     37208     37206     37209     37209     37210
     37209     37211     37209     37212     37212     37213     37212     37214
     37212     37215     37215     37216     37215     37217     37215     37218
     37218     37219     37218     37220     37218     37221     37221     37222
     37221     37223     37221     37224     37225     37229     37225     37233
     37225     37237     37229     37230     37229     37231     37229     37232
     37233     37234     37233     37235     37233     37236     37237     37238
     37237     37239     37237     37240     37225     37226     37226     37227
     37226     37228     37226     37241     37241     37242     37241     37243
     37241     37247     37248     37249     37247     37244     37244     37248
     37244     37245     37244     37246     37249     37250     37249     37251
     37249     37252     37252     37253     37252     37260     37252     37254
     37260     37261     37260     37262     37260     37263     37254     37255
     37255     37257     37255     37256     37257     37258     37257     37259
     37257     37269     37269     37270     37269     37271     37269     37272
     37272     37273     37272     37274     37272     37275     37275     37276
     37275     37277     37275     37278     37278     37279     37278     37280
     37278     37281     37281     37282     37281     37283     37281     37284
     37284     37285     37284     37286     37284     37287     37287     37288
     37287     37289     37289     37290     37289     37291     37291     37292
     37291     37293     37291     37294     37294     37295     37294     37296
     37294     37297     37297     37298     37297     37299     37297     37300
     37300     37301     37300     37302     37300     37303     37303     37304
     37303     37305     37303     37306     37306     37307     37306     37308
     37306     37309     37309     37310     37309     37311     37309     37312
     37312     37313     37312     37314     37312     37315     37263     37264
     37264     37266     37264     37265     37266     37267     37266     37268
     37266     37316     37316     37317     37316     37318     37316     37319
     37319     37320     37319     37321     37319     37322     37322     37323
     37322     37324     37322     37325     37325     37326     37325     37327
     37325     37328     37328     37329     37328     37330     37328     37331
     37331     37332     37331     37333     37331     37334     37334     37335
     37334     37336     37334     37337     37337     37338     37337     37339
     37337     37340     37340     37341     37340     37342     37340     37343
     37343     37344     37343     37345     37343     37346     37346     37347
     37346     37348     37346     37349     37349     37350     37349     37351
     37349     37352     37352     37353     37352     37354     37352     37355
     37355     37356     37355     37357     37355     37358     37359     37363
     37359     37367     37359     37371     37363     37364     37363     37365
     37363     37366     37367     37368     37367     37369     37367     37370
     37371     37372     37371     37373     37371     37374     37359     37360
     37360     37361     37360     37362     37360     37375     37375     37376
     37375     37377     37375     37381     37382     37383     37381     37378
     37378     37382     37378     37379     37378     37380     37383     37384
     37383     37385     37383     37386     37386     37387     37386     37394
     37386     37388     37394     37395     37394     37396     37394     37397
     37388     37389     37389     37391     37389     37390     37391     37392
     37391     37393     37391     37403     37403     37404     37403     37405
     37403     37406     37406     37407     37406     37408     37406     37409
     37409     37410     37409     37411     37409     37412     37412     37413
     37412     37414     37412     37415     37415     37416     37415     37417
     37415     37418     37418     37419     37418     37420     37418     37421
     37421     37422     37421     37423     37423     37424     37423     37425
     37425     37426     37425     37427     37425     37428     37428     37429
     37428     37430     37428     37431     37431     37432     37431     37433
     37431     37434     37434     37435     37434     37436     37434     37437
     37437     37438     37437     37439     37437     37440     37440     37441
     37440     37442     37440     37443     37443     37444     37443     37445
     37443     37446     37446     37447     37446     37448     37446     37449
     37397     37398     37398     37400     37398     37399     37400     37401
     37400     37402     37400     37450     37450     37451     37450     37452
     37450     37453     37453     37454     37453     37455     37453     37456
     37456     37457     37456     37458     37456     37459     37459     37460
     37459     37461     37459     37462     37462     37463     37462     37464
     37462     37465     37465     37466     37465     37467     37465     37468
     37468     37469     37468     37470     37468     37471     37471     37472
     37471     37473     37471     37474     37474     37475     37474     37476
     37474     37477     37477     37478     37477     37479     37477     37480
     37480     37481     37480     37482     37480     37483     37483     37484
     37483     37485     37483     37486     37486     37487     37486     37488
     37486     37489     37489     37490     37489     37491     37489     37492
     37493     37497     37493     37501     37493     37505     37497     37498
     37497     37499     37497     37500     37501     37502     37501     37503
     37501     37504     37505     37506     37505     37507     37505     37508
     37493     37494     37494     37495     37494     37496     37494     37509
     37509     37510     37509     37511     37509     37515     37516     37517
     37515     37512     37512     37516     37512     37513     37512     37514
     37517     37518     37517     37519     37517     37520     37520     37521
     37520     37528     37520     37522     37528     37529     37528     37530
     37528     37531     37522     37523     37523     37525     37523     37524
     37525     37526     37525     37527     37525     37537     37537     37538
     37537     37539     37537     37540     37540     37541     37540     37542
     37540     37543     37543     37544     37543     37545     37543     37546
     37546     37547     37546     37548     37546     37549     37549     37550
     37549     37551     37549     37552     37552     37553     37552     37554
     37552     37555     37555     37556     37555     37557     37557     37558
     37557     37559     37559     37560     37559     37561     37559     37562
     37562     37563     37562     37564     37562     37565     37565     37566
     37565     37567     37565     37568     37568     37569     37568     37570
     37568     37571     37571     37572     37571     37573     37571     37574
     37574     37575     37574     37576     37574     37577     37577     37578
     37577     37579     37577     37580     37580     37581     37580     37582
     37580     37583     37531     37532     37532     37534     37532     37533
     37534     37535     37534     37536     37534     37584     37584     37585
     37584     37586     37584     37587     37587     37588     37587     37589
     37587     37590     37590     37591     37590     37592     37590     37593
     37593     37594     37593     37595     37593     37596     37596     37597
     37596     37598     37596     37599     37599     37600     37599     37601
     37599     37602     37602     37603     37602     37604     37602     37605
     37605     37606     37605     37607     37605     37608     37608     37609
     37608     37610     37608     37611     37611     37612     37611     37613
     37611     37614     37614     37615     37614     37616     37614     37617
     37617     37618     37617     37619     37617     37620     37620     37621
     37620     37622     37620     37623     37623     37624     37623     37625
     37623     37626     37627     37631     37627     37635     37627     37639
     37631     37632     37631     37633     37631     37634     37635     37636
     37635     37637     37635     37638     37639     37640     37639     37641
     37639     37642     37627     37628     37628     37629     37628     37630
     37628     37643     37643     37644     37643     37645     37643     37649
     37650     37651     37649     37646     37646     37650     37646     37647
     37646     37648     37651     37652     37651     37653     37651     37654
     37654     37655     37654     37662     37654     37656     37662     37663
     37662     37664     37662     37665     37656     37657     37657     37659
     37657     37658     37659     37660     37659     37661     37659     37671
     37671     37672     37671     37673     37671     37674     37674     37675
     37674     37676     37674     37677     37677     37678     37677     37679
     37677     37680     37680     37681     37680     37682     37680     37683
     37683     37684     37683     37685     37683     37686     37686     37687
     37686     37688     37686     37689     37689     37690     37689     37691
     37691     37692     37691     37693     37693     37694     37693     37695
     37693     37696     37696     37697     37696     37698     37696     37699
     37699     37700     37699     37701     37699     37702     37702     37703
     37702     37704     37702     37705     37705     37706     37705     37707
     37705     37708     37708     37709     37708     37710     37708     37711
     37711     37712     37711     37713     37711     37714     37714     37715
     37714     37716     37714     37717     37665     37666     37666     37668
     37666     37667     37668     37669     37668     37670     37668     37718
     37718     37719     37718     37720     37718     37721     37721     37722
     37721     37723     37721     37724     37724     37725     37724     37726
     37724     37727     37727     37728     37727     37729     37727     37730
     37730     37731     37730     37732     37730     37733     37733     37734
     37733     37735     37733     37736     37736     37737     37736     37738
     37736     37739     37739     37740     37739     37741     37739     37742
     37742     37743     37742     37744     37742     37745     37745     37746
     37745     37747     37745     37748     37748     37749     37748     37750
     37748     37751     37751     37752     37751     37753     37751     37754
     37754     37755     37754     37756     37754     37757     37757     37758
     37757     37759     37757     37760     37761     37765     37761     37769
     37761     37773     37765     37766     37765     37767     37765     37768
     37769     37770     37769     37771     37769     37772     37773     37774
     37773     37775     37773     37776     37761     37762     37762     37763
     37762     37764     37762     37777     37777     37778     37777     37779
     37777     37783     37784     37785     37783     37780     37780     37784
     37780     37781     37780     37782     37785     37786     37785     37787
     37785     37788     37788     37789     37788     37796     37788     37790
     37796     37797     37796     37798     37796     37799     37790     37791
     37791     37793     37791     37792     37793     37794     37793     37795
     37793     37805     37805     37806     37805     37807     37805     37808
     37808     37809     37808     37810     37808     37811     37811     37812
     37811     37813     37811     37814     37814     37815     37814     37816
     37814     37817     37817     37818     37817     37819     37817     37820
     37820     37821     37820     37822     37820     37823     37823     37824
     37823     37825     37825     37826     37825     37827     37827     37828
     37827     37829     37827     37830     37830     37831     37830     37832
     37830     37833     37833     37834     37833     37835     37833     37836
     37836     37837     37836     37838     37836     37839     37839     37840
     37839     37841     37839     37842     37842     37843     37842     37844
     37842     37845     37845     37846     37845     37847     37845     37848
     37848     37849     37848     37850     37848     37851     37799     37800
     37800     37802     37800     37801     37802     37803     37802     37804
     37802     37852     37852     37853     37852     37854     37852     37855
     37855     37856     37855     37857     37855     37858     37858     37859
     37858     37860     37858     37861     37861     37862     37861     37863
     37861     37864     37864     37865     37864     37866     37864     37867
     37867     37868     37867     37869     37867     37870     37870     37871
     37870     37872     37870     37873     37873     37874     37873     37875
     37873     37876     37876     37877     37876     37878     37876     37879
     37879     37880     37879     37881     37879     37882     37882     37883
     37882     37884     37882     37885     37885     37886     37885     37887
     37885     37888     37888     37889     37888     37890     37888     37891
     37891     37892     37891     37893     37891     37894     37895     37899
     37895     37903     37895     37907     37899     37900     37899     37901
     37899     37902     37903     37904     37903     37905     37903     37906
     37907     37908     37907     37909     37907     37910     37895     37896
     37896     37897     37896     37898     37896     37911     37911     37912
     37911     37913     37911     37917     37918     37919     37917     37914
     37914     37918     37914     37915     37914     37916     37919     37920
     37919     37921     37919     37922     37922     37923     37922     37930
     37922     37924     37930     37931     37930     37932     37930     37933
     37924     37925     37925     37927     37925     37926     37927     37928
     37927     37929     37927     37939     37939     37940     37939     37941
     37939     37942     37942     37943     37942     37944     37942     37945
     37945     37946     37945     37947     37945     37948     37948     37949
     37948     37950     37948     37951     37951     37952     37951     37953
     37951     37954     37954     37955     37954     37956     37954     37957
     37957     37958     37957     37959     37959     37960     37959     37961
     37961     37962     37961     37963     37961     37964     37964     37965
     37964     37966     37964     37967     37967     37968     37967     37969
     37967     37970     37970     37971     37970     37972     37970     37973
     37973     37974     37973     37975     37973     37976     37976     37977
     37976     37978     37976     37979     37979     37980     37979     37981
     37979     37982     37982     37983     37982     37984     37982     37985
     37933     37934     37934     37936     37934     37935     37936     37937
     37936     37938     37936     37986     37986     37987     37986     37988
     37986     37989     37989     37990     37989     37991     37989     37992
     37992     37993     37992     37994     37992     37995     37995     37996
     37995     37997     37995     37998     37998     37999     37998     38000
     37998     38001     38001     38002     38001     38003     38001     38004
     38004     38005     38004     38006     38004     38007     38007     38008
     38007     38009     38007     38010     38010     38011     38010     38012
     38010     38013     38013     38014     38013     38015     38013     38016
     38016     38017     38016     38018     38016     38019     38019     38020
     38019     38021     38019     38022     38022     38023     38022     38024
     38022     38025     38025     38026     38025     38027     38025     38028

     73635 !NTHETA: angles
         1         3         4         1         5         6         1         5         7
         1         5         8         1        47        44         1        47        48
         1        47        49         2         1         3         2         1         5
         2         1        47         3         1         5         3         1        47
         5         1        47         5         8         9         5         8        39
         6         5         7         6         5         8         7         5         8
         8         9        10         8         9        11         8        39        37
         8        39        40         8        39        44         9         8        39
         9        11        12         9        11        13         9        11        14
        10         9        11        11        14        15        11        14        16
        11        14        37        12        11        13        12        11        14
        13        11        14        14        16        17        14        16        18
        14        16        26        14        37        34        14        37        38
        14        37        39        15        14        16        15        14        37
        16        14        37        16        18        19        16        18        20
        16        18        21        16        26        24        16        26        27
        16        26        31        17        16        18        17        16        26
        18        16        26        18        21        22        18        21        23
        18        21        24        19        18        20        19        18        21
        20        18        21        21        24        25        21        24        26
        21        24        50        22        21        23        22        21        24
        23        21        24        24        26        27        24        26        31
        24        50        51        24        50        52        24        50        56
        25        24        26        25        24        50        26        24        50
        26        27        28        26        27        29        26        27        30
        26        31        32        26        31        33        26        31        34
        27        26        31        28        27        29        28        27        30
        29        27        30        31        34        35        31        34        36
        31        34        37        32        31        33        32        31        34
        33        31        34        34        37        38        34        37        39
        35        34        36        35        34        37        36        34        37
        37        39        40        37        39        44        38        37        39
        39        40        41        39        40        42        39        40        43
        39        44        45        39        44        46        39        44        47
        40        39        44        41        40        42        41        40        43
        42        40        43        44        47        48        44        47        49
        45        44        46        45        44        47        46        44        47
        48        47        49        50        52        53        50        52        54
        50        52        55        50        56        57        50        56        58
        50        56        59        51        50        52        51        50        56
        52        50        56        53        52        54        53        52        55
        54        52        55        56        59        60        56        59        61
        56        59        62        57        56        58        57        56        59
        58        56        59        59        62        63        59        62        64
        59        62        65        60        59        61        60        59        62
        61        59        62        62        65        66        62        65        67
        62        65        71        63        62        64        63        62        65
        64        62        65        65        67        68        65        67        69
        65        67        70        65        71        72        65        71        73
        65        71        74        66        65        67        66        65        71
        67        65        71        68        67        69        68        67        70
        69        67        70        72        71        73        72        71        74
        73        71        74        75        77        78        75        79        80
        75        79        81        75        79        82        75       121       118
        75       121       122        75       121       123        76        75        77
        76        75        79        76        75       121        77        75        79
        77        75       121        79        75       121        79        82        83
        79        82       113        80        79        81        80        79        82
        81        79        82        82        83        84        82        83        85
        82       113       111        82       113       114        82       113       118
        83        82       113        83        85        86        83        85        87
        83        85        88        84        83        85        85        88        89
        85        88        90        85        88       111        86        85        87
        86        85        88        87        85        88        88        90        91
        88        90        92        88        90       100        88       111       108
        88       111       112        88       111       113        89        88        90
        89        88       111        90        88       111        90        92        93
        90        92        94        90        92        95        90       100        98
        90       100       101        90       100       105        91        90        92
        91        90       100        92        90       100        92        95        96
        92        95        97        92        95        98        93        92        94
        93        92        95        94        92        95        95        98        99
        95        98       100        95        98       124        96        95        97
        96        95        98        97        95        98        98       100       101
        98       100       105        98       124       125        98       124       126
        98       124       130        99        98       100        99        98       124
       100        98       124       100       101       102       100       101       103
       100       101       104       100       105       106       100       105       107
       100       105       108       101       100       105       102       101       103
       102       101       104       103       101       104       105       108       109
       105       108       110       105       108       111       106       105       107
       106       105       108       107       105       108       108       111       112
       108       111       113       109       108       110       109       108       111
       110       108       111       111       113       114       111       113       118
       112       111       113       113       114       115       113       114       116
       113       114       117       113       118       119       113       118       120
       113       118       121       114       113       118       115       114       116
       115       114       117       116       114       117       118       121       122
       118       121       123       119       118       120       119       118       121
       120       118       121       122       121       123       124       126       127
       124       126       128       124       126       129       124       130       131
       124       130       132       124       130       133       125       124       126
       125       124       130       126       124       130       127       126       128
       127       126       129       128       126       129       130       133       134
       130       133       135       130       133       136       131       130       132
       131       130       133       132       130       133       133       136       137
       133       136       138       133       136       139       134       133       135
       134       133       136       135       133       136       136       139       140
       136       139       141       136       139       145       137       136       138
       137       136       139       138       136       139       139       141       142
       139       141       143       139       141       144       139       145       146
       139       145       147       139       145       148       140       139       141
       140       139       145       141       139       145       142       141       143
       142       141       144       143       141       144       146       145       147
       146       145       148       147       145       148       149       151       152
       149       153       154       149       153       155       149       153       156
       149       195       192       149       195       196       149       195       197
       150       149       151       150       149       153       150       149       195
       151       149       153       151       149       195       153       149       195
       153       156       157       153       156       187       154       153       155
       154       153       156       155       153       156       156       157       158
       156       157       159       156       187       185       156       187       188
       156       187       192       157       156       187       157       159       160
       157       159       161       157       159       162       158       157       159
       159       162       163       159       162       164       159       162       185
       160       159       161       160       159       162       161       159       162
       162       164       165       162       164       166       162       164       174
       162       185       182       162       185       186       162       185       187
       163       162       164       163       162       185       164       162       185
       164       166       167       164       166       168       164       166       169
       164       174       172       164       174       175       164       174       179
       165       164       166       165       164       174       166       164       174
       166       169       170       166       169       171       166       169       172
       167       166       168       167       166       169       168       166       169
       169       172       173       169       172       174       169       172       198
       170       169       171       170       169       172       171       169       172
       172       174       175       172       174       179       172       198       199
       172       198       200       172       198       204       173       172       174
       173       172       198       174       172       198       174       175       176
       174       175       177       174       175       178       174       179       180
       174       179       181       174       179       182       175       174       179
       176       175       177       176       175       178       177       175       178
       179       182       183       179       182       184       179       182       185
       180       179       181       180       179       182       181       179       182
       182       185       186       182       185       187       183       182       184
       183       182       185       184       182       185       185       187       188
       185       187       192       186       185       187       187       188       189
       187       188       190       187       188       191       187       192       193
       187       192       194       187       192       195       188       187       192
       189       188       190       189       188       191       190       188       191
       192       195       196       192       195       197       193       192       194
       193       192       195       194       192       195       196       195       197
       198       200       201       198       200       202       198       200       203
       198       204       205       198       204       206       198       204       207
       199       198       200       199       198       204       200       198       204
       201       200       202       201       200       203       202       200       203
       204       207       208       204       207       209       204       207       210
       205       204       206       205       204       207       206       204       207
       207       210       211       207       210       212       207       210       213
       208       207       209       208       207       210       209       207       210
       210       213       214       210       213       215       210       213       219
       211       210       212       211       210       213       212       210       213
       213       215       216       213       215       217       213       215       218
       213       219       220       213       219       221       213       219       222
       214       213       215       214       213       219       215       213       219
       216       215       217       216       215       218       217       215       218
       220       219       221       220       219       222       221       219       222
       223       225       226       223       227       228       223       227       229
       223       227       230       223       269       266       223       269       270
       223       269       271       224       223       225       224       223       227
       224       223       269       225       223       227       225       223       269
       227       223       269       227       230       231       227       230       261
       228       227       229       228       227       230       229       227       230
       230       231       232       230       231       233       230       261       259
       230       261       262       230       261       266       231       230       261
       231       233       234       231       233       235       231       233       236
       232       231       233       233       236       237       233       236       238
       233       236       259       234       233       235       234       233       236
       235       233       236       236       238       239       236       238       240
       236       238       248       236       259       256       236       259       260
       236       259       261       237       236       238       237       236       259
       238       236       259       238       240       241       238       240       242
       238       240       243       238       248       246       238       248       249
       238       248       253       239       238       240       239       238       248
       240       238       248       240       243       244       240       243       245
       240       243       246       241       240       242       241       240       243
       242       240       243       243       246       247       243       246       248
       243       246       272       244       243       245       244       243       246
       245       243       246       246       248       249       246       248       253
       246       272       273       246       272       274       246       272       278
       247       246       248       247       246       272       248       246       272
       248       249       250       248       249       251       248       249       252
       248       253       254       248       253       255       248       253       256
       249       248       253       250       249       251       250       249       252
       251       249       252       253       256       257       253       256       258
       253       256       259       254       253       255       254       253       256
       255       253       256       256       259       260       256       259       261
       257       256       258       257       256       259       258       256       259
       259       261       262       259       261       266       260       259       261
       261       262       263       261       262       264       261       262       265
       261       266       267       261       266       268       261       266       269
       262       261       266       263       262       264       263       262       265
       264       262       265       266       269       270       266       269       271
       267       266       268       267       266       269       268       266       269
       270       269       271       272       274       275       272       274       276
       272       274       277       272       278       279       272       278       280
       272       278       281       273       272       274       273       272       278
       274       272       278       275       274       276       275       274       277
       276       274       277       278       281       282       278       281       283
       278       281       284       279       278       280       279       278       281
       280       278       281       281       284       285       281       284       286
       281       284       287       282       281       283       282       281       284
       283       281       284       284       287       288       284       287       289
       284       287       293       285       284       286       285       284       287
       286       284       287       287       289       290       287       289       291
       287       289       292       287       293       294       287       293       295
       287       293       296       288       287       289       288       287       293
       289       287       293       290       289       291       290       289       292
       291       289       292       294       293       295       294       293       296
       295       293       296       297       299       300       297       301       302
       297       301       303       297       301       304       297       343       340
       297       343       344       297       343       345       298       297       299
       298       297       301       298       297       343       299       297       301
       299       297       343       301       297       343       301       304       305
       301       304       335       302       301       303       302       301       304
       303       301       304       304       305       306       304       305       307
       304       335       333       304       335       336       304       335       340
       305       304       335       305       307       308       305       307       309
       305       307       310       306       305       307       307       310       311
       307       310       312       307       310       333       308       307       309
       308       307       310       309       307       310       310       312       313
       310       312       314       310       312       322       310       333       330
       310       333       334       310       333       335       311       310       312
       311       310       333       312       310       333       312       314       315
       312       314       316       312       314       317       312       322       320
       312       322       323       312       322       327       313       312       314
       313       312       322       314       312       322       314       317       318
       314       317       319       314       317       320       315       314       316
       315       314       317       316       314       317       317       320       321
       317       320       322       317       320       346       318       317       319
       318       317       320       319       317       320       320       322       323
       320       322       327       320       346       347       320       346       348
       320       346       352       321       320       322       321       320       346
       322       320       346       322       323       324       322       323       325
       322       323       326       322       327       328       322       327       329
       322       327       330       323       322       327       324       323       325
       324       323       326       325       323       326       327       330       331
       327       330       332       327       330       333       328       327       329
       328       327       330       329       327       330       330       333       334
       330       333       335       331       330       332       331       330       333
       332       330       333       333       335       336       333       335       340
       334       333       335       335       336       337       335       336       338
       335       336       339       335       340       341       335       340       342
       335       340       343       336       335       340       337       336       338
       337       336       339       338       336       339       340       343       344
       340       343       345       341       340       342       341       340       343
       342       340       343       344       343       345       346       348       349
       346       348       350       346       348       351       346       352       353
       346       352       354       346       352       355       347       346       348
       347       346       352       348       346       352       349       348       350
       349       348       351       350       348       351       352       355       356
       352       355       357       352       355       358       353       352       354
       353       352       355       354       352       355       355       358       359
       355       358       360       355       358       361       356       355       357
       356       355       358       357       355       358       358       361       362
       358       361       363       358       361       367       359       358       360
       359       358       361       360       358       361       361       363       364
       361       363       365       361       363       366       361       367       368
       361       367       369       361       367       370       362       361       363
       362       361       367       363       361       367       364       363       365
       364       363       366       365       363       366       368       367       369
       368       367       370       369       367       370       371       373       374
       371       375       376       371       375       377       371       375       378
       371       417       414       371       417       418       371       417       419
       372       371       373       372       371       375       372       371       417
       373       371       375       373       371       417       375       371       417
       375       378       379       375       378       409       376       375       377
       376       375       378       377       375       378       378       379       380
       378       379       381       378       409       407       378       409       410
       378       409       414       379       378       409       379       381       382
       379       381       383       379       381       384       380       379       381
       381       384       385       381       384       386       381       384       407
       382       381       383       382       381       384       383       381       384
       384       386       387       384       386       388       384       386       396
       384       407       404       384       407       408       384       407       409
       385       384       386       385       384       407       386       384       407
       386       388       389       386       388       390       386       388       391
       386       396       394       386       396       397       386       396       401
       387       386       388       387       386       396       388       386       396
       388       391       392       388       391       393       388       391       394
       389       388       390       389       388       391       390       388       391
       391       394       395       391       394       396       391       394       420
       392       391       393       392       391       394       393       391       394
       394       396       397       394       396       401       394       420       421
       394       420       422       394       420       426       395       394       396
       395       394       420       396       394       420       396       397       398
       396       397       399       396       397       400       396       401       402
       396       401       403       396       401       404       397       396       401
       398       397       399       398       397       400       399       397       400
       401       404       405       401       404       406       401       404       407
       402       401       403       402       401       404       403       401       404
       404       407       408       404       407       409       405       404       406
       405       404       407       406       404       407       407       409       410
       407       409       414       408       407       409       409       410       411
       409       410       412       409       410       413       409       414       415
       409       414       416       409       414       417       410       409       414
       411       410       412       411       410       413       412       410       413
       414       417       418       414       417       419       415       414       416
       415       414       417       416       414       417       418       417       419
       420       422       423       420       422       424       420       422       425
       420       426       427       420       426       428       420       426       429
       421       420       422       421       420       426       422       420       426
       423       422       424       423       422       425       424       422       425
       426       429       430       426       429       431       426       429       432
       427       426       428       427       426       429       428       426       429
       429       432       433       429       432       434       429       432       435
       430       429       431       430       429       432       431       429       432
       432       435       436       432       435       437       432       435       441
       433       432       434       433       432       435       434       432       435
       435       437       438       435       437       439       435       437       440
       435       441       442       435       441       443       435       441       444
       436       435       437       436       435       441       437       435       441
       438       437       439       438       437       440       439       437       440
       442       441       443       442       441       444       443       441       444
       445       447       448       445       449       450       445       449       451
       445       449       452       445       491       488       445       491       492
       445       491       493       446       445       447       446       445       449
       446       445       491       447       445       449       447       445       491
       449       445       491       449       452       453       449       452       483
       450       449       451       450       449       452       451       449       452
       452       453       454       452       453       455       452       483       481
       452       483       484       452       483       488       453       452       483
       453       455       456       453       455       457       453       455       458
       454       453       455       455       458       459       455       458       460
       455       458       481       456       455       457       456       455       458
       457       455       458       458       460       461       458       460       462
       458       460       470       458       481       478       458       481       482
       458       481       483       459       458       460       459       458       481
       460       458       481       460       462       463       460       462       464
       460       462       465       460       470       468       460       470       471
       460       470       475       461       460       462       461       460       470
       462       460       470       462       465       466       462       465       467
       462       465       468       463       462       464       463       462       465
       464       462       465       465       468       469       465       468       470
       465       468       494       466       465       467       466       465       468
       467       465       468       468       470       471       468       470       475
       468       494       495       468       494       496       468       494       500
       469       468       470       469       468       494       470       468       494
       470       471       472       470       471       473       470       471       474
       470       475       476       470       475       477       470       475       478
       471       470       475       472       471       473       472       471       474
       473       471       474       475       478       479       475       478       480
       475       478       481       476       475       477       476       475       478
       477       475       478       478       481       482       478       481       483
       479       478       480       479       478       481       480       478       481
       481       483       484       481       483       488       482       481       483
       483       484       485       483       484       486       483       484       487
       483       488       489       483       488       490       483       488       491
       484       483       488       485       484       486       485       484       487
       486       484       487       488       491       492       488       491       493
       489       488       490       489       488       491       490       488       491
       492       491       493       494       496       497       494       496       498
       494       496       499       494       500       501       494       500       502
       494       500       503       495       494       496       495       494       500
       496       494       500       497       496       498       497       496       499
       498       496       499       500       503       504       500       503       505
       500       503       506       501       500       502       501       500       503
       502       500       503       503       506       507       503       506       508
       503       506       509       504       503       505       504       503       506
       505       503       506       506       509       510       506       509       511
       506       509       515       507       506       508       507       506       509
       508       506       509       509       511       512       509       511       513
       509       511       514       509       515       516       509       515       517
       509       515       518       510       509       511       510       509       515
       511       509       515       512       511       513       512       511       514
       513       511       514       516       515       517       516       515       518
       517       515       518       519       521       522       519       523       524
       519       523       525       519       523       526       519       565       562
       519       565       566       519       565       567       520       519       521
       520       519       523       520       519       565       521       519       523
       521       519       565       523       519       565       523       526       527
       523       526       557       524       523       525       524       523       526
       525       523       526       526       527       528       526       527       529
       526       557       555       526       557       558       526       557       562
       527       526       557       527       529       530       527       529       531
       527       529       532       528       527       529       529       532       533
       529       532       534       529       532       555       530       529       531
       530       529       532       531       529       532       532       534       535
       532       534       536       532       534       544       532       555       552
       532       555       556       532       555       557       533       532       534
       533       532       555       534       532       555       534       536       537
       534       536       538       534       536       539       534       544       542
       534       544       545       534       544       549       535       534       536
       535       534       544       536       534       544       536       539       540
       536       539       541       536       539       542       537       536       538
       537       536       539       538       536       539       539       542       543
       539       542       544       539       542       568       540       539       541
       540       539       542       541       539       542       542       544       545
       542       544       549       542       568       569       542       568       570
       542       568       574       543       542       544       543       542       568
       544       542       568       544       545       546       544       545       547
       544       545       548       544       549       550       544       549       551
       544       549       552       545       544       549       546       545       547
       546       545       548       547       545       548       549       552       553
       549       552       554       549       552       555       550       549       551
       550       549       552       551       549       552       552       555       556
       552       555       557       553       552       554       553       552       555
       554       552       555       555       557       558       555       557       562
       556       555       557       557       558       559       557       558       560
       557       558       561       557       562       563       557       562       564
       557       562       565       558       557       562       559       558       560
       559       558       561       560       558       561       562       565       566
       562       565       567       563       562       564       563       562       565
       564       562       565       566       565       567       568       570       571
       568       570       572       568       570       573       568       574       575
       568       574       576       568       574       577       569       568       570
       569       568       574       570       568       574       571       570       572
       571       570       573       572       570       573       574       577       578
       574       577       579       574       577       580       575       574       576
       575       574       577       576       574       577       577       580       581
       577       580       582       577       580       583       578       577       579
       578       577       580       579       577       580       580       583       584
       580       583       585       580       583       589       581       580       582
       581       580       583       582       580       583       583       585       586
       583       585       587       583       585       588       583       589       590
       583       589       591       583       589       592       584       583       585
       584       583       589       585       583       589       586       585       587
       586       585       588       587       585       588       590       589       591
       590       589       592       591       589       592       593       595       596
       593       597       598       593       597       599       593       597       600
       593       639       636       593       639       640       593       639       641
       594       593       595       594       593       597       594       593       639
       595       593       597       595       593       639       597       593       639
       597       600       601       597       600       631       598       597       599
       598       597       600       599       597       600       600       601       602
       600       601       603       600       631       629       600       631       632
       600       631       636       601       600       631       601       603       604
       601       603       605       601       603       606       602       601       603
       603       606       607       603       606       608       603       606       629
       604       603       605       604       603       606       605       603       606
       606       608       609       606       608       610       606       608       618
       606       629       626       606       629       630       606       629       631
       607       606       608       607       606       629       608       606       629
       608       610       611       608       610       612       608       610       613
       608       618       616       608       618       619       608       618       623
       609       608       610       609       608       618       610       608       618
       610       613       614       610       613       615       610       613       616
       611       610       612       611       610       613       612       610       613
       613       616       617       613       616       618       613       616       642
       614       613       615       614       613       616       615       613       616
       616       618       619       616       618       623       616       642       643
       616       642       644       616       642       648       617       616       618
       617       616       642       618       616       642       618       619       620
       618       619       621       618       619       622       618       623       624
       618       623       625       618       623       626       619       618       623
       620       619       621       620       619       622       621       619       622
       623       626       627       623       626       628       623       626       629
       624       623       625       624       623       626       625       623       626
       626       629       630       626       629       631       627       626       628
       627       626       629       628       626       629       629       631       632
       629       631       636       630       629       631       631       632       633
       631       632       634       631       632       635       631       636       637
       631       636       638       631       636       639       632       631       636
       633       632       634       633       632       635       634       632       635
       636       639       640       636       639       641       637       636       638
       637       636       639       638       636       639       640       639       641
       642       644       645       642       644       646       642       644       647
       642       648       649       642       648       650       642       648       651
       643       642       644       643       642       648       644       642       648
       645       644       646       645       644       647       646       644       647
       648       651       652       648       651       653       648       651       654
       649       648       650       649       648       651       650       648       651
       651       654       655       651       654       656       651       654       657
       652       651       653       652       651       654       653       651       654
       654       657       658       654       657       659       654       657       663
       655       654       656       655       654       657       656       654       657
       657       659       660       657       659       661       657       659       662
       657       663       664       657       663       665       657       663       666
       658       657       659       658       657       663       659       657       663
       660       659       661       660       659       662       661       659       662
       664       663       665       664       663       666       665       663       666
       667       669       670       667       671       672       667       671       673
       667       671       674       667       713       710       667       713       714
       667       713       715       668       667       669       668       667       671
       668       667       713       669       667       671       669       667       713
       671       667       713       671       674       675       671       674       705
       672       671       673       672       671       674       673       671       674
       674       675       676       674       675       677       674       705       703
       674       705       706       674       705       710       675       674       705
       675       677       678       675       677       679       675       677       680
       676       675       677       677       680       681       677       680       682
       677       680       703       678       677       679       678       677       680
       679       677       680       680       682       683       680       682       684
       680       682       692       680       703       700       680       703       704
       680       703       705       681       680       682       681       680       703
       682       680       703       682       684       685       682       684       686
       682       684       687       682       692       690       682       692       693
       682       692       697       683       682       684       683       682       692
       684       682       692       684       687       688       684       687       689
       684       687       690       685       684       686       685       684       687
       686       684       687       687       690       691       687       690       692
       687       690       716       688       687       689       688       687       690
       689       687       690       690       692       693       690       692       697
       690       716       717       690       716       718       690       716       722
       691       690       692       691       690       716       692       690       716
       692       693       694       692       693       695       692       693       696
       692       697       698       692       697       699       692       697       700
       693       692       697       694       693       695       694       693       696
       695       693       696       697       700       701       697       700       702
       697       700       703       698       697       699       698       697       700
       699       697       700       700       703       704       700       703       705
       701       700       702       701       700       703       702       700       703
       703       705       706       703       705       710       704       703       705
       705       706       707       705       706       708       705       706       709
       705       710       711       705       710       712       705       710       713
       706       705       710       707       706       708       707       706       709
       708       706       709       710       713       714       710       713       715
       711       710       712       711       710       713       712       710       713
       714       713       715       716       718       719       716       718       720
       716       718       721       716       722       723       716       722       724
       716       722       725       717       716       718       717       716       722
       718       716       722       719       718       720       719       718       721
       720       718       721       722       725       726       722       725       727
       722       725       728       723       722       724       723       722       725
       724       722       725       725       728       729       725       728       730
       725       728       731       726       725       727       726       725       728
       727       725       728       728       731       732       728       731       733
       728       731       737       729       728       730       729       728       731
       730       728       731       731       733       734       731       733       735
       731       733       736       731       737       738       731       737       739
       731       737       740       732       731       733       732       731       737
       733       731       737       734       733       735       734       733       736
       735       733       736       738       737       739       738       737       740
       739       737       740       741       743       744       741       745       746
       741       745       747       741       745       748       741       787       784
       741       787       788       741       787       789       742       741       743
       742       741       745       742       741       787       743       741       745
       743       741       787       745       741       787       745       748       749
       745       748       779       746       745       747       746       745       748
       747       745       748       748       749       750       748       749       751
       748       779       777       748       779       780       748       779       784
       749       748       779       749       751       752       749       751       753
       749       751       754       750       749       751       751       754       755
       751       754       756       751       754       777       752       751       753
       752       751       754       753       751       754       754       756       757
       754       756       758       754       756       766       754       777       774
       754       777       778       754       777       779       755       754       756
       755       754       777       756       754       777       756       758       759
       756       758       760       756       758       761       756       766       764
       756       766       767       756       766       771       757       756       758
       757       756       766       758       756       766       758       761       762
       758       761       763       758       761       764       759       758       760
       759       758       761       760       758       761       761       764       765
       761       764       766       761       764       790       762       761       763
       762       761       764       763       761       764       764       766       767
       764       766       771       764       790       791       764       790       792
       764       790       796       765       764       766       765       764       790
       766       764       790       766       767       768       766       767       769
       766       767       770       766       771       772       766       771       773
       766       771       774       767       766       771       768       767       769
       768       767       770       769       767       770       771       774       775
       771       774       776       771       774       777       772       771       773
       772       771       774       773       771       774       774       777       778
       774       777       779       775       774       776       775       774       777
       776       774       777       777       779       780       777       779       784
       778       777       779       779       780       781       779       780       782
       779       780       783       779       784       785       779       784       786
       779       784       787       780       779       784       781       780       782
       781       780       783       782       780       783       784       787       788
       784       787       789       785       784       786       785       784       787
       786       784       787       788       787       789       790       792       793
       790       792       794       790       792       795       790       796       797
       790       796       798       790       796       799       791       790       792
       791       790       796       792       790       796       793       792       794
       793       792       795       794       792       795       796       799       800
       796       799       801       796       799       802       797       796       798
       797       796       799       798       796       799       799       802       803
       799       802       804       799       802       805       800       799       801
       800       799       802       801       799       802       802       805       806
       802       805       807       802       805       811       803       802       804
       803       802       805       804       802       805       805       807       808
       805       807       809       805       807       810       805       811       812
       805       811       813       805       811       814       806       805       807
       806       805       811       807       805       811       808       807       809
       808       807       810       809       807       810       812       811       813
       812       811       814       813       811       814       815       817       818
       815       819       820       815       819       821       815       819       822
       815       861       858       815       861       862       815       861       863
       816       815       817       816       815       819       816       815       861
       817       815       819       817       815       861       819       815       861
       819       822       823       819       822       853       820       819       821
       820       819       822       821       819       822       822       823       824
       822       823       825       822       853       851       822       853       854
       822       853       858       823       822       853       823       825       826
       823       825       827       823       825       828       824       823       825
       825       828       829       825       828       830       825       828       851
       826       825       827       826       825       828       827       825       828
       828       830       831       828       830       832       828       830       840
       828       851       848       828       851       852       828       851       853
       829       828       830       829       828       851       830       828       851
       830       832       833       830       832       834       830       832       835
       830       840       838       830       840       841       830       840       845
       831       830       832       831       830       840       832       830       840
       832       835       836       832       835       837       832       835       838
       833       832       834       833       832       835       834       832       835
       835       838       839       835       838       840       835       838       864
       836       835       837       836       835       838       837       835       838
       838       840       841       838       840       845       838       864       865
       838       864       866       838       864       870       839       838       840
       839       838       864       840       838       864       840       841       842
       840       841       843       840       841       844       840       845       846
       840       845       847       840       845       848       841       840       845
       842       841       843       842       841       844       843       841       844
       845       848       849       845       848       850       845       848       851
       846       845       847       846       845       848       847       845       848
       848       851       852       848       851       853       849       848       850
       849       848       851       850       848       851       851       853       854
       851       853       858       852       851       853       853       854       855
       853       854       856       853       854       857       853       858       859
       853       858       860       853       858       861       854       853       858
       855       854       856       855       854       857       856       854       857
       858       861       862       858       861       863       859       858       860
       859       858       861       860       858       861       862       861       863
       864       866       867       864       866       868       864       866       869
       864       870       871       864       870       872       864       870       873
       865       864       866       865       864       870       866       864       870
       867       866       868       867       866       869       868       866       869
       870       873       874       870       873       875       870       873       876
       871       870       872       871       870       873       872       870       873
       873       876       877       873       876       878       873       876       879
       874       873       875       874       873       876       875       873       876
       876       879       880       876       879       881       876       879       885
       877       876       878       877       876       879       878       876       879
       879       881       882       879       881       883       879       881       884
       879       885       886       879       885       887       879       885       888
       880       879       881       880       879       885       881       879       885
       882       881       883       882       881       884       883       881       884
       886       885       887       886       885       888       887       885       888
       889       891       892       889       893       894       889       893       895
       889       893       896       889       935       932       889       935       936
       889       935       937       890       889       891       890       889       893
       890       889       935       891       889       893       891       889       935
       893       889       935       893       896       897       893       896       927
       894       893       895       894       893       896       895       893       896
       896       897       898       896       897       899       896       927       925
       896       927       928       896       927       932       897       896       927
       897       899       900       897       899       901       897       899       902
       898       897       899       899       902       903       899       902       904
       899       902       925       900       899       901       900       899       902
       901       899       902       902       904       905       902       904       906
       902       904       914       902       925       922       902       925       926
       902       925       927       903       902       904       903       902       925
       904       902       925       904       906       907       904       906       908
       904       906       909       904       914       912       904       914       915
       904       914       919       905       904       906       905       904       914
       906       904       914       906       909       910       906       909       911
       906       909       912       907       906       908       907       906       909
       908       906       909       909       912       913       909       912       914
       909       912       938       910       909       911       910       909       912
       911       909       912       912       914       915       912       914       919
       912       938       939       912       938       940       912       938       944
       913       912       914       913       912       938       914       912       938
       914       915       916       914       915       917       914       915       918
       914       919       920       914       919       921       914       919       922
       915       914       919       916       915       917       916       915       918
       917       915       918       919       922       923       919       922       924
       919       922       925       920       919       921       920       919       922
       921       919       922       922       925       926       922       925       927
       923       922       924       923       922       925       924       922       925
       925       927       928       925       927       932       926       925       927
       927       928       929       927       928       930       927       928       931
       927       932       933       927       932       934       927       932       935
       928       927       932       929       928       930       929       928       931
       930       928       931       932       935       936       932       935       937
       933       932       934       933       932       935       934       932       935
       936       935       937       938       940       941       938       940       942
       938       940       943       938       944       945       938       944       946
       938       944       947       939       938       940       939       938       944
       940       938       944       941       940       942       941       940       943
       942       940       943       944       947       948       944       947       949
       944       947       950       945       944       946       945       944       947
       946       944       947       947       950       951       947       950       952
       947       950       953       948       947       949       948       947       950
       949       947       950       950       953       954       950       953       955
       950       953       959       951       950       952       951       950       953
       952       950       953       953       955       956       953       955       957
       953       955       958       953       959       960       953       959       961
       953       959       962       954       953       955       954       953       959
       955       953       959       956       955       957       956       955       958
       957       955       958       960       959       961       960       959       962
       961       959       962       963       965       966       963       967       968
       963       967       969       963       967       970       963      1009      1006
       963      1009      1010       963      1009      1011       964       963       965
       964       963       967       964       963      1009       965       963       967
       965       963      1009       967       963      1009       967       970       971
       967       970      1001       968       967       969       968       967       970
       969       967       970       970       971       972       970       971       973
       970      1001       999       970      1001      1002       970      1001      1006
       971       970      1001       971       973       974       971       973       975
       971       973       976       972       971       973       973       976       977
       973       976       978       973       976       999       974       973       975
       974       973       976       975       973       976       976       978       979
       976       978       980       976       978       988       976       999       996
       976       999      1000       976       999      1001       977       976       978
       977       976       999       978       976       999       978       980       981
       978       980       982       978       980       983       978       988       986
       978       988       989       978       988       993       979       978       980
       979       978       988       980       978       988       980       983       984
       980       983       985       980       983       986       981       980       982
       981       980       983       982       980       983       983       986       987
       983       986       988       983       986      1012       984       983       985
       984       983       986       985       983       986       986       988       989
       986       988       993       986      1012      1013       986      1012      1014
       986      1012      1018       987       986       988       987       986      1012
       988       986      1012       988       989       990       988       989       991
       988       989       992       988       993       994       988       993       995
       988       993       996       989       988       993       990       989       991
       990       989       992       991       989       992       993       996       997
       993       996       998       993       996       999       994       993       995
       994       993       996       995       993       996       996       999      1000
       996       999      1001       997       996       998       997       996       999
       998       996       999       999      1001      1002       999      1001      1006
      1000       999      1001      1001      1002      1003      1001      1002      1004
      1001      1002      1005      1001      1006      1007      1001      1006      1008
      1001      1006      1009      1002      1001      1006      1003      1002      1004
      1003      1002      1005      1004      1002      1005      1006      1009      1010
      1006      1009      1011      1007      1006      1008      1007      1006      1009
      1008      1006      1009      1010      1009      1011      1012      1014      1015
      1012      1014      1016      1012      1014      1017      1012      1018      1019
      1012      1018      1020      1012      1018      1021      1013      1012      1014
      1013      1012      1018      1014      1012      1018      1015      1014      1016
      1015      1014      1017      1016      1014      1017      1018      1021      1022
      1018      1021      1023      1018      1021      1024      1019      1018      1020
      1019      1018      1021      1020      1018      1021      1021      1024      1025
      1021      1024      1026      1021      1024      1027      1022      1021      1023
      1022      1021      1024      1023      1021      1024      1024      1027      1028
      1024      1027      1029      1024      1027      1033      1025      1024      1026
      1025      1024      1027      1026      1024      1027      1027      1029      1030
      1027      1029      1031      1027      1029      1032      1027      1033      1034
      1027      1033      1035      1027      1033      1036      1028      1027      1029
      1028      1027      1033      1029      1027      1033      1030      1029      1031
      1030      1029      1032      1031      1029      1032      1034      1033      1035
      1034      1033      1036      1035      1033      1036      1037      1039      1040
      1037      1041      1042      1037      1041      1043      1037      1041      1044
      1037      1083      1080      1037      1083      1084      1037      1083      1085
      1038      1037      1039      1038      1037      1041      1038      1037      1083
      1039      1037      1041      1039      1037      1083      1041      1037      1083
      1041      1044      1045      1041      1044      1075      1042      1041      1043
      1042      1041      1044      1043      1041      1044      1044      1045      1046
      1044      1045      1047      1044      1075      1073      1044      1075      1076
      1044      1075      1080      1045      1044      1075      1045      1047      1048
      1045      1047      1049      1045      1047      1050      1046      1045      1047
      1047      1050      1051      1047      1050      1052      1047      1050      1073
      1048      1047      1049      1048      1047      1050      1049      1047      1050
      1050      1052      1053      1050      1052      1054      1050      1052      1062
      1050      1073      1070      1050      1073      1074      1050      1073      1075
      1051      1050      1052      1051      1050      1073      1052      1050      1073
      1052      1054      1055      1052      1054      1056      1052      1054      1057
      1052      1062      1060      1052      1062      1063      1052      1062      1067
      1053      1052      1054      1053      1052      1062      1054      1052      1062
      1054      1057      1058      1054      1057      1059      1054      1057      1060
      1055      1054      1056      1055      1054      1057      1056      1054      1057
      1057      1060      1061      1057      1060      1062      1057      1060      1086
      1058      1057      1059      1058      1057      1060      1059      1057      1060
      1060      1062      1063      1060      1062      1067      1060      1086      1087
      1060      1086      1088      1060      1086      1092      1061      1060      1062
      1061      1060      1086      1062      1060      1086      1062      1063      1064
      1062      1063      1065      1062      1063      1066      1062      1067      1068
      1062      1067      1069      1062      1067      1070      1063      1062      1067
      1064      1063      1065      1064      1063      1066      1065      1063      1066
      1067      1070      1071      1067      1070      1072      1067      1070      1073
      1068      1067      1069      1068      1067      1070      1069      1067      1070
      1070      1073      1074      1070      1073      1075      1071      1070      1072
      1071      1070      1073      1072      1070      1073      1073      1075      1076
      1073      1075      1080      1074      1073      1075      1075      1076      1077
      1075      1076      1078      1075      1076      1079      1075      1080      1081
      1075      1080      1082      1075      1080      1083      1076      1075      1080
      1077      1076      1078      1077      1076      1079      1078      1076      1079
      1080      1083      1084      1080      1083      1085      1081      1080      1082
      1081      1080      1083      1082      1080      1083      1084      1083      1085
      1086      1088      1089      1086      1088      1090      1086      1088      1091
      1086      1092      1093      1086      1092      1094      1086      1092      1095
      1087      1086      1088      1087      1086      1092      1088      1086      1092
      1089      1088      1090      1089      1088      1091      1090      1088      1091
      1092      1095      1096      1092      1095      1097      1092      1095      1098
      1093      1092      1094      1093      1092      1095      1094      1092      1095
      1095      1098      1099      1095      1098      1100      1095      1098      1101
      1096      1095      1097      1096      1095      1098      1097      1095      1098
      1098      1101      1102      1098      1101      1103      1098      1101      1107
      1099      1098      1100      1099      1098      1101      1100      1098      1101
      1101      1103      1104      1101      1103      1105      1101      1103      1106
      1101      1107      1108      1101      1107      1109      1101      1107      1110
      1102      1101      1103      1102      1101      1107      1103      1101      1107
      1104      1103      1105      1104      1103      1106      1105      1103      1106
      1108      1107      1109      1108      1107      1110      1109      1107      1110
      1111      1113      1114      1111      1115      1116      1111      1115      1117
      1111      1115      1118      1111      1157      1154      1111      1157      1158
      1111      1157      1159      1112      1111      1113      1112      1111      1115
      1112      1111      1157      1113      1111      1115      1113      1111      1157
      1115      1111      1157      1115      1118      1119      1115      1118      1149
      1116      1115      1117      1116      1115      1118      1117      1115      1118
      1118      1119      1120      1118      1119      1121      1118      1149      1147
      1118      1149      1150      1118      1149      1154      1119      1118      1149
      1119      1121      1122      1119      1121      1123      1119      1121      1124
      1120      1119      1121      1121      1124      1125      1121      1124      1126
      1121      1124      1147      1122      1121      1123      1122      1121      1124
      1123      1121      1124      1124      1126      1127      1124      1126      1128
      1124      1126      1136      1124      1147      1144      1124      1147      1148
      1124      1147      1149      1125      1124      1126      1125      1124      1147
      1126      1124      1147      1126      1128      1129      1126      1128      1130
      1126      1128      1131      1126      1136      1134      1126      1136      1137
      1126      1136      1141      1127      1126      1128      1127      1126      1136
      1128      1126      1136      1128      1131      1132      1128      1131      1133
      1128      1131      1134      1129      1128      1130      1129      1128      1131
      1130      1128      1131      1131      1134      1135      1131      1134      1136
      1131      1134      1160      1132      1131      1133      1132      1131      1134
      1133      1131      1134      1134      1136      1137      1134      1136      1141
      1134      1160      1161      1134      1160      1162      1134      1160      1166
      1135      1134      1136      1135      1134      1160      1136      1134      1160
      1136      1137      1138      1136      1137      1139      1136      1137      1140
      1136      1141      1142      1136      1141      1143      1136      1141      1144
      1137      1136      1141      1138      1137      1139      1138      1137      1140
      1139      1137      1140      1141      1144      1145      1141      1144      1146
      1141      1144      1147      1142      1141      1143      1142      1141      1144
      1143      1141      1144      1144      1147      1148      1144      1147      1149
      1145      1144      1146      1145      1144      1147      1146      1144      1147
      1147      1149      1150      1147      1149      1154      1148      1147      1149
      1149      1150      1151      1149      1150      1152      1149      1150      1153
      1149      1154      1155      1149      1154      1156      1149      1154      1157
      1150      1149      1154      1151      1150      1152      1151      1150      1153
      1152      1150      1153      1154      1157      1158      1154      1157      1159
      1155      1154      1156      1155      1154      1157      1156      1154      1157
      1158      1157      1159      1160      1162      1163      1160      1162      1164
      1160      1162      1165      1160      1166      1167      1160      1166      1168
      1160      1166      1169      1161      1160      1162      1161      1160      1166
      1162      1160      1166      1163      1162      1164      1163      1162      1165
      1164      1162      1165      1166      1169      1170      1166      1169      1171
      1166      1169      1172      1167      1166      1168      1167      1166      1169
      1168      1166      1169      1169      1172      1173      1169      1172      1174
      1169      1172      1175      1170      1169      1171      1170      1169      1172
      1171      1169      1172      1172      1175      1176      1172      1175      1177
      1172      1175      1181      1173      1172      1174      1173      1172      1175
      1174      1172      1175      1175      1177      1178      1175      1177      1179
      1175      1177      1180      1175      1181      1182      1175      1181      1183
      1175      1181      1184      1176      1175      1177      1176      1175      1181
      1177      1175      1181      1178      1177      1179      1178      1177      1180
      1179      1177      1180      1182      1181      1183      1182      1181      1184
      1183      1181      1184      1185      1187      1188      1185      1189      1190
      1185      1189      1191      1185      1189      1192      1185      1231      1228
      1185      1231      1232      1185      1231      1233      1186      1185      1187
      1186      1185      1189      1186      1185      1231      1187      1185      1189
      1187      1185      1231      1189      1185      1231      1189      1192      1193
      1189      1192      1223      1190      1189      1191      1190      1189      1192
      1191      1189      1192      1192      1193      1194      1192      1193      1195
      1192      1223      1221      1192      1223      1224      1192      1223      1228
      1193      1192      1223      1193      1195      1196      1193      1195      1197
      1193      1195      1198      1194      1193      1195      1195      1198      1199
      1195      1198      1200      1195      1198      1221      1196      1195      1197
      1196      1195      1198      1197      1195      1198      1198      1200      1201
      1198      1200      1202      1198      1200      1210      1198      1221      1218
      1198      1221      1222      1198      1221      1223      1199      1198      1200
      1199      1198      1221      1200      1198      1221      1200      1202      1203
      1200      1202      1204      1200      1202      1205      1200      1210      1208
      1200      1210      1211      1200      1210      1215      1201      1200      1202
      1201      1200      1210      1202      1200      1210      1202      1205      1206
      1202      1205      1207      1202      1205      1208      1203      1202      1204
      1203      1202      1205      1204      1202      1205      1205      1208      1209
      1205      1208      1210      1205      1208      1234      1206      1205      1207
      1206      1205      1208      1207      1205      1208      1208      1210      1211
      1208      1210      1215      1208      1234      1235      1208      1234      1236
      1208      1234      1240      1209      1208      1210      1209      1208      1234
      1210      1208      1234      1210      1211      1212      1210      1211      1213
      1210      1211      1214      1210      1215      1216      1210      1215      1217
      1210      1215      1218      1211      1210      1215      1212      1211      1213
      1212      1211      1214      1213      1211      1214      1215      1218      1219
      1215      1218      1220      1215      1218      1221      1216      1215      1217
      1216      1215      1218      1217      1215      1218      1218      1221      1222
      1218      1221      1223      1219      1218      1220      1219      1218      1221
      1220      1218      1221      1221      1223      1224      1221      1223      1228
      1222      1221      1223      1223      1224      1225      1223      1224      1226
      1223      1224      1227      1223      1228      1229      1223      1228      1230
      1223      1228      1231      1224      1223      1228      1225      1224      1226
      1225      1224      1227      1226      1224      1227      1228      1231      1232
      1228      1231      1233      1229      1228      1230      1229      1228      1231
      1230      1228      1231      1232      1231      1233      1234      1236      1237
      1234      1236      1238      1234      1236      1239      1234      1240      1241
      1234      1240      1242      1234      1240      1243      1235      1234      1236
      1235      1234      1240      1236      1234      1240      1237      1236      1238
      1237      1236      1239      1238      1236      1239      1240      1243      1244
      1240      1243      1245      1240      1243      1246      1241      1240      1242
      1241      1240      1243      1242      1240      1243      1243      1246      1247
      1243      1246      1248      1243      1246      1249      1244      1243      1245
      1244      1243      1246      1245      1243      1246      1246      1249      1250
      1246      1249      1251      1246      1249      1255      1247      1246      1248
      1247      1246      1249      1248      1246      1249      1249      1251      1252
      1249      1251      1253      1249      1251      1254      1249      1255      1256
      1249      1255      1257      1249      1255      1258      1250      1249      1251
      1250      1249      1255      1251      1249      1255      1252      1251      1253
      1252      1251      1254      1253      1251      1254      1256      1255      1257
      1256      1255      1258      1257      1255      1258      1259      1261      1262
      1259      1263      1264      1259      1263      1265      1259      1263      1266
      1259      1305      1302      1259      1305      1306      1259      1305      1307
      1260      1259      1261      1260      1259      1263      1260      1259      1305
      1261      1259      1263      1261      1259      1305      1263      1259      1305
      1263      1266      1267      1263      1266      1297      1264      1263      1265
      1264      1263      1266      1265      1263      1266      1266      1267      1268
      1266      1267      1269      1266      1297      1295      1266      1297      1298
      1266      1297      1302      1267      1266      1297      1267      1269      1270
      1267      1269      1271      1267      1269      1272      1268      1267      1269
      1269      1272      1273      1269      1272      1274      1269      1272      1295
      1270      1269      1271      1270      1269      1272      1271      1269      1272
      1272      1274      1275      1272      1274      1276      1272      1274      1284
      1272      1295      1292      1272      1295      1296      1272      1295      1297
      1273      1272      1274      1273      1272      1295      1274      1272      1295
      1274      1276      1277      1274      1276      1278      1274      1276      1279
      1274      1284      1282      1274      1284      1285      1274      1284      1289
      1275      1274      1276      1275      1274      1284      1276      1274      1284
      1276      1279      1280      1276      1279      1281      1276      1279      1282
      1277      1276      1278      1277      1276      1279      1278      1276      1279
      1279      1282      1283      1279      1282      1284      1279      1282      1308
      1280      1279      1281      1280      1279      1282      1281      1279      1282
      1282      1284      1285      1282      1284      1289      1282      1308      1309
      1282      1308      1310      1282      1308      1314      1283      1282      1284
      1283      1282      1308      1284      1282      1308      1284      1285      1286
      1284      1285      1287      1284      1285      1288      1284      1289      1290
      1284      1289      1291      1284      1289      1292      1285      1284      1289
      1286      1285      1287      1286      1285      1288      1287      1285      1288
      1289      1292      1293      1289      1292      1294      1289      1292      1295
      1290      1289      1291      1290      1289      1292      1291      1289      1292
      1292      1295      1296      1292      1295      1297      1293      1292      1294
      1293      1292      1295      1294      1292      1295      1295      1297      1298
      1295      1297      1302      1296      1295      1297      1297      1298      1299
      1297      1298      1300      1297      1298      1301      1297      1302      1303
      1297      1302      1304      1297      1302      1305      1298      1297      1302
      1299      1298      1300      1299      1298      1301      1300      1298      1301
      1302      1305      1306      1302      1305      1307      1303      1302      1304
      1303      1302      1305      1304      1302      1305      1306      1305      1307
      1308      1310      1311      1308      1310      1312      1308      1310      1313
      1308      1314      1315      1308      1314      1316      1308      1314      1317
      1309      1308      1310      1309      1308      1314      1310      1308      1314
      1311      1310      1312      1311      1310      1313      1312      1310      1313
      1314      1317      1318      1314      1317      1319      1314      1317      1320
      1315      1314      1316      1315      1314      1317      1316      1314      1317
      1317      1320      1321      1317      1320      1322      1317      1320      1323
      1318      1317      1319      1318      1317      1320      1319      1317      1320
      1320      1323      1324      1320      1323      1325      1320      1323      1329
      1321      1320      1322      1321      1320      1323      1322      1320      1323
      1323      1325      1326      1323      1325      1327      1323      1325      1328
      1323      1329      1330      1323      1329      1331      1323      1329      1332
      1324      1323      1325      1324      1323      1329      1325      1323      1329
      1326      1325      1327      1326      1325      1328      1327      1325      1328
      1330      1329      1331      1330      1329      1332      1331      1329      1332
      1333      1335      1336      1333      1337      1338      1333      1337      1339
      1333      1337      1340      1333      1379      1376      1333      1379      1380
      1333      1379      1381      1334      1333      1335      1334      1333      1337
      1334      1333      1379      1335      1333      1337      1335      1333      1379
      1337      1333      1379      1337      1340      1341      1337      1340      1371
      1338      1337      1339      1338      1337      1340      1339      1337      1340
      1340      1341      1342      1340      1341      1343      1340      1371      1369
      1340      1371      1372      1340      1371      1376      1341      1340      1371
      1341      1343      1344      1341      1343      1345      1341      1343      1346
      1342      1341      1343      1343      1346      1347      1343      1346      1348
      1343      1346      1369      1344      1343      1345      1344      1343      1346
      1345      1343      1346      1346      1348      1349      1346      1348      1350
      1346      1348      1358      1346      1369      1366      1346      1369      1370
      1346      1369      1371      1347      1346      1348      1347      1346      1369
      1348      1346      1369      1348      1350      1351      1348      1350      1352
      1348      1350      1353      1348      1358      1356      1348      1358      1359
      1348      1358      1363      1349      1348      1350      1349      1348      1358
      1350      1348      1358      1350      1353      1354      1350      1353      1355
      1350      1353      1356      1351      1350      1352      1351      1350      1353
      1352      1350      1353      1353      1356      1357      1353      1356      1358
      1353      1356      1382      1354      1353      1355      1354      1353      1356
      1355      1353      1356      1356      1358      1359      1356      1358      1363
      1356      1382      1383      1356      1382      1384      1356      1382      1388
      1357      1356      1358      1357      1356      1382      1358      1356      1382
      1358      1359      1360      1358      1359      1361      1358      1359      1362
      1358      1363      1364      1358      1363      1365      1358      1363      1366
      1359      1358      1363      1360      1359      1361      1360      1359      1362
      1361      1359      1362      1363      1366      1367      1363      1366      1368
      1363      1366      1369      1364      1363      1365      1364      1363      1366
      1365      1363      1366      1366      1369      1370      1366      1369      1371
      1367      1366      1368      1367      1366      1369      1368      1366      1369
      1369      1371      1372      1369      1371      1376      1370      1369      1371
      1371      1372      1373      1371      1372      1374      1371      1372      1375
      1371      1376      1377      1371      1376      1378      1371      1376      1379
      1372      1371      1376      1373      1372      1374      1373      1372      1375
      1374      1372      1375      1376      1379      1380      1376      1379      1381
      1377      1376      1378      1377      1376      1379      1378      1376      1379
      1380      1379      1381      1382      1384      1385      1382      1384      1386
      1382      1384      1387      1382      1388      1389      1382      1388      1390
      1382      1388      1391      1383      1382      1384      1383      1382      1388
      1384      1382      1388      1385      1384      1386      1385      1384      1387
      1386      1384      1387      1388      1391      1392      1388      1391      1393
      1388      1391      1394      1389      1388      1390      1389      1388      1391
      1390      1388      1391      1391      1394      1395      1391      1394      1396
      1391      1394      1397      1392      1391      1393      1392      1391      1394
      1393      1391      1394      1394      1397      1398      1394      1397      1399
      1394      1397      1403      1395      1394      1396      1395      1394      1397
      1396      1394      1397      1397      1399      1400      1397      1399      1401
      1397      1399      1402      1397      1403      1404      1397      1403      1405
      1397      1403      1406      1398      1397      1399      1398      1397      1403
      1399      1397      1403      1400      1399      1401      1400      1399      1402
      1401      1399      1402      1404      1403      1405      1404      1403      1406
      1405      1403      1406      1407      1409      1410      1407      1411      1412
      1407      1411      1413      1407      1411      1414      1407      1453      1450
      1407      1453      1454      1407      1453      1455      1408      1407      1409
      1408      1407      1411      1408      1407      1453      1409      1407      1411
      1409      1407      1453      1411      1407      1453      1411      1414      1415
      1411      1414      1445      1412      1411      1413      1412      1411      1414
      1413      1411      1414      1414      1415      1416      1414      1415      1417
      1414      1445      1443      1414      1445      1446      1414      1445      1450
      1415      1414      1445      1415      1417      1418      1415      1417      1419
      1415      1417      1420      1416      1415      1417      1417      1420      1421
      1417      1420      1422      1417      1420      1443      1418      1417      1419
      1418      1417      1420      1419      1417      1420      1420      1422      1423
      1420      1422      1424      1420      1422      1432      1420      1443      1440
      1420      1443      1444      1420      1443      1445      1421      1420      1422
      1421      1420      1443      1422      1420      1443      1422      1424      1425
      1422      1424      1426      1422      1424      1427      1422      1432      1430
      1422      1432      1433      1422      1432      1437      1423      1422      1424
      1423      1422      1432      1424      1422      1432      1424      1427      1428
      1424      1427      1429      1424      1427      1430      1425      1424      1426
      1425      1424      1427      1426      1424      1427      1427      1430      1431
      1427      1430      1432      1427      1430      1456      1428      1427      1429
      1428      1427      1430      1429      1427      1430      1430      1432      1433
      1430      1432      1437      1430      1456      1457      1430      1456      1458
      1430      1456      1462      1431      1430      1432      1431      1430      1456
      1432      1430      1456      1432      1433      1434      1432      1433      1435
      1432      1433      1436      1432      1437      1438      1432      1437      1439
      1432      1437      1440      1433      1432      1437      1434      1433      1435
      1434      1433      1436      1435      1433      1436      1437      1440      1441
      1437      1440      1442      1437      1440      1443      1438      1437      1439
      1438      1437      1440      1439      1437      1440      1440      1443      1444
      1440      1443      1445      1441      1440      1442      1441      1440      1443
      1442      1440      1443      1443      1445      1446      1443      1445      1450
      1444      1443      1445      1445      1446      1447      1445      1446      1448
      1445      1446      1449      1445      1450      1451      1445      1450      1452
      1445      1450      1453      1446      1445      1450      1447      1446      1448
      1447      1446      1449      1448      1446      1449      1450      1453      1454
      1450      1453      1455      1451      1450      1452      1451      1450      1453
      1452      1450      1453      1454      1453      1455      1456      1458      1459
      1456      1458      1460      1456      1458      1461      1456      1462      1463
      1456      1462      1464      1456      1462      1465      1457      1456      1458
      1457      1456      1462      1458      1456      1462      1459      1458      1460
      1459      1458      1461      1460      1458      1461      1462      1465      1466
      1462      1465      1467      1462      1465      1468      1463      1462      1464
      1463      1462      1465      1464      1462      1465      1465      1468      1469
      1465      1468      1470      1465      1468      1471      1466      1465      1467
      1466      1465      1468      1467      1465      1468      1468      1471      1472
      1468      1471      1473      1468      1471      1477      1469      1468      1470
      1469      1468      1471      1470      1468      1471      1471      1473      1474
      1471      1473      1475      1471      1473      1476      1471      1477      1478
      1471      1477      1479      1471      1477      1480      1472      1471      1473
      1472      1471      1477      1473      1471      1477      1474      1473      1475
      1474      1473      1476      1475      1473      1476      1478      1477      1479
      1478      1477      1480      1479      1477      1480      1481      1483      1484
      1481      1485      1486      1481      1485      1487      1481      1485      1488
      1481      1527      1524      1481      1527      1528      1481      1527      1529
      1482      1481      1483      1482      1481      1485      1482      1481      1527
      1483      1481      1485      1483      1481      1527      1485      1481      1527
      1485      1488      1489      1485      1488      1519      1486      1485      1487
      1486      1485      1488      1487      1485      1488      1488      1489      1490
      1488      1489      1491      1488      1519      1517      1488      1519      1520
      1488      1519      1524      1489      1488      1519      1489      1491      1492
      1489      1491      1493      1489      1491      1494      1490      1489      1491
      1491      1494      1495      1491      1494      1496      1491      1494      1517
      1492      1491      1493      1492      1491      1494      1493      1491      1494
      1494      1496      1497      1494      1496      1498      1494      1496      1506
      1494      1517      1514      1494      1517      1518      1494      1517      1519
      1495      1494      1496      1495      1494      1517      1496      1494      1517
      1496      1498      1499      1496      1498      1500      1496      1498      1501
      1496      1506      1504      1496      1506      1507      1496      1506      1511
      1497      1496      1498      1497      1496      1506      1498      1496      1506
      1498      1501      1502      1498      1501      1503      1498      1501      1504
      1499      1498      1500      1499      1498      1501      1500      1498      1501
      1501      1504      1505      1501      1504      1506      1501      1504      1530
      1502      1501      1503      1502      1501      1504      1503      1501      1504
      1504      1506      1507      1504      1506      1511      1504      1530      1531
      1504      1530      1532      1504      1530      1536      1505      1504      1506
      1505      1504      1530      1506      1504      1530      1506      1507      1508
      1506      1507      1509      1506      1507      1510      1506      1511      1512
      1506      1511      1513      1506      1511      1514      1507      1506      1511
      1508      1507      1509      1508      1507      1510      1509      1507      1510
      1511      1514      1515      1511      1514      1516      1511      1514      1517
      1512      1511      1513      1512      1511      1514      1513      1511      1514
      1514      1517      1518      1514      1517      1519      1515      1514      1516
      1515      1514      1517      1516      1514      1517      1517      1519      1520
      1517      1519      1524      1518      1517      1519      1519      1520      1521
      1519      1520      1522      1519      1520      1523      1519      1524      1525
      1519      1524      1526      1519      1524      1527      1520      1519      1524
      1521      1520      1522      1521      1520      1523      1522      1520      1523
      1524      1527      1528      1524      1527      1529      1525      1524      1526
      1525      1524      1527      1526      1524      1527      1528      1527      1529
      1530      1532      1533      1530      1532      1534      1530      1532      1535
      1530      1536      1537      1530      1536      1538      1530      1536      1539
      1531      1530      1532      1531      1530      1536      1532      1530      1536
      1533      1532      1534      1533      1532      1535      1534      1532      1535
      1536      1539      1540      1536      1539      1541      1536      1539      1542
      1537      1536      1538      1537      1536      1539      1538      1536      1539
      1539      1542      1543      1539      1542      1544      1539      1542      1545
      1540      1539      1541      1540      1539      1542      1541      1539      1542
      1542      1545      1546      1542      1545      1547      1542      1545      1551
      1543      1542      1544      1543      1542      1545      1544      1542      1545
      1545      1547      1548      1545      1547      1549      1545      1547      1550
      1545      1551      1552      1545      1551      1553      1545      1551      1554
      1546      1545      1547      1546      1545      1551      1547      1545      1551
      1548      1547      1549      1548      1547      1550      1549      1547      1550
      1552      1551      1553      1552      1551      1554      1553      1551      1554
      1555      1557      1558      1555      1559      1560      1555      1559      1561
      1555      1559      1562      1555      1601      1598      1555      1601      1602
      1555      1601      1603      1556      1555      1557      1556      1555      1559
      1556      1555      1601      1557      1555      1559      1557      1555      1601
      1559      1555      1601      1559      1562      1563      1559      1562      1593
      1560      1559      1561      1560      1559      1562      1561      1559      1562
      1562      1563      1564      1562      1563      1565      1562      1593      1591
      1562      1593      1594      1562      1593      1598      1563      1562      1593
      1563      1565      1566      1563      1565      1567      1563      1565      1568
      1564      1563      1565      1565      1568      1569      1565      1568      1570
      1565      1568      1591      1566      1565      1567      1566      1565      1568
      1567      1565      1568      1568      1570      1571      1568      1570      1572
      1568      1570      1580      1568      1591      1588      1568      1591      1592
      1568      1591      1593      1569      1568      1570      1569      1568      1591
      1570      1568      1591      1570      1572      1573      1570      1572      1574
      1570      1572      1575      1570      1580      1578      1570      1580      1581
      1570      1580      1585      1571      1570      1572      1571      1570      1580
      1572      1570      1580      1572      1575      1576      1572      1575      1577
      1572      1575      1578      1573      1572      1574      1573      1572      1575
      1574      1572      1575      1575      1578      1579      1575      1578      1580
      1575      1578      1604      1576      1575      1577      1576      1575      1578
      1577      1575      1578      1578      1580      1581      1578      1580      1585
      1578      1604      1605      1578      1604      1606      1578      1604      1610
      1579      1578      1580      1579      1578      1604      1580      1578      1604
      1580      1581      1582      1580      1581      1583      1580      1581      1584
      1580      1585      1586      1580      1585      1587      1580      1585      1588
      1581      1580      1585      1582      1581      1583      1582      1581      1584
      1583      1581      1584      1585      1588      1589      1585      1588      1590
      1585      1588      1591      1586      1585      1587      1586      1585      1588
      1587      1585      1588      1588      1591      1592      1588      1591      1593
      1589      1588      1590      1589      1588      1591      1590      1588      1591
      1591      1593      1594      1591      1593      1598      1592      1591      1593
      1593      1594      1595      1593      1594      1596      1593      1594      1597
      1593      1598      1599      1593      1598      1600      1593      1598      1601
      1594      1593      1598      1595      1594      1596      1595      1594      1597
      1596      1594      1597      1598      1601      1602      1598      1601      1603
      1599      1598      1600      1599      1598      1601      1600      1598      1601
      1602      1601      1603      1604      1606      1607      1604      1606      1608
      1604      1606      1609      1604      1610      1611      1604      1610      1612
      1604      1610      1613      1605      1604      1606      1605      1604      1610
      1606      1604      1610      1607      1606      1608      1607      1606      1609
      1608      1606      1609      1610      1613      1614      1610      1613      1615
      1610      1613      1616      1611      1610      1612      1611      1610      1613
      1612      1610      1613      1613      1616      1617      1613      1616      1618
      1613      1616      1619      1614      1613      1615      1614      1613      1616
      1615      1613      1616      1616      1619      1620      1616      1619      1621
      1616      1619      1625      1617      1616      1618      1617      1616      1619
      1618      1616      1619      1619      1621      1622      1619      1621      1623
      1619      1621      1624      1619      1625      1626      1619      1625      1627
      1619      1625      1628      1620      1619      1621      1620      1619      1625
      1621      1619      1625      1622      1621      1623      1622      1621      1624
      1623      1621      1624      1626      1625      1627      1626      1625      1628
      1627      1625      1628      1629      1631      1632      1629      1633      1634
      1629      1633      1635      1629      1633      1636      1629      1675      1672
      1629      1675      1676      1629      1675      1677      1630      1629      1631
      1630      1629      1633      1630      1629      1675      1631      1629      1633
      1631      1629      1675      1633      1629      1675      1633      1636      1637
      1633      1636      1667      1634      1633      1635      1634      1633      1636
      1635      1633      1636      1636      1637      1638      1636      1637      1639
      1636      1667      1665      1636      1667      1668      1636      1667      1672
      1637      1636      1667      1637      1639      1640      1637      1639      1641
      1637      1639      1642      1638      1637      1639      1639      1642      1643
      1639      1642      1644      1639      1642      1665      1640      1639      1641
      1640      1639      1642      1641      1639      1642      1642      1644      1645
      1642      1644      1646      1642      1644      1654      1642      1665      1662
      1642      1665      1666      1642      1665      1667      1643      1642      1644
      1643      1642      1665      1644      1642      1665      1644      1646      1647
      1644      1646      1648      1644      1646      1649      1644      1654      1652
      1644      1654      1655      1644      1654      1659      1645      1644      1646
      1645      1644      1654      1646      1644      1654      1646      1649      1650
      1646      1649      1651      1646      1649      1652      1647      1646      1648
      1647      1646      1649      1648      1646      1649      1649      1652      1653
      1649      1652      1654      1649      1652      1678      1650      1649      1651
      1650      1649      1652      1651      1649      1652      1652      1654      1655
      1652      1654      1659      1652      1678      1679      1652      1678      1680
      1652      1678      1684      1653      1652      1654      1653      1652      1678
      1654      1652      1678      1654      1655      1656      1654      1655      1657
      1654      1655      1658      1654      1659      1660      1654      1659      1661
      1654      1659      1662      1655      1654      1659      1656      1655      1657
      1656      1655      1658      1657      1655      1658      1659      1662      1663
      1659      1662      1664      1659      1662      1665      1660      1659      1661
      1660      1659      1662      1661      1659      1662      1662      1665      1666
      1662      1665      1667      1663      1662      1664      1663      1662      1665
      1664      1662      1665      1665      1667      1668      1665      1667      1672
      1666      1665      1667      1667      1668      1669      1667      1668      1670
      1667      1668      1671      1667      1672      1673      1667      1672      1674
      1667      1672      1675      1668      1667      1672      1669      1668      1670
      1669      1668      1671      1670      1668      1671      1672      1675      1676
      1672      1675      1677      1673      1672      1674      1673      1672      1675
      1674      1672      1675      1676      1675      1677      1678      1680      1681
      1678      1680      1682      1678      1680      1683      1678      1684      1685
      1678      1684      1686      1678      1684      1687      1679      1678      1680
      1679      1678      1684      1680      1678      1684      1681      1680      1682
      1681      1680      1683      1682      1680      1683      1684      1687      1688
      1684      1687      1689      1684      1687      1690      1685      1684      1686
      1685      1684      1687      1686      1684      1687      1687      1690      1691
      1687      1690      1692      1687      1690      1693      1688      1687      1689
      1688      1687      1690      1689      1687      1690      1690      1693      1694
      1690      1693      1695      1690      1693      1699      1691      1690      1692
      1691      1690      1693      1692      1690      1693      1693      1695      1696
      1693      1695      1697      1693      1695      1698      1693      1699      1700
      1693      1699      1701      1693      1699      1702      1694      1693      1695
      1694      1693      1699      1695      1693      1699      1696      1695      1697
      1696      1695      1698      1697      1695      1698      1700      1699      1701
      1700      1699      1702      1701      1699      1702      1703      1705      1706
      1703      1707      1708      1703      1707      1709      1703      1707      1710
      1703      1749      1746      1703      1749      1750      1703      1749      1751
      1704      1703      1705      1704      1703      1707      1704      1703      1749
      1705      1703      1707      1705      1703      1749      1707      1703      1749
      1707      1710      1711      1707      1710      1741      1708      1707      1709
      1708      1707      1710      1709      1707      1710      1710      1711      1712
      1710      1711      1713      1710      1741      1739      1710      1741      1742
      1710      1741      1746      1711      1710      1741      1711      1713      1714
      1711      1713      1715      1711      1713      1716      1712      1711      1713
      1713      1716      1717      1713      1716      1718      1713      1716      1739
      1714      1713      1715      1714      1713      1716      1715      1713      1716
      1716      1718      1719      1716      1718      1720      1716      1718      1728
      1716      1739      1736      1716      1739      1740      1716      1739      1741
      1717      1716      1718      1717      1716      1739      1718      1716      1739
      1718      1720      1721      1718      1720      1722      1718      1720      1723
      1718      1728      1726      1718      1728      1729      1718      1728      1733
      1719      1718      1720      1719      1718      1728      1720      1718      1728
      1720      1723      1724      1720      1723      1725      1720      1723      1726
      1721      1720      1722      1721      1720      1723      1722      1720      1723
      1723      1726      1727      1723      1726      1728      1723      1726      1752
      1724      1723      1725      1724      1723      1726      1725      1723      1726
      1726      1728      1729      1726      1728      1733      1726      1752      1753
      1726      1752      1754      1726      1752      1758      1727      1726      1728
      1727      1726      1752      1728      1726      1752      1728      1729      1730
      1728      1729      1731      1728      1729      1732      1728      1733      1734
      1728      1733      1735      1728      1733      1736      1729      1728      1733
      1730      1729      1731      1730      1729      1732      1731      1729      1732
      1733      1736      1737      1733      1736      1738      1733      1736      1739
      1734      1733      1735      1734      1733      1736      1735      1733      1736
      1736      1739      1740      1736      1739      1741      1737      1736      1738
      1737      1736      1739      1738      1736      1739      1739      1741      1742
      1739      1741      1746      1740      1739      1741      1741      1742      1743
      1741      1742      1744      1741      1742      1745      1741      1746      1747
      1741      1746      1748      1741      1746      1749      1742      1741      1746
      1743      1742      1744      1743      1742      1745      1744      1742      1745
      1746      1749      1750      1746      1749      1751      1747      1746      1748
      1747      1746      1749      1748      1746      1749      1750      1749      1751
      1752      1754      1755      1752      1754      1756      1752      1754      1757
      1752      1758      1759      1752      1758      1760      1752      1758      1761
      1753      1752      1754      1753      1752      1758      1754      1752      1758
      1755      1754      1756      1755      1754      1757      1756      1754      1757
      1758      1761      1762      1758      1761      1763      1758      1761      1764
      1759      1758      1760      1759      1758      1761      1760      1758      1761
      1761      1764      1765      1761      1764      1766      1761      1764      1767
      1762      1761      1763      1762      1761      1764      1763      1761      1764
      1764      1767      1768      1764      1767      1769      1764      1767      1773
      1765      1764      1766      1765      1764      1767      1766      1764      1767
      1767      1769      1770      1767      1769      1771      1767      1769      1772
      1767      1773      1774      1767      1773      1775      1767      1773      1776
      1768      1767      1769      1768      1767      1773      1769      1767      1773
      1770      1769      1771      1770      1769      1772      1771      1769      1772
      1774      1773      1775      1774      1773      1776      1775      1773      1776
      1777      1779      1780      1777      1781      1782      1777      1781      1783
      1777      1781      1784      1777      1823      1820      1777      1823      1824
      1777      1823      1825      1778      1777      1779      1778      1777      1781
      1778      1777      1823      1779      1777      1781      1779      1777      1823
      1781      1777      1823      1781      1784      1785      1781      1784      1815
      1782      1781      1783      1782      1781      1784      1783      1781      1784
      1784      1785      1786      1784      1785      1787      1784      1815      1813
      1784      1815      1816      1784      1815      1820      1785      1784      1815
      1785      1787      1788      1785      1787      1789      1785      1787      1790
      1786      1785      1787      1787      1790      1791      1787      1790      1792
      1787      1790      1813      1788      1787      1789      1788      1787      1790
      1789      1787      1790      1790      1792      1793      1790      1792      1794
      1790      1792      1802      1790      1813      1810      1790      1813      1814
      1790      1813      1815      1791      1790      1792      1791      1790      1813
      1792      1790      1813      1792      1794      1795      1792      1794      1796
      1792      1794      1797      1792      1802      1800      1792      1802      1803
      1792      1802      1807      1793      1792      1794      1793      1792      1802
      1794      1792      1802      1794      1797      1798      1794      1797      1799
      1794      1797      1800      1795      1794      1796      1795      1794      1797
      1796      1794      1797      1797      1800      1801      1797      1800      1802
      1797      1800      1826      1798      1797      1799      1798      1797      1800
      1799      1797      1800      1800      1802      1803      1800      1802      1807
      1800      1826      1827      1800      1826      1828      1800      1826      1832
      1801      1800      1802      1801      1800      1826      1802      1800      1826
      1802      1803      1804      1802      1803      1805      1802      1803      1806
      1802      1807      1808      1802      1807      1809      1802      1807      1810
      1803      1802      1807      1804      1803      1805      1804      1803      1806
      1805      1803      1806      1807      1810      1811      1807      1810      1812
      1807      1810      1813      1808      1807      1809      1808      1807      1810
      1809      1807      1810      1810      1813      1814      1810      1813      1815
      1811      1810      1812      1811      1810      1813      1812      1810      1813
      1813      1815      1816      1813      1815      1820      1814      1813      1815
      1815      1816      1817      1815      1816      1818      1815      1816      1819
      1815      1820      1821      1815      1820      1822      1815      1820      1823
      1816      1815      1820      1817      1816      1818      1817      1816      1819
      1818      1816      1819      1820      1823      1824      1820      1823      1825
      1821      1820      1822      1821      1820      1823      1822      1820      1823
      1824      1823      1825      1826      1828      1829      1826      1828      1830
      1826      1828      1831      1826      1832      1833      1826      1832      1834
      1826      1832      1835      1827      1826      1828      1827      1826      1832
      1828      1826      1832      1829      1828      1830      1829      1828      1831
      1830      1828      1831      1832      1835      1836      1832      1835      1837
      1832      1835      1838      1833      1832      1834      1833      1832      1835
      1834      1832      1835      1835      1838      1839      1835      1838      1840
      1835      1838      1841      1836      1835      1837      1836      1835      1838
      1837      1835      1838      1838      1841      1842      1838      1841      1843
      1838      1841      1847      1839      1838      1840      1839      1838      1841
      1840      1838      1841      1841      1843      1844      1841      1843      1845
      1841      1843      1846      1841      1847      1848      1841      1847      1849
      1841      1847      1850      1842      1841      1843      1842      1841      1847
      1843      1841      1847      1844      1843      1845      1844      1843      1846
      1845      1843      1846      1848      1847      1849      1848      1847      1850
      1849      1847      1850      1851      1853      1854      1851      1855      1856
      1851      1855      1857      1851      1855      1858      1851      1897      1894
      1851      1897      1898      1851      1897      1899      1852      1851      1853
      1852      1851      1855      1852      1851      1897      1853      1851      1855
      1853      1851      1897      1855      1851      1897      1855      1858      1859
      1855      1858      1889      1856      1855      1857      1856      1855      1858
      1857      1855      1858      1858      1859      1860      1858      1859      1861
      1858      1889      1887      1858      1889      1890      1858      1889      1894
      1859      1858      1889      1859      1861      1862      1859      1861      1863
      1859      1861      1864      1860      1859      1861      1861      1864      1865
      1861      1864      1866      1861      1864      1887      1862      1861      1863
      1862      1861      1864      1863      1861      1864      1864      1866      1867
      1864      1866      1868      1864      1866      1876      1864      1887      1884
      1864      1887      1888      1864      1887      1889      1865      1864      1866
      1865      1864      1887      1866      1864      1887      1866      1868      1869
      1866      1868      1870      1866      1868      1871      1866      1876      1874
      1866      1876      1877      1866      1876      1881      1867      1866      1868
      1867      1866      1876      1868      1866      1876      1868      1871      1872
      1868      1871      1873      1868      1871      1874      1869      1868      1870
      1869      1868      1871      1870      1868      1871      1871      1874      1875
      1871      1874      1876      1871      1874      1900      1872      1871      1873
      1872      1871      1874      1873      1871      1874      1874      1876      1877
      1874      1876      1881      1874      1900      1901      1874      1900      1902
      1874      1900      1906      1875      1874      1876      1875      1874      1900
      1876      1874      1900      1876      1877      1878      1876      1877      1879
      1876      1877      1880      1876      1881      1882      1876      1881      1883
      1876      1881      1884      1877      1876      1881      1878      1877      1879
      1878      1877      1880      1879      1877      1880      1881      1884      1885
      1881      1884      1886      1881      1884      1887      1882      1881      1883
      1882      1881      1884      1883      1881      1884      1884      1887      1888
      1884      1887      1889      1885      1884      1886      1885      1884      1887
      1886      1884      1887      1887      1889      1890      1887      1889      1894
      1888      1887      1889      1889      1890      1891      1889      1890      1892
      1889      1890      1893      1889      1894      1895      1889      1894      1896
      1889      1894      1897      1890      1889      1894      1891      1890      1892
      1891      1890      1893      1892      1890      1893      1894      1897      1898
      1894      1897      1899      1895      1894      1896      1895      1894      1897
      1896      1894      1897      1898      1897      1899      1900      1902      1903
      1900      1902      1904      1900      1902      1905      1900      1906      1907
      1900      1906      1908      1900      1906      1909      1901      1900      1902
      1901      1900      1906      1902      1900      1906      1903      1902      1904
      1903      1902      1905      1904      1902      1905      1906      1909      1910
      1906      1909      1911      1906      1909      1912      1907      1906      1908
      1907      1906      1909      1908      1906      1909      1909      1912      1913
      1909      1912      1914      1909      1912      1915      1910      1909      1911
      1910      1909      1912      1911      1909      1912      1912      1915      1916
      1912      1915      1917      1912      1915      1921      1913      1912      1914
      1913      1912      1915      1914      1912      1915      1915      1917      1918
      1915      1917      1919      1915      1917      1920      1915      1921      1922
      1915      1921      1923      1915      1921      1924      1916      1915      1917
      1916      1915      1921      1917      1915      1921      1918      1917      1919
      1918      1917      1920      1919      1917      1920      1922      1921      1923
      1922      1921      1924      1923      1921      1924      1925      1927      1928
      1925      1929      1930      1925      1929      1931      1925      1929      1932
      1925      1971      1968      1925      1971      1972      1925      1971      1973
      1926      1925      1927      1926      1925      1929      1926      1925      1971
      1927      1925      1929      1927      1925      1971      1929      1925      1971
      1929      1932      1933      1929      1932      1963      1930      1929      1931
      1930      1929      1932      1931      1929      1932      1932      1933      1934
      1932      1933      1935      1932      1963      1961      1932      1963      1964
      1932      1963      1968      1933      1932      1963      1933      1935      1936
      1933      1935      1937      1933      1935      1938      1934      1933      1935
      1935      1938      1939      1935      1938      1940      1935      1938      1961
      1936      1935      1937      1936      1935      1938      1937      1935      1938
      1938      1940      1941      1938      1940      1942      1938      1940      1950
      1938      1961      1958      1938      1961      1962      1938      1961      1963
      1939      1938      1940      1939      1938      1961      1940      1938      1961
      1940      1942      1943      1940      1942      1944      1940      1942      1945
      1940      1950      1948      1940      1950      1951      1940      1950      1955
      1941      1940      1942      1941      1940      1950      1942      1940      1950
      1942      1945      1946      1942      1945      1947      1942      1945      1948
      1943      1942      1944      1943      1942      1945      1944      1942      1945
      1945      1948      1949      1945      1948      1950      1945      1948      1974
      1946      1945      1947      1946      1945      1948      1947      1945      1948
      1948      1950      1951      1948      1950      1955      1948      1974      1975
      1948      1974      1976      1948      1974      1980      1949      1948      1950
      1949      1948      1974      1950      1948      1974      1950      1951      1952
      1950      1951      1953      1950      1951      1954      1950      1955      1956
      1950      1955      1957      1950      1955      1958      1951      1950      1955
      1952      1951      1953      1952      1951      1954      1953      1951      1954
      1955      1958      1959      1955      1958      1960      1955      1958      1961
      1956      1955      1957      1956      1955      1958      1957      1955      1958
      1958      1961      1962      1958      1961      1963      1959      1958      1960
      1959      1958      1961      1960      1958      1961      1961      1963      1964
      1961      1963      1968      1962      1961      1963      1963      1964      1965
      1963      1964      1966      1963      1964      1967      1963      1968      1969
      1963      1968      1970      1963      1968      1971      1964      1963      1968
      1965      1964      1966      1965      1964      1967      1966      1964      1967
      1968      1971      1972      1968      1971      1973      1969      1968      1970
      1969      1968      1971      1970      1968      1971      1972      1971      1973
      1974      1976      1977      1974      1976      1978      1974      1976      1979
      1974      1980      1981      1974      1980      1982      1974      1980      1983
      1975      1974      1976      1975      1974      1980      1976      1974      1980
      1977      1976      1978      1977      1976      1979      1978      1976      1979
      1980      1983      1984      1980      1983      1985      1980      1983      1986
      1981      1980      1982      1981      1980      1983      1982      1980      1983
      1983      1986      1987      1983      1986      1988      1983      1986      1989
      1984      1983      1985      1984      1983      1986      1985      1983      1986
      1986      1989      1990      1986      1989      1991      1986      1989      1995
      1987      1986      1988      1987      1986      1989      1988      1986      1989
      1989      1991      1992      1989      1991      1993      1989      1991      1994
      1989      1995      1996      1989      1995      1997      1989      1995      1998
      1990      1989      1991      1990      1989      1995      1991      1989      1995
      1992      1991      1993      1992      1991      1994      1993      1991      1994
      1996      1995      1997      1996      1995      1998      1997      1995      1998
      1999      2001      2002      1999      2003      2004      1999      2003      2005
      1999      2003      2006      1999      2045      2042      1999      2045      2046
      1999      2045      2047      2000      1999      2001      2000      1999      2003
      2000      1999      2045      2001      1999      2003      2001      1999      2045
      2003      1999      2045      2003      2006      2007      2003      2006      2037
      2004      2003      2005      2004      2003      2006      2005      2003      2006
      2006      2007      2008      2006      2007      2009      2006      2037      2035
      2006      2037      2038      2006      2037      2042      2007      2006      2037
      2007      2009      2010      2007      2009      2011      2007      2009      2012
      2008      2007      2009      2009      2012      2013      2009      2012      2014
      2009      2012      2035      2010      2009      2011      2010      2009      2012
      2011      2009      2012      2012      2014      2015      2012      2014      2016
      2012      2014      2024      2012      2035      2032      2012      2035      2036
      2012      2035      2037      2013      2012      2014      2013      2012      2035
      2014      2012      2035      2014      2016      2017      2014      2016      2018
      2014      2016      2019      2014      2024      2022      2014      2024      2025
      2014      2024      2029      2015      2014      2016      2015      2014      2024
      2016      2014      2024      2016      2019      2020      2016      2019      2021
      2016      2019      2022      2017      2016      2018      2017      2016      2019
      2018      2016      2019      2019      2022      2023      2019      2022      2024
      2019      2022      2048      2020      2019      2021      2020      2019      2022
      2021      2019      2022      2022      2024      2025      2022      2024      2029
      2022      2048      2049      2022      2048      2050      2022      2048      2054
      2023      2022      2024      2023      2022      2048      2024      2022      2048
      2024      2025      2026      2024      2025      2027      2024      2025      2028
      2024      2029      2030      2024      2029      2031      2024      2029      2032
      2025      2024      2029      2026      2025      2027      2026      2025      2028
      2027      2025      2028      2029      2032      2033      2029      2032      2034
      2029      2032      2035      2030      2029      2031      2030      2029      2032
      2031      2029      2032      2032      2035      2036      2032      2035      2037
      2033      2032      2034      2033      2032      2035      2034      2032      2035
      2035      2037      2038      2035      2037      2042      2036      2035      2037
      2037      2038      2039      2037      2038      2040      2037      2038      2041
      2037      2042      2043      2037      2042      2044      2037      2042      2045
      2038      2037      2042      2039      2038      2040      2039      2038      2041
      2040      2038      2041      2042      2045      2046      2042      2045      2047
      2043      2042      2044      2043      2042      2045      2044      2042      2045
      2046      2045      2047      2048      2050      2051      2048      2050      2052
      2048      2050      2053      2048      2054      2055      2048      2054      2056
      2048      2054      2057      2049      2048      2050      2049      2048      2054
      2050      2048      2054      2051      2050      2052      2051      2050      2053
      2052      2050      2053      2054      2057      2058      2054      2057      2059
      2054      2057      2060      2055      2054      2056      2055      2054      2057
      2056      2054      2057      2057      2060      2061      2057      2060      2062
      2057      2060      2063      2058      2057      2059      2058      2057      2060
      2059      2057      2060      2060      2063      2064      2060      2063      2065
      2060      2063      2069      2061      2060      2062      2061      2060      2063
      2062      2060      2063      2063      2065      2066      2063      2065      2067
      2063      2065      2068      2063      2069      2070      2063      2069      2071
      2063      2069      2072      2064      2063      2065      2064      2063      2069
      2065      2063      2069      2066      2065      2067      2066      2065      2068
      2067      2065      2068      2070      2069      2071      2070      2069      2072
      2071      2069      2072      2073      2075      2076      2073      2077      2078
      2073      2077      2079      2073      2077      2080      2073      2119      2116
      2073      2119      2120      2073      2119      2121      2074      2073      2075
      2074      2073      2077      2074      2073      2119      2075      2073      2077
      2075      2073      2119      2077      2073      2119      2077      2080      2081
      2077      2080      2111      2078      2077      2079      2078      2077      2080
      2079      2077      2080      2080      2081      2082      2080      2081      2083
      2080      2111      2109      2080      2111      2112      2080      2111      2116
      2081      2080      2111      2081      2083      2084      2081      2083      2085
      2081      2083      2086      2082      2081      2083      2083      2086      2087
      2083      2086      2088      2083      2086      2109      2084      2083      2085
      2084      2083      2086      2085      2083      2086      2086      2088      2089
      2086      2088      2090      2086      2088      2098      2086      2109      2106
      2086      2109      2110      2086      2109      2111      2087      2086      2088
      2087      2086      2109      2088      2086      2109      2088      2090      2091
      2088      2090      2092      2088      2090      2093      2088      2098      2096
      2088      2098      2099      2088      2098      2103      2089      2088      2090
      2089      2088      2098      2090      2088      2098      2090      2093      2094
      2090      2093      2095      2090      2093      2096      2091      2090      2092
      2091      2090      2093      2092      2090      2093      2093      2096      2097
      2093      2096      2098      2093      2096      2122      2094      2093      2095
      2094      2093      2096      2095      2093      2096      2096      2098      2099
      2096      2098      2103      2096      2122      2123      2096      2122      2124
      2096      2122      2128      2097      2096      2098      2097      2096      2122
      2098      2096      2122      2098      2099      2100      2098      2099      2101
      2098      2099      2102      2098      2103      2104      2098      2103      2105
      2098      2103      2106      2099      2098      2103      2100      2099      2101
      2100      2099      2102      2101      2099      2102      2103      2106      2107
      2103      2106      2108      2103      2106      2109      2104      2103      2105
      2104      2103      2106      2105      2103      2106      2106      2109      2110
      2106      2109      2111      2107      2106      2108      2107      2106      2109
      2108      2106      2109      2109      2111      2112      2109      2111      2116
      2110      2109      2111      2111      2112      2113      2111      2112      2114
      2111      2112      2115      2111      2116      2117      2111      2116      2118
      2111      2116      2119      2112      2111      2116      2113      2112      2114
      2113      2112      2115      2114      2112      2115      2116      2119      2120
      2116      2119      2121      2117      2116      2118      2117      2116      2119
      2118      2116      2119      2120      2119      2121      2122      2124      2125
      2122      2124      2126      2122      2124      2127      2122      2128      2129
      2122      2128      2130      2122      2128      2131      2123      2122      2124
      2123      2122      2128      2124      2122      2128      2125      2124      2126
      2125      2124      2127      2126      2124      2127      2128      2131      2132
      2128      2131      2133      2128      2131      2134      2129      2128      2130
      2129      2128      2131      2130      2128      2131      2131      2134      2135
      2131      2134      2136      2131      2134      2137      2132      2131      2133
      2132      2131      2134      2133      2131      2134      2134      2137      2138
      2134      2137      2139      2134      2137      2143      2135      2134      2136
      2135      2134      2137      2136      2134      2137      2137      2139      2140
      2137      2139      2141      2137      2139      2142      2137      2143      2144
      2137      2143      2145      2137      2143      2146      2138      2137      2139
      2138      2137      2143      2139      2137      2143      2140      2139      2141
      2140      2139      2142      2141      2139      2142      2144      2143      2145
      2144      2143      2146      2145      2143      2146      2147      2149      2150
      2147      2151      2152      2147      2151      2153      2147      2151      2154
      2147      2193      2190      2147      2193      2194      2147      2193      2195
      2148      2147      2149      2148      2147      2151      2148      2147      2193
      2149      2147      2151      2149      2147      2193      2151      2147      2193
      2151      2154      2155      2151      2154      2185      2152      2151      2153
      2152      2151      2154      2153      2151      2154      2154      2155      2156
      2154      2155      2157      2154      2185      2183      2154      2185      2186
      2154      2185      2190      2155      2154      2185      2155      2157      2158
      2155      2157      2159      2155      2157      2160      2156      2155      2157
      2157      2160      2161      2157      2160      2162      2157      2160      2183
      2158      2157      2159      2158      2157      2160      2159      2157      2160
      2160      2162      2163      2160      2162      2164      2160      2162      2172
      2160      2183      2180      2160      2183      2184      2160      2183      2185
      2161      2160      2162      2161      2160      2183      2162      2160      2183
      2162      2164      2165      2162      2164      2166      2162      2164      2167
      2162      2172      2170      2162      2172      2173      2162      2172      2177
      2163      2162      2164      2163      2162      2172      2164      2162      2172
      2164      2167      2168      2164      2167      2169      2164      2167      2170
      2165      2164      2166      2165      2164      2167      2166      2164      2167
      2167      2170      2171      2167      2170      2172      2167      2170      2196
      2168      2167      2169      2168      2167      2170      2169      2167      2170
      2170      2172      2173      2170      2172      2177      2170      2196      2197
      2170      2196      2198      2170      2196      2202      2171      2170      2172
      2171      2170      2196      2172      2170      2196      2172      2173      2174
      2172      2173      2175      2172      2173      2176      2172      2177      2178
      2172      2177      2179      2172      2177      2180      2173      2172      2177
      2174      2173      2175      2174      2173      2176      2175      2173      2176
      2177      2180      2181      2177      2180      2182      2177      2180      2183
      2178      2177      2179      2178      2177      2180      2179      2177      2180
      2180      2183      2184      2180      2183      2185      2181      2180      2182
      2181      2180      2183      2182      2180      2183      2183      2185      2186
      2183      2185      2190      2184      2183      2185      2185      2186      2187
      2185      2186      2188      2185      2186      2189      2185      2190      2191
      2185      2190      2192      2185      2190      2193      2186      2185      2190
      2187      2186      2188      2187      2186      2189      2188      2186      2189
      2190      2193      2194      2190      2193      2195      2191      2190      2192
      2191      2190      2193      2192      2190      2193      2194      2193      2195
      2196      2198      2199      2196      2198      2200      2196      2198      2201
      2196      2202      2203      2196      2202      2204      2196      2202      2205
      2197      2196      2198      2197      2196      2202      2198      2196      2202
      2199      2198      2200      2199      2198      2201      2200      2198      2201
      2202      2205      2206      2202      2205      2207      2202      2205      2208
      2203      2202      2204      2203      2202      2205      2204      2202      2205
      2205      2208      2209      2205      2208      2210      2205      2208      2211
      2206      2205      2207      2206      2205      2208      2207      2205      2208
      2208      2211      2212      2208      2211      2213      2208      2211      2217
      2209      2208      2210      2209      2208      2211      2210      2208      2211
      2211      2213      2214      2211      2213      2215      2211      2213      2216
      2211      2217      2218      2211      2217      2219      2211      2217      2220
      2212      2211      2213      2212      2211      2217      2213      2211      2217
      2214      2213      2215      2214      2213      2216      2215      2213      2216
      2218      2217      2219      2218      2217      2220      2219      2217      2220
      2221      2223      2224      2221      2225      2226      2221      2225      2227
      2221      2225      2228      2221      2267      2264      2221      2267      2268
      2221      2267      2269      2222      2221      2223      2222      2221      2225
      2222      2221      2267      2223      2221      2225      2223      2221      2267
      2225      2221      2267      2225      2228      2229      2225      2228      2259
      2226      2225      2227      2226      2225      2228      2227      2225      2228
      2228      2229      2230      2228      2229      2231      2228      2259      2257
      2228      2259      2260      2228      2259      2264      2229      2228      2259
      2229      2231      2232      2229      2231      2233      2229      2231      2234
      2230      2229      2231      2231      2234      2235      2231      2234      2236
      2231      2234      2257      2232      2231      2233      2232      2231      2234
      2233      2231      2234      2234      2236      2237      2234      2236      2238
      2234      2236      2246      2234      2257      2254      2234      2257      2258
      2234      2257      2259      2235      2234      2236      2235      2234      2257
      2236      2234      2257      2236      2238      2239      2236      2238      2240
      2236      2238      2241      2236      2246      2244      2236      2246      2247
      2236      2246      2251      2237      2236      2238      2237      2236      2246
      2238      2236      2246      2238      2241      2242      2238      2241      2243
      2238      2241      2244      2239      2238      2240      2239      2238      2241
      2240      2238      2241      2241      2244      2245      2241      2244      2246
      2241      2244      2270      2242      2241      2243      2242      2241      2244
      2243      2241      2244      2244      2246      2247      2244      2246      2251
      2244      2270      2271      2244      2270      2272      2244      2270      2276
      2245      2244      2246      2245      2244      2270      2246      2244      2270
      2246      2247      2248      2246      2247      2249      2246      2247      2250
      2246      2251      2252      2246      2251      2253      2246      2251      2254
      2247      2246      2251      2248      2247      2249      2248      2247      2250
      2249      2247      2250      2251      2254      2255      2251      2254      2256
      2251      2254      2257      2252      2251      2253      2252      2251      2254
      2253      2251      2254      2254      2257      2258      2254      2257      2259
      2255      2254      2256      2255      2254      2257      2256      2254      2257
      2257      2259      2260      2257      2259      2264      2258      2257      2259
      2259      2260      2261      2259      2260      2262      2259      2260      2263
      2259      2264      2265      2259      2264      2266      2259      2264      2267
      2260      2259      2264      2261      2260      2262      2261      2260      2263
      2262      2260      2263      2264      2267      2268      2264      2267      2269
      2265      2264      2266      2265      2264      2267      2266      2264      2267
      2268      2267      2269      2270      2272      2273      2270      2272      2274
      2270      2272      2275      2270      2276      2277      2270      2276      2278
      2270      2276      2279      2271      2270      2272      2271      2270      2276
      2272      2270      2276      2273      2272      2274      2273      2272      2275
      2274      2272      2275      2276      2279      2280      2276      2279      2281
      2276      2279      2282      2277      2276      2278      2277      2276      2279
      2278      2276      2279      2279      2282      2283      2279      2282      2284
      2279      2282      2285      2280      2279      2281      2280      2279      2282
      2281      2279      2282      2282      2285      2286      2282      2285      2287
      2282      2285      2291      2283      2282      2284      2283      2282      2285
      2284      2282      2285      2285      2287      2288      2285      2287      2289
      2285      2287      2290      2285      2291      2292      2285      2291      2293
      2285      2291      2294      2286      2285      2287      2286      2285      2291
      2287      2285      2291      2288      2287      2289      2288      2287      2290
      2289      2287      2290      2292      2291      2293      2292      2291      2294
      2293      2291      2294      2295      2296      2297      2295      2296      2298
      2295      2296      2311      2295      2299      2300      2295      2299      2301
      2295      2299      2302      2295      2303      2304      2295      2303      2305
      2295      2303      2306      2295      2307      2308      2295      2307      2309
      2295      2307      2310      2296      2295      2299      2296      2295      2303
      2296      2295      2307      2296      2311      2312      2296      2311      2313
      2296      2311      2317      2297      2296      2298      2297      2296      2311
      2298      2296      2311      2299      2295      2303      2299      2295      2307
      2300      2299      2301      2300      2299      2302      2301      2299      2302
      2303      2295      2307      2304      2303      2305      2304      2303      2306
      2305      2303      2306      2308      2307      2309      2308      2307      2310
      2309      2307      2310      2311      2317      2314      2312      2311      2313
      2312      2311      2317      2313      2311      2317      2314      2318      2319
      2315      2314      2316      2315      2314      2317      2315      2314      2318
      2316      2314      2317      2316      2314      2318      2317      2314      2318
      2318      2319      2320      2318      2319      2321      2318      2319      2322
      2319      2322      2323      2319      2322      2324      2319      2322      2330
      2320      2319      2321      2320      2319      2322      2321      2319      2322
      2322      2324      2325      2322      2330      2331      2322      2330      2332
      2322      2330      2333      2323      2322      2324      2323      2322      2330
      2324      2322      2330      2324      2325      2326      2324      2325      2327
      2325      2327      2328      2325      2327      2329      2325      2327      2339
      2326      2325      2327      2327      2339      2340      2327      2339      2341
      2327      2339      2342      2328      2327      2329      2328      2327      2339
      2329      2327      2339      2330      2333      2334      2331      2330      2332
      2331      2330      2333      2332      2330      2333      2333      2334      2335
      2333      2334      2336      2334      2336      2337      2334      2336      2338
      2334      2336      2386      2335      2334      2336      2336      2386      2387
      2336      2386      2388      2336      2386      2389      2337      2336      2338
      2337      2336      2386      2338      2336      2386      2339      2342      2343
      2339      2342      2344      2339      2342      2345      2340      2339      2341
      2340      2339      2342      2341      2339      2342      2342      2345      2346
      2342      2345      2347      2342      2345      2348      2343      2342      2344
      2343      2342      2345      2344      2342      2345      2345      2348      2349
      2345      2348      2350      2345      2348      2351      2346      2345      2347
      2346      2345      2348      2347      2345      2348      2348      2351      2352
      2348      2351      2353      2348      2351      2354      2349      2348      2350
      2349      2348      2351      2350      2348      2351      2351      2354      2355
      2351      2354      2356      2351      2354      2357      2352      2351      2353
      2352      2351      2354      2353      2351      2354      2354      2357      2358
      2354      2357      2359      2355      2354      2356      2355      2354      2357
      2356      2354      2357      2357      2359      2360      2357      2359      2361
      2358      2357      2359      2359      2361      2362      2359      2361      2363
      2359      2361      2364      2360      2359      2361      2361      2364      2365
      2361      2364      2366      2361      2364      2367      2362      2361      2363
      2362      2361      2364      2363      2361      2364      2364      2367      2368
      2364      2367      2369      2364      2367      2370      2365      2364      2366
      2365      2364      2367      2366      2364      2367      2367      2370      2371
      2367      2370      2372      2367      2370      2373      2368      2367      2369
      2368      2367      2370      2369      2367      2370      2370      2373      2374
      2370      2373      2375      2370      2373      2376      2371      2370      2372
      2371      2370      2373      2372      2370      2373      2373      2376      2377
      2373      2376      2378      2373      2376      2379      2374      2373      2375
      2374      2373      2376      2375      2373      2376      2376      2379      2380
      2376      2379      2381      2376      2379      2382      2377      2376      2378
      2377      2376      2379      2378      2376      2379      2379      2382      2383
      2379      2382      2384      2379      2382      2385      2380      2379      2381
      2380      2379      2382      2381      2379      2382      2383      2382      2384
      2383      2382      2385      2384      2382      2385      2386      2389      2390
      2386      2389      2391      2386      2389      2392      2387      2386      2388
      2387      2386      2389      2388      2386      2389      2389      2392      2393
      2389      2392      2394      2389      2392      2395      2390      2389      2391
      2390      2389      2392      2391      2389      2392      2392      2395      2396
      2392      2395      2397      2392      2395      2398      2393      2392      2394
      2393      2392      2395      2394      2392      2395      2395      2398      2399
      2395      2398      2400      2395      2398      2401      2396      2395      2397
      2396      2395      2398      2397      2395      2398      2398      2401      2402
      2398      2401      2403      2398      2401      2404      2399      2398      2400
      2399      2398      2401      2400      2398      2401      2401      2404      2405
      2401      2404      2406      2401      2404      2407      2402      2401      2403
      2402      2401      2404      2403      2401      2404      2404      2407      2408
      2404      2407      2409      2404      2407      2410      2405      2404      2406
      2405      2404      2407      2406      2404      2407      2407      2410      2411
      2407      2410      2412      2407      2410      2413      2408      2407      2409
      2408      2407      2410      2409      2407      2410      2410      2413      2414
      2410      2413      2415      2410      2413      2416      2411      2410      2412
      2411      2410      2413      2412      2410      2413      2413      2416      2417
      2413      2416      2418      2413      2416      2419      2414      2413      2415
      2414      2413      2416      2415      2413      2416      2416      2419      2420
      2416      2419      2421      2416      2419      2422      2417      2416      2418
      2417      2416      2419      2418      2416      2419      2419      2422      2423
      2419      2422      2424      2419      2422      2425      2420      2419      2421
      2420      2419      2422      2421      2419      2422      2422      2425      2426
      2422      2425      2427      2422      2425      2428      2423      2422      2424
      2423      2422      2425      2424      2422      2425      2426      2425      2427
      2426      2425      2428      2427      2425      2428      2429      2430      2431
      2429      2430      2432      2429      2430      2445      2429      2433      2434
      2429      2433      2435      2429      2433      2436      2429      2437      2438
      2429      2437      2439      2429      2437      2440      2429      2441      2442
      2429      2441      2443      2429      2441      2444      2430      2429      2433
      2430      2429      2437      2430      2429      2441      2430      2445      2446
      2430      2445      2447      2430      2445      2451      2431      2430      2432
      2431      2430      2445      2432      2430      2445      2433      2429      2437
      2433      2429      2441      2434      2433      2435      2434      2433      2436
      2435      2433      2436      2437      2429      2441      2438      2437      2439
      2438      2437      2440      2439      2437      2440      2442      2441      2443
      2442      2441      2444      2443      2441      2444      2445      2451      2448
      2446      2445      2447      2446      2445      2451      2447      2445      2451
      2448      2452      2453      2449      2448      2450      2449      2448      2451
      2449      2448      2452      2450      2448      2451      2450      2448      2452
      2451      2448      2452      2452      2453      2454      2452      2453      2455
      2452      2453      2456      2453      2456      2457      2453      2456      2458
      2453      2456      2464      2454      2453      2455      2454      2453      2456
      2455      2453      2456      2456      2458      2459      2456      2464      2465
      2456      2464      2466      2456      2464      2467      2457      2456      2458
      2457      2456      2464      2458      2456      2464      2458      2459      2460
      2458      2459      2461      2459      2461      2462      2459      2461      2463
      2459      2461      2473      2460      2459      2461      2461      2473      2474
      2461      2473      2475      2461      2473      2476      2462      2461      2463
      2462      2461      2473      2463      2461      2473      2464      2467      2468
      2465      2464      2466      2465      2464      2467      2466      2464      2467
      2467      2468      2469      2467      2468      2470      2468      2470      2471
      2468      2470      2472      2468      2470      2520      2469      2468      2470
      2470      2520      2521      2470      2520      2522      2470      2520      2523
      2471      2470      2472      2471      2470      2520      2472      2470      2520
      2473      2476      2477      2473      2476      2478      2473      2476      2479
      2474      2473      2475      2474      2473      2476      2475      2473      2476
      2476      2479      2480      2476      2479      2481      2476      2479      2482
      2477      2476      2478      2477      2476      2479      2478      2476      2479
      2479      2482      2483      2479      2482      2484      2479      2482      2485
      2480      2479      2481      2480      2479      2482      2481      2479      2482
      2482      2485      2486      2482      2485      2487      2482      2485      2488
      2483      2482      2484      2483      2482      2485      2484      2482      2485
      2485      2488      2489      2485      2488      2490      2485      2488      2491
      2486      2485      2487      2486      2485      2488      2487      2485      2488
      2488      2491      2492      2488      2491      2493      2489      2488      2490
      2489      2488      2491      2490      2488      2491      2491      2493      2494
      2491      2493      2495      2492      2491      2493      2493      2495      2496
      2493      2495      2497      2493      2495      2498      2494      2493      2495
      2495      2498      2499      2495      2498      2500      2495      2498      2501
      2496      2495      2497      2496      2495      2498      2497      2495      2498
      2498      2501      2502      2498      2501      2503      2498      2501      2504
      2499      2498      2500      2499      2498      2501      2500      2498      2501
      2501      2504      2505      2501      2504      2506      2501      2504      2507
      2502      2501      2503      2502      2501      2504      2503      2501      2504
      2504      2507      2508      2504      2507      2509      2504      2507      2510
      2505      2504      2506      2505      2504      2507      2506      2504      2507
      2507      2510      2511      2507      2510      2512      2507      2510      2513
      2508      2507      2509      2508      2507      2510      2509      2507      2510
      2510      2513      2514      2510      2513      2515      2510      2513      2516
      2511      2510      2512      2511      2510      2513      2512      2510      2513
      2513      2516      2517      2513      2516      2518      2513      2516      2519
      2514      2513      2515      2514      2513      2516      2515      2513      2516
      2517      2516      2518      2517      2516      2519      2518      2516      2519
      2520      2523      2524      2520      2523      2525      2520      2523      2526
      2521      2520      2522      2521      2520      2523      2522      2520      2523
      2523      2526      2527      2523      2526      2528      2523      2526      2529
      2524      2523      2525      2524      2523      2526      2525      2523      2526
      2526      2529      2530      2526      2529      2531      2526      2529      2532
      2527      2526      2528      2527      2526      2529      2528      2526      2529
      2529      2532      2533      2529      2532      2534      2529      2532      2535
      2530      2529      2531      2530      2529      2532      2531      2529      2532
      2532      2535      2536      2532      2535      2537      2532      2535      2538
      2533      2532      2534      2533      2532      2535      2534      2532      2535
      2535      2538      2539      2535      2538      2540      2535      2538      2541
      2536      2535      2537      2536      2535      2538      2537      2535      2538
      2538      2541      2542      2538      2541      2543      2538      2541      2544
      2539      2538      2540      2539      2538      2541      2540      2538      2541
      2541      2544      2545      2541      2544      2546      2541      2544      2547
      2542      2541      2543      2542      2541      2544      2543      2541      2544
      2544      2547      2548      2544      2547      2549      2544      2547      2550
      2545      2544      2546      2545      2544      2547      2546      2544      2547
      2547      2550      2551      2547      2550      2552      2547      2550      2553
      2548      2547      2549      2548      2547      2550      2549      2547      2550
      2550      2553      2554      2550      2553      2555      2550      2553      2556
      2551      2550      2552      2551      2550      2553      2552      2550      2553
      2553      2556      2557      2553      2556      2558      2553      2556      2559
      2554      2553      2555      2554      2553      2556      2555      2553      2556
      2556      2559      2560      2556      2559      2561      2556      2559      2562
      2557      2556      2558      2557      2556      2559      2558      2556      2559
      2560      2559      2561      2560      2559      2562      2561      2559      2562
      2563      2564      2565      2563      2564      2566      2563      2564      2579
      2563      2567      2568      2563      2567      2569      2563      2567      2570
      2563      2571      2572      2563      2571      2573      2563      2571      2574
      2563      2575      2576      2563      2575      2577      2563      2575      2578
      2564      2563      2567      2564      2563      2571      2564      2563      2575
      2564      2579      2580      2564      2579      2581      2564      2579      2585
      2565      2564      2566      2565      2564      2579      2566      2564      2579
      2567      2563      2571      2567      2563      2575      2568      2567      2569
      2568      2567      2570      2569      2567      2570      2571      2563      2575
      2572      2571      2573      2572      2571      2574      2573      2571      2574
      2576      2575      2577      2576      2575      2578      2577      2575      2578
      2579      2585      2582      2580      2579      2581      2580      2579      2585
      2581      2579      2585      2582      2586      2587      2583      2582      2584
      2583      2582      2585      2583      2582      2586      2584      2582      2585
      2584      2582      2586      2585      2582      2586      2586      2587      2588
      2586      2587      2589      2586      2587      2590      2587      2590      2591
      2587      2590      2592      2587      2590      2598      2588      2587      2589
      2588      2587      2590      2589      2587      2590      2590      2592      2593
      2590      2598      2599      2590      2598      2600      2590      2598      2601
      2591      2590      2592      2591      2590      2598      2592      2590      2598
      2592      2593      2594      2592      2593      2595      2593      2595      2596
      2593      2595      2597      2593      2595      2607      2594      2593      2595
      2595      2607      2608      2595      2607      2609      2595      2607      2610
      2596      2595      2597      2596      2595      2607      2597      2595      2607
      2598      2601      2602      2599      2598      2600      2599      2598      2601
      2600      2598      2601      2601      2602      2603      2601      2602      2604
      2602      2604      2605      2602      2604      2606      2602      2604      2654
      2603      2602      2604      2604      2654      2655      2604      2654      2656
      2604      2654      2657      2605      2604      2606      2605      2604      2654
      2606      2604      2654      2607      2610      2611      2607      2610      2612
      2607      2610      2613      2608      2607      2609      2608      2607      2610
      2609      2607      2610      2610      2613      2614      2610      2613      2615
      2610      2613      2616      2611      2610      2612      2611      2610      2613
      2612      2610      2613      2613      2616      2617      2613      2616      2618
      2613      2616      2619      2614      2613      2615      2614      2613      2616
      2615      2613      2616      2616      2619      2620      2616      2619      2621
      2616      2619      2622      2617      2616      2618      2617      2616      2619
      2618      2616      2619      2619      2622      2623      2619      2622      2624
      2619      2622      2625      2620      2619      2621      2620      2619      2622
      2621      2619      2622      2622      2625      2626      2622      2625      2627
      2623      2622      2624      2623      2622      2625      2624      2622      2625
      2625      2627      2628      2625      2627      2629      2626      2625      2627
      2627      2629      2630      2627      2629      2631      2627      2629      2632
      2628      2627      2629      2629      2632      2633      2629      2632      2634
      2629      2632      2635      2630      2629      2631      2630      2629      2632
      2631      2629      2632      2632      2635      2636      2632      2635      2637
      2632      2635      2638      2633      2632      2634      2633      2632      2635
      2634      2632      2635      2635      2638      2639      2635      2638      2640
      2635      2638      2641      2636      2635      2637      2636      2635      2638
      2637      2635      2638      2638      2641      2642      2638      2641      2643
      2638      2641      2644      2639      2638      2640      2639      2638      2641
      2640      2638      2641      2641      2644      2645      2641      2644      2646
      2641      2644      2647      2642      2641      2643      2642      2641      2644
      2643      2641      2644      2644      2647      2648      2644      2647      2649
      2644      2647      2650      2645      2644      2646      2645      2644      2647
      2646      2644      2647      2647      2650      2651      2647      2650      2652
      2647      2650      2653      2648      2647      2649      2648      2647      2650
      2649      2647      2650      2651      2650      2652      2651      2650      2653
      2652      2650      2653      2654      2657      2658      2654      2657      2659
      2654      2657      2660      2655      2654      2656      2655      2654      2657
      2656      2654      2657      2657      2660      2661      2657      2660      2662
      2657      2660      2663      2658      2657      2659      2658      2657      2660
      2659      2657      2660      2660      2663      2664      2660      2663      2665
      2660      2663      2666      2661      2660      2662      2661      2660      2663
      2662      2660      2663      2663      2666      2667      2663      2666      2668
      2663      2666      2669      2664      2663      2665      2664      2663      2666
      2665      2663      2666      2666      2669      2670      2666      2669      2671
      2666      2669      2672      2667      2666      2668      2667      2666      2669
      2668      2666      2669      2669      2672      2673      2669      2672      2674
      2669      2672      2675      2670      2669      2671      2670      2669      2672
      2671      2669      2672      2672      2675      2676      2672      2675      2677
      2672      2675      2678      2673      2672      2674      2673      2672      2675
      2674      2672      2675      2675      2678      2679      2675      2678      2680
      2675      2678      2681      2676      2675      2677      2676      2675      2678
      2677      2675      2678      2678      2681      2682      2678      2681      2683
      2678      2681      2684      2679      2678      2680      2679      2678      2681
      2680      2678      2681      2681      2684      2685      2681      2684      2686
      2681      2684      2687      2682      2681      2683      2682      2681      2684
      2683      2681      2684      2684      2687      2688      2684      2687      2689
      2684      2687      2690      2685      2684      2686      2685      2684      2687
      2686      2684      2687      2687      2690      2691      2687      2690      2692
      2687      2690      2693      2688      2687      2689      2688      2687      2690
      2689      2687      2690      2690      2693      2694      2690      2693      2695
      2690      2693      2696      2691      2690      2692      2691      2690      2693
      2692      2690      2693      2694      2693      2695      2694      2693      2696
      2695      2693      2696      2697      2698      2699      2697      2698      2700
      2697      2698      2713      2697      2701      2702      2697      2701      2703
      2697      2701      2704      2697      2705      2706      2697      2705      2707
      2697      2705      2708      2697      2709      2710      2697      2709      2711
      2697      2709      2712      2698      2697      2701      2698      2697      2705
      2698      2697      2709      2698      2713      2714      2698      2713      2715
      2698      2713      2719      2699      2698      2700      2699      2698      2713
      2700      2698      2713      2701      2697      2705      2701      2697      2709
      2702      2701      2703      2702      2701      2704      2703      2701      2704
      2705      2697      2709      2706      2705      2707      2706      2705      2708
      2707      2705      2708      2710      2709      2711      2710      2709      2712
      2711      2709      2712      2713      2719      2716      2714      2713      2715
      2714      2713      2719      2715      2713      2719      2716      2720      2721
      2717      2716      2718      2717      2716      2719      2717      2716      2720
      2718      2716      2719      2718      2716      2720      2719      2716      2720
      2720      2721      2722      2720      2721      2723      2720      2721      2724
      2721      2724      2725      2721      2724      2726      2721      2724      2732
      2722      2721      2723      2722      2721      2724      2723      2721      2724
      2724      2726      2727      2724      2732      2733      2724      2732      2734
      2724      2732      2735      2725      2724      2726      2725      2724      2732
      2726      2724      2732      2726      2727      2728      2726      2727      2729
      2727      2729      2730      2727      2729      2731      2727      2729      2741
      2728      2727      2729      2729      2741      2742      2729      2741      2743
      2729      2741      2744      2730      2729      2731      2730      2729      2741
      2731      2729      2741      2732      2735      2736      2733      2732      2734
      2733      2732      2735      2734      2732      2735      2735      2736      2737
      2735      2736      2738      2736      2738      2739      2736      2738      2740
      2736      2738      2788      2737      2736      2738      2738      2788      2789
      2738      2788      2790      2738      2788      2791      2739      2738      2740
      2739      2738      2788      2740      2738      2788      2741      2744      2745
      2741      2744      2746      2741      2744      2747      2742      2741      2743
      2742      2741      2744      2743      2741      2744      2744      2747      2748
      2744      2747      2749      2744      2747      2750      2745      2744      2746
      2745      2744      2747      2746      2744      2747      2747      2750      2751
      2747      2750      2752      2747      2750      2753      2748      2747      2749
      2748      2747      2750      2749      2747      2750      2750      2753      2754
      2750      2753      2755      2750      2753      2756      2751      2750      2752
      2751      2750      2753      2752      2750      2753      2753      2756      2757
      2753      2756      2758      2753      2756      2759      2754      2753      2755
      2754      2753      2756      2755      2753      2756      2756      2759      2760
      2756      2759      2761      2757      2756      2758      2757      2756      2759
      2758      2756      2759      2759      2761      2762      2759      2761      2763
      2760      2759      2761      2761      2763      2764      2761      2763      2765
      2761      2763      2766      2762      2761      2763      2763      2766      2767
      2763      2766      2768      2763      2766      2769      2764      2763      2765
      2764      2763      2766      2765      2763      2766      2766      2769      2770
      2766      2769      2771      2766      2769      2772      2767      2766      2768
      2767      2766      2769      2768      2766      2769      2769      2772      2773
      2769      2772      2774      2769      2772      2775      2770      2769      2771
      2770      2769      2772      2771      2769      2772      2772      2775      2776
      2772      2775      2777      2772      2775      2778      2773      2772      2774
      2773      2772      2775      2774      2772      2775      2775      2778      2779
      2775      2778      2780      2775      2778      2781      2776      2775      2777
      2776      2775      2778      2777      2775      2778      2778      2781      2782
      2778      2781      2783      2778      2781      2784      2779      2778      2780
      2779      2778      2781      2780      2778      2781      2781      2784      2785
      2781      2784      2786      2781      2784      2787      2782      2781      2783
      2782      2781      2784      2783      2781      2784      2785      2784      2786
      2785      2784      2787      2786      2784      2787      2788      2791      2792
      2788      2791      2793      2788      2791      2794      2789      2788      2790
      2789      2788      2791      2790      2788      2791      2791      2794      2795
      2791      2794      2796      2791      2794      2797      2792      2791      2793
      2792      2791      2794      2793      2791      2794      2794      2797      2798
      2794      2797      2799      2794      2797      2800      2795      2794      2796
      2795      2794      2797      2796      2794      2797      2797      2800      2801
      2797      2800      2802      2797      2800      2803      2798      2797      2799
      2798      2797      2800      2799      2797      2800      2800      2803      2804
      2800      2803      2805      2800      2803      2806      2801      2800      2802
      2801      2800      2803      2802      2800      2803      2803      2806      2807
      2803      2806      2808      2803      2806      2809      2804      2803      2805
      2804      2803      2806      2805      2803      2806      2806      2809      2810
      2806      2809      2811      2806      2809      2812      2807      2806      2808
      2807      2806      2809      2808      2806      2809      2809      2812      2813
      2809      2812      2814      2809      2812      2815      2810      2809      2811
      2810      2809      2812      2811      2809      2812      2812      2815      2816
      2812      2815      2817      2812      2815      2818      2813      2812      2814
      2813      2812      2815      2814      2812      2815      2815      2818      2819
      2815      2818      2820      2815      2818      2821      2816      2815      2817
      2816      2815      2818      2817      2815      2818      2818      2821      2822
      2818      2821      2823      2818      2821      2824      2819      2818      2820
      2819      2818      2821      2820      2818      2821      2821      2824      2825
      2821      2824      2826      2821      2824      2827      2822      2821      2823
      2822      2821      2824      2823      2821      2824      2824      2827      2828
      2824      2827      2829      2824      2827      2830      2825      2824      2826
      2825      2824      2827      2826      2824      2827      2828      2827      2829
      2828      2827      2830      2829      2827      2830      2831      2832      2833
      2831      2832      2834      2831      2832      2847      2831      2835      2836
      2831      2835      2837      2831      2835      2838      2831      2839      2840
      2831      2839      2841      2831      2839      2842      2831      2843      2844
      2831      2843      2845      2831      2843      2846      2832      2831      2835
      2832      2831      2839      2832      2831      2843      2832      2847      2848
      2832      2847      2849      2832      2847      2853      2833      2832      2834
      2833      2832      2847      2834      2832      2847      2835      2831      2839
      2835      2831      2843      2836      2835      2837      2836      2835      2838
      2837      2835      2838      2839      2831      2843      2840      2839      2841
      2840      2839      2842      2841      2839      2842      2844      2843      2845
      2844      2843      2846      2845      2843      2846      2847      2853      2850
      2848      2847      2849      2848      2847      2853      2849      2847      2853
      2850      2854      2855      2851      2850      2852      2851      2850      2853
      2851      2850      2854      2852      2850      2853      2852      2850      2854
      2853      2850      2854      2854      2855      2856      2854      2855      2857
      2854      2855      2858      2855      2858      2859      2855      2858      2860
      2855      2858      2866      2856      2855      2857      2856      2855      2858
      2857      2855      2858      2858      2860      2861      2858      2866      2867
      2858      2866      2868      2858      2866      2869      2859      2858      2860
      2859      2858      2866      2860      2858      2866      2860      2861      2862
      2860      2861      2863      2861      2863      2864      2861      2863      2865
      2861      2863      2875      2862      2861      2863      2863      2875      2876
      2863      2875      2877      2863      2875      2878      2864      2863      2865
      2864      2863      2875      2865      2863      2875      2866      2869      2870
      2867      2866      2868      2867      2866      2869      2868      2866      2869
      2869      2870      2871      2869      2870      2872      2870      2872      2873
      2870      2872      2874      2870      2872      2922      2871      2870      2872
      2872      2922      2923      2872      2922      2924      2872      2922      2925
      2873      2872      2874      2873      2872      2922      2874      2872      2922
      2875      2878      2879      2875      2878      2880      2875      2878      2881
      2876      2875      2877      2876      2875      2878      2877      2875      2878
      2878      2881      2882      2878      2881      2883      2878      2881      2884
      2879      2878      2880      2879      2878      2881      2880      2878      2881
      2881      2884      2885      2881      2884      2886      2881      2884      2887
      2882      2881      2883      2882      2881      2884      2883      2881      2884
      2884      2887      2888      2884      2887      2889      2884      2887      2890
      2885      2884      2886      2885      2884      2887      2886      2884      2887
      2887      2890      2891      2887      2890      2892      2887      2890      2893
      2888      2887      2889      2888      2887      2890      2889      2887      2890
      2890      2893      2894      2890      2893      2895      2891      2890      2892
      2891      2890      2893      2892      2890      2893      2893      2895      2896
      2893      2895      2897      2894      2893      2895      2895      2897      2898
      2895      2897      2899      2895      2897      2900      2896      2895      2897
      2897      2900      2901      2897      2900      2902      2897      2900      2903
      2898      2897      2899      2898      2897      2900      2899      2897      2900
      2900      2903      2904      2900      2903      2905      2900      2903      2906
      2901      2900      2902      2901      2900      2903      2902      2900      2903
      2903      2906      2907      2903      2906      2908      2903      2906      2909
      2904      2903      2905      2904      2903      2906      2905      2903      2906
      2906      2909      2910      2906      2909      2911      2906      2909      2912
      2907      2906      2908      2907      2906      2909      2908      2906      2909
      2909      2912      2913      2909      2912      2914      2909      2912      2915
      2910      2909      2911      2910      2909      2912      2911      2909      2912
      2912      2915      2916      2912      2915      2917      2912      2915      2918
      2913      2912      2914      2913      2912      2915      2914      2912      2915
      2915      2918      2919      2915      2918      2920      2915      2918      2921
      2916      2915      2917      2916      2915      2918      2917      2915      2918
      2919      2918      2920      2919      2918      2921      2920      2918      2921
      2922      2925      2926      2922      2925      2927      2922      2925      2928
      2923      2922      2924      2923      2922      2925      2924      2922      2925
      2925      2928      2929      2925      2928      2930      2925      2928      2931
      2926      2925      2927      2926      2925      2928      2927      2925      2928
      2928      2931      2932      2928      2931      2933      2928      2931      2934
      2929      2928      2930      2929      2928      2931      2930      2928      2931
      2931      2934      2935      2931      2934      2936      2931      2934      2937
      2932      2931      2933      2932      2931      2934      2933      2931      2934
      2934      2937      2938      2934      2937      2939      2934      2937      2940
      2935      2934      2936      2935      2934      2937      2936      2934      2937
      2937      2940      2941      2937      2940      2942      2937      2940      2943
      2938      2937      2939      2938      2937      2940      2939      2937      2940
      2940      2943      2944      2940      2943      2945      2940      2943      2946
      2941      2940      2942      2941      2940      2943      2942      2940      2943
      2943      2946      2947      2943      2946      2948      2943      2946      2949
      2944      2943      2945      2944      2943      2946      2945      2943      2946
      2946      2949      2950      2946      2949      2951      2946      2949      2952
      2947      2946      2948      2947      2946      2949      2948      2946      2949
      2949      2952      2953      2949      2952      2954      2949      2952      2955
      2950      2949      2951      2950      2949      2952      2951      2949      2952
      2952      2955      2956      2952      2955      2957      2952      2955      2958
      2953      2952      2954      2953      2952      2955      2954      2952      2955
      2955      2958      2959      2955      2958      2960      2955      2958      2961
      2956      2955      2957      2956      2955      2958      2957      2955      2958
      2958      2961      2962      2958      2961      2963      2958      2961      2964
      2959      2958      2960      2959      2958      2961      2960      2958      2961
      2962      2961      2963      2962      2961      2964      2963      2961      2964
      2965      2966      2967      2965      2966      2968      2965      2966      2981
      2965      2969      2970      2965      2969      2971      2965      2969      2972
      2965      2973      2974      2965      2973      2975      2965      2973      2976
      2965      2977      2978      2965      2977      2979      2965      2977      2980
      2966      2965      2969      2966      2965      2973      2966      2965      2977
      2966      2981      2982      2966      2981      2983      2966      2981      2987
      2967      2966      2968      2967      2966      2981      2968      2966      2981
      2969      2965      2973      2969      2965      2977      2970      2969      2971
      2970      2969      2972      2971      2969      2972      2973      2965      2977
      2974      2973      2975      2974      2973      2976      2975      2973      2976
      2978      2977      2979      2978      2977      2980      2979      2977      2980
      2981      2987      2984      2982      2981      2983      2982      2981      2987
      2983      2981      2987      2984      2988      2989      2985      2984      2986
      2985      2984      2987      2985      2984      2988      2986      2984      2987
      2986      2984      2988      2987      2984      2988      2988      2989      2990
      2988      2989      2991      2988      2989      2992      2989      2992      2993
      2989      2992      2994      2989      2992      3000      2990      2989      2991
      2990      2989      2992      2991      2989      2992      2992      2994      2995
      2992      3000      3001      2992      3000      3002      2992      3000      3003
      2993      2992      2994      2993      2992      3000      2994      2992      3000
      2994      2995      2996      2994      2995      2997      2995      2997      2998
      2995      2997      2999      2995      2997      3009      2996      2995      2997
      2997      3009      3010      2997      3009      3011      2997      3009      3012
      2998      2997      2999      2998      2997      3009      2999      2997      3009
      3000      3003      3004      3001      3000      3002      3001      3000      3003
      3002      3000      3003      3003      3004      3005      3003      3004      3006
      3004      3006      3007      3004      3006      3008      3004      3006      3056
      3005      3004      3006      3006      3056      3057      3006      3056      3058
      3006      3056      3059      3007      3006      3008      3007      3006      3056
      3008      3006      3056      3009      3012      3013      3009      3012      3014
      3009      3012      3015      3010      3009      3011      3010      3009      3012
      3011      3009      3012      3012      3015      3016      3012      3015      3017
      3012      3015      3018      3013      3012      3014      3013      3012      3015
      3014      3012      3015      3015      3018      3019      3015      3018      3020
      3015      3018      3021      3016      3015      3017      3016      3015      3018
      3017      3015      3018      3018      3021      3022      3018      3021      3023
      3018      3021      3024      3019      3018      3020      3019      3018      3021
      3020      3018      3021      3021      3024      3025      3021      3024      3026
      3021      3024      3027      3022      3021      3023      3022      3021      3024
      3023      3021      3024      3024      3027      3028      3024      3027      3029
      3025      3024      3026      3025      3024      3027      3026      3024      3027
      3027      3029      3030      3027      3029      3031      3028      3027      3029
      3029      3031      3032      3029      3031      3033      3029      3031      3034
      3030      3029      3031      3031      3034      3035      3031      3034      3036
      3031      3034      3037      3032      3031      3033      3032      3031      3034
      3033      3031      3034      3034      3037      3038      3034      3037      3039
      3034      3037      3040      3035      3034      3036      3035      3034      3037
      3036      3034      3037      3037      3040      3041      3037      3040      3042
      3037      3040      3043      3038      3037      3039      3038      3037      3040
      3039      3037      3040      3040      3043      3044      3040      3043      3045
      3040      3043      3046      3041      3040      3042      3041      3040      3043
      3042      3040      3043      3043      3046      3047      3043      3046      3048
      3043      3046      3049      3044      3043      3045      3044      3043      3046
      3045      3043      3046      3046      3049      3050      3046      3049      3051
      3046      3049      3052      3047      3046      3048      3047      3046      3049
      3048      3046      3049      3049      3052      3053      3049      3052      3054
      3049      3052      3055      3050      3049      3051      3050      3049      3052
      3051      3049      3052      3053      3052      3054      3053      3052      3055
      3054      3052      3055      3056      3059      3060      3056      3059      3061
      3056      3059      3062      3057      3056      3058      3057      3056      3059
      3058      3056      3059      3059      3062      3063      3059      3062      3064
      3059      3062      3065      3060      3059      3061      3060      3059      3062
      3061      3059      3062      3062      3065      3066      3062      3065      3067
      3062      3065      3068      3063      3062      3064      3063      3062      3065
      3064      3062      3065      3065      3068      3069      3065      3068      3070
      3065      3068      3071      3066      3065      3067      3066      3065      3068
      3067      3065      3068      3068      3071      3072      3068      3071      3073
      3068      3071      3074      3069      3068      3070      3069      3068      3071
      3070      3068      3071      3071      3074      3075      3071      3074      3076
      3071      3074      3077      3072      3071      3073      3072      3071      3074
      3073      3071      3074      3074      3077      3078      3074      3077      3079
      3074      3077      3080      3075      3074      3076      3075      3074      3077
      3076      3074      3077      3077      3080      3081      3077      3080      3082
      3077      3080      3083      3078      3077      3079      3078      3077      3080
      3079      3077      3080      3080      3083      3084      3080      3083      3085
      3080      3083      3086      3081      3080      3082      3081      3080      3083
      3082      3080      3083      3083      3086      3087      3083      3086      3088
      3083      3086      3089      3084      3083      3085      3084      3083      3086
      3085      3083      3086      3086      3089      3090      3086      3089      3091
      3086      3089      3092      3087      3086      3088      3087      3086      3089
      3088      3086      3089      3089      3092      3093      3089      3092      3094
      3089      3092      3095      3090      3089      3091      3090      3089      3092
      3091      3089      3092      3092      3095      3096      3092      3095      3097
      3092      3095      3098      3093      3092      3094      3093      3092      3095
      3094      3092      3095      3096      3095      3097      3096      3095      3098
      3097      3095      3098      3099      3100      3101      3099      3100      3102
      3099      3100      3115      3099      3103      3104      3099      3103      3105
      3099      3103      3106      3099      3107      3108      3099      3107      3109
      3099      3107      3110      3099      3111      3112      3099      3111      3113
      3099      3111      3114      3100      3099      3103      3100      3099      3107
      3100      3099      3111      3100      3115      3116      3100      3115      3117
      3100      3115      3121      3101      3100      3102      3101      3100      3115
      3102      3100      3115      3103      3099      3107      3103      3099      3111
      3104      3103      3105      3104      3103      3106      3105      3103      3106
      3107      3099      3111      3108      3107      3109      3108      3107      3110
      3109      3107      3110      3112      3111      3113      3112      3111      3114
      3113      3111      3114      3115      3121      3118      3116      3115      3117
      3116      3115      3121      3117      3115      3121      3118      3122      3123
      3119      3118      3120      3119      3118      3121      3119      3118      3122
      3120      3118      3121      3120      3118      3122      3121      3118      3122
      3122      3123      3124      3122      3123      3125      3122      3123      3126
      3123      3126      3127      3123      3126      3128      3123      3126      3134
      3124      3123      3125      3124      3123      3126      3125      3123      3126
      3126      3128      3129      3126      3134      3135      3126      3134      3136
      3126      3134      3137      3127      3126      3128      3127      3126      3134
      3128      3126      3134      3128      3129      3130      3128      3129      3131
      3129      3131      3132      3129      3131      3133      3129      3131      3143
      3130      3129      3131      3131      3143      3144      3131      3143      3145
      3131      3143      3146      3132      3131      3133      3132      3131      3143
      3133      3131      3143      3134      3137      3138      3135      3134      3136
      3135      3134      3137      3136      3134      3137      3137      3138      3139
      3137      3138      3140      3138      3140      3141      3138      3140      3142
      3138      3140      3190      3139      3138      3140      3140      3190      3191
      3140      3190      3192      3140      3190      3193      3141      3140      3142
      3141      3140      3190      3142      3140      3190      3143      3146      3147
      3143      3146      3148      3143      3146      3149      3144      3143      3145
      3144      3143      3146      3145      3143      3146      3146      3149      3150
      3146      3149      3151      3146      3149      3152      3147      3146      3148
      3147      3146      3149      3148      3146      3149      3149      3152      3153
      3149      3152      3154      3149      3152      3155      3150      3149      3151
      3150      3149      3152      3151      3149      3152      3152      3155      3156
      3152      3155      3157      3152      3155      3158      3153      3152      3154
      3153      3152      3155      3154      3152      3155      3155      3158      3159
      3155      3158      3160      3155      3158      3161      3156      3155      3157
      3156      3155      3158      3157      3155      3158      3158      3161      3162
      3158      3161      3163      3159      3158      3160      3159      3158      3161
      3160      3158      3161      3161      3163      3164      3161      3163      3165
      3162      3161      3163      3163      3165      3166      3163      3165      3167
      3163      3165      3168      3164      3163      3165      3165      3168      3169
      3165      3168      3170      3165      3168      3171      3166      3165      3167
      3166      3165      3168      3167      3165      3168      3168      3171      3172
      3168      3171      3173      3168      3171      3174      3169      3168      3170
      3169      3168      3171      3170      3168      3171      3171      3174      3175
      3171      3174      3176      3171      3174      3177      3172      3171      3173
      3172      3171      3174      3173      3171      3174      3174      3177      3178
      3174      3177      3179      3174      3177      3180      3175      3174      3176
      3175      3174      3177      3176      3174      3177      3177      3180      3181
      3177      3180      3182      3177      3180      3183      3178      3177      3179
      3178      3177      3180      3179      3177      3180      3180      3183      3184
      3180      3183      3185      3180      3183      3186      3181      3180      3182
      3181      3180      3183      3182      3180      3183      3183      3186      3187
      3183      3186      3188      3183      3186      3189      3184      3183      3185
      3184      3183      3186      3185      3183      3186      3187      3186      3188
      3187      3186      3189      3188      3186      3189      3190      3193      3194
      3190      3193      3195      3190      3193      3196      3191      3190      3192
      3191      3190      3193      3192      3190      3193      3193      3196      3197
      3193      3196      3198      3193      3196      3199      3194      3193      3195
      3194      3193      3196      3195      3193      3196      3196      3199      3200
      3196      3199      3201      3196      3199      3202      3197      3196      3198
      3197      3196      3199      3198      3196      3199      3199      3202      3203
      3199      3202      3204      3199      3202      3205      3200      3199      3201
      3200      3199      3202      3201      3199      3202      3202      3205      3206
      3202      3205      3207      3202      3205      3208      3203      3202      3204
      3203      3202      3205      3204      3202      3205      3205      3208      3209
      3205      3208      3210      3205      3208      3211      3206      3205      3207
      3206      3205      3208      3207      3205      3208      3208      3211      3212
      3208      3211      3213      3208      3211      3214      3209      3208      3210
      3209      3208      3211      3210      3208      3211      3211      3214      3215
      3211      3214      3216      3211      3214      3217      3212      3211      3213
      3212      3211      3214      3213      3211      3214      3214      3217      3218
      3214      3217      3219      3214      3217      3220      3215      3214      3216
      3215      3214      3217      3216      3214      3217      3217      3220      3221
      3217      3220      3222      3217      3220      3223      3218      3217      3219
      3218      3217      3220      3219      3217      3220      3220      3223      3224
      3220      3223      3225      3220      3223      3226      3221      3220      3222
      3221      3220      3223      3222      3220      3223      3223      3226      3227
      3223      3226      3228      3223      3226      3229      3224      3223      3225
      3224      3223      3226      3225      3223      3226      3226      3229      3230
      3226      3229      3231      3226      3229      3232      3227      3226      3228
      3227      3226      3229      3228      3226      3229      3230      3229      3231
      3230      3229      3232      3231      3229      3232      3233      3234      3235
      3233      3234      3236      3233      3234      3249      3233      3237      3238
      3233      3237      3239      3233      3237      3240      3233      3241      3242
      3233      3241      3243      3233      3241      3244      3233      3245      3246
      3233      3245      3247      3233      3245      3248      3234      3233      3237
      3234      3233      3241      3234      3233      3245      3234      3249      3250
      3234      3249      3251      3234      3249      3255      3235      3234      3236
      3235      3234      3249      3236      3234      3249      3237      3233      3241
      3237      3233      3245      3238      3237      3239      3238      3237      3240
      3239      3237      3240      3241      3233      3245      3242      3241      3243
      3242      3241      3244      3243      3241      3244      3246      3245      3247
      3246      3245      3248      3247      3245      3248      3249      3255      3252
      3250      3249      3251      3250      3249      3255      3251      3249      3255
      3252      3256      3257      3253      3252      3254      3253      3252      3255
      3253      3252      3256      3254      3252      3255      3254      3252      3256
      3255      3252      3256      3256      3257      3258      3256      3257      3259
      3256      3257      3260      3257      3260      3261      3257      3260      3262
      3257      3260      3268      3258      3257      3259      3258      3257      3260
      3259      3257      3260      3260      3262      3263      3260      3268      3269
      3260      3268      3270      3260      3268      3271      3261      3260      3262
      3261      3260      3268      3262      3260      3268      3262      3263      3264
      3262      3263      3265      3263      3265      3266      3263      3265      3267
      3263      3265      3277      3264      3263      3265      3265      3277      3278
      3265      3277      3279      3265      3277      3280      3266      3265      3267
      3266      3265      3277      3267      3265      3277      3268      3271      3272
      3269      3268      3270      3269      3268      3271      3270      3268      3271
      3271      3272      3273      3271      3272      3274      3272      3274      3275
      3272      3274      3276      3272      3274      3324      3273      3272      3274
      3274      3324      3325      3274      3324      3326      3274      3324      3327
      3275      3274      3276      3275      3274      3324      3276      3274      3324
      3277      3280      3281      3277      3280      3282      3277      3280      3283
      3278      3277      3279      3278      3277      3280      3279      3277      3280
      3280      3283      3284      3280      3283      3285      3280      3283      3286
      3281      3280      3282      3281      3280      3283      3282      3280      3283
      3283      3286      3287      3283      3286      3288      3283      3286      3289
      3284      3283      3285      3284      3283      3286      3285      3283      3286
      3286      3289      3290      3286      3289      3291      3286      3289      3292
      3287      3286      3288      3287      3286      3289      3288      3286      3289
      3289      3292      3293      3289      3292      3294      3289      3292      3295
      3290      3289      3291      3290      3289      3292      3291      3289      3292
      3292      3295      3296      3292      3295      3297      3293      3292      3294
      3293      3292      3295      3294      3292      3295      3295      3297      3298
      3295      3297      3299      3296      3295      3297      3297      3299      3300
      3297      3299      3301      3297      3299      3302      3298      3297      3299
      3299      3302      3303      3299      3302      3304      3299      3302      3305
      3300      3299      3301      3300      3299      3302      3301      3299      3302
      3302      3305      3306      3302      3305      3307      3302      3305      3308
      3303      3302      3304      3303      3302      3305      3304      3302      3305
      3305      3308      3309      3305      3308      3310      3305      3308      3311
      3306      3305      3307      3306      3305      3308      3307      3305      3308
      3308      3311      3312      3308      3311      3313      3308      3311      3314
      3309      3308      3310      3309      3308      3311      3310      3308      3311
      3311      3314      3315      3311      3314      3316      3311      3314      3317
      3312      3311      3313      3312      3311      3314      3313      3311      3314
      3314      3317      3318      3314      3317      3319      3314      3317      3320
      3315      3314      3316      3315      3314      3317      3316      3314      3317
      3317      3320      3321      3317      3320      3322      3317      3320      3323
      3318      3317      3319      3318      3317      3320      3319      3317      3320
      3321      3320      3322      3321      3320      3323      3322      3320      3323
      3324      3327      3328      3324      3327      3329      3324      3327      3330
      3325      3324      3326      3325      3324      3327      3326      3324      3327
      3327      3330      3331      3327      3330      3332      3327      3330      3333
      3328      3327      3329      3328      3327      3330      3329      3327      3330
      3330      3333      3334      3330      3333      3335      3330      3333      3336
      3331      3330      3332      3331      3330      3333      3332      3330      3333
      3333      3336      3337      3333      3336      3338      3333      3336      3339
      3334      3333      3335      3334      3333      3336      3335      3333      3336
      3336      3339      3340      3336      3339      3341      3336      3339      3342
      3337      3336      3338      3337      3336      3339      3338      3336      3339
      3339      3342      3343      3339      3342      3344      3339      3342      3345
      3340      3339      3341      3340      3339      3342      3341      3339      3342
      3342      3345      3346      3342      3345      3347      3342      3345      3348
      3343      3342      3344      3343      3342      3345      3344      3342      3345
      3345      3348      3349      3345      3348      3350      3345      3348      3351
      3346      3345      3347      3346      3345      3348      3347      3345      3348
      3348      3351      3352      3348      3351      3353      3348      3351      3354
      3349      3348      3350      3349      3348      3351      3350      3348      3351
      3351      3354      3355      3351      3354      3356      3351      3354      3357
      3352      3351      3353      3352      3351      3354      3353      3351      3354
      3354      3357      3358      3354      3357      3359      3354      3357      3360
      3355      3354      3356      3355      3354      3357      3356      3354      3357
      3357      3360      3361      3357      3360      3362      3357      3360      3363
      3358      3357      3359      3358      3357      3360      3359      3357      3360
      3360      3363      3364      3360      3363      3365      3360      3363      3366
      3361      3360      3362      3361      3360      3363      3362      3360      3363
      3364      3363      3365      3364      3363      3366      3365      3363      3366
      3367      3368      3369      3367      3368      3370      3367      3368      3383
      3367      3371      3372      3367      3371      3373      3367      3371      3374
      3367      3375      3376      3367      3375      3377      3367      3375      3378
      3367      3379      3380      3367      3379      3381      3367      3379      3382
      3368      3367      3371      3368      3367      3375      3368      3367      3379
      3368      3383      3384      3368      3383      3385      3368      3383      3389
      3369      3368      3370      3369      3368      3383      3370      3368      3383
      3371      3367      3375      3371      3367      3379      3372      3371      3373
      3372      3371      3374      3373      3371      3374      3375      3367      3379
      3376      3375      3377      3376      3375      3378      3377      3375      3378
      3380      3379      3381      3380      3379      3382      3381      3379      3382
      3383      3389      3386      3384      3383      3385      3384      3383      3389
      3385      3383      3389      3386      3390      3391      3387      3386      3388
      3387      3386      3389      3387      3386      3390      3388      3386      3389
      3388      3386      3390      3389      3386      3390      3390      3391      3392
      3390      3391      3393      3390      3391      3394      3391      3394      3395
      3391      3394      3396      3391      3394      3402      3392      3391      3393
      3392      3391      3394      3393      3391      3394      3394      3396      3397
      3394      3402      3403      3394      3402      3404      3394      3402      3405
      3395      3394      3396      3395      3394      3402      3396      3394      3402
      3396      3397      3398      3396      3397      3399      3397      3399      3400
      3397      3399      3401      3397      3399      3411      3398      3397      3399
      3399      3411      3412      3399      3411      3413      3399      3411      3414
      3400      3399      3401      3400      3399      3411      3401      3399      3411
      3402      3405      3406      3403      3402      3404      3403      3402      3405
      3404      3402      3405      3405      3406      3407      3405      3406      3408
      3406      3408      3409      3406      3408      3410      3406      3408      3458
      3407      3406      3408      3408      3458      3459      3408      3458      3460
      3408      3458      3461      3409      3408      3410      3409      3408      3458
      3410      3408      3458      3411      3414      3415      3411      3414      3416
      3411      3414      3417      3412      3411      3413      3412      3411      3414
      3413      3411      3414      3414      3417      3418      3414      3417      3419
      3414      3417      3420      3415      3414      3416      3415      3414      3417
      3416      3414      3417      3417      3420      3421      3417      3420      3422
      3417      3420      3423      3418      3417      3419      3418      3417      3420
      3419      3417      3420      3420      3423      3424      3420      3423      3425
      3420      3423      3426      3421      3420      3422      3421      3420      3423
      3422      3420      3423      3423      3426      3427      3423      3426      3428
      3423      3426      3429      3424      3423      3425      3424      3423      3426
      3425      3423      3426      3426      3429      3430      3426      3429      3431
      3427      3426      3428      3427      3426      3429      3428      3426      3429
      3429      3431      3432      3429      3431      3433      3430      3429      3431
      3431      3433      3434      3431      3433      3435      3431      3433      3436
      3432      3431      3433      3433      3436      3437      3433      3436      3438
      3433      3436      3439      3434      3433      3435      3434      3433      3436
      3435      3433      3436      3436      3439      3440      3436      3439      3441
      3436      3439      3442      3437      3436      3438      3437      3436      3439
      3438      3436      3439      3439      3442      3443      3439      3442      3444
      3439      3442      3445      3440      3439      3441      3440      3439      3442
      3441      3439      3442      3442      3445      3446      3442      3445      3447
      3442      3445      3448      3443      3442      3444      3443      3442      3445
      3444      3442      3445      3445      3448      3449      3445      3448      3450
      3445      3448      3451      3446      3445      3447      3446      3445      3448
      3447      3445      3448      3448      3451      3452      3448      3451      3453
      3448      3451      3454      3449      3448      3450      3449      3448      3451
      3450      3448      3451      3451      3454      3455      3451      3454      3456
      3451      3454      3457      3452      3451      3453      3452      3451      3454
      3453      3451      3454      3455      3454      3456      3455      3454      3457
      3456      3454      3457      3458      3461      3462      3458      3461      3463
      3458      3461      3464      3459      3458      3460      3459      3458      3461
      3460      3458      3461      3461      3464      3465      3461      3464      3466
      3461      3464      3467      3462      3461      3463      3462      3461      3464
      3463      3461      3464      3464      3467      3468      3464      3467      3469
      3464      3467      3470      3465      3464      3466      3465      3464      3467
      3466      3464      3467      3467      3470      3471      3467      3470      3472
      3467      3470      3473      3468      3467      3469      3468      3467      3470
      3469      3467      3470      3470      3473      3474      3470      3473      3475
      3470      3473      3476      3471      3470      3472      3471      3470      3473
      3472      3470      3473      3473      3476      3477      3473      3476      3478
      3473      3476      3479      3474      3473      3475      3474      3473      3476
      3475      3473      3476      3476      3479      3480      3476      3479      3481
      3476      3479      3482      3477      3476      3478      3477      3476      3479
      3478      3476      3479      3479      3482      3483      3479      3482      3484
      3479      3482      3485      3480      3479      3481      3480      3479      3482
      3481      3479      3482      3482      3485      3486      3482      3485      3487
      3482      3485      3488      3483      3482      3484      3483      3482      3485
      3484      3482      3485      3485      3488      3489      3485      3488      3490
      3485      3488      3491      3486      3485      3487      3486      3485      3488
      3487      3485      3488      3488      3491      3492      3488      3491      3493
      3488      3491      3494      3489      3488      3490      3489      3488      3491
      3490      3488      3491      3491      3494      3495      3491      3494      3496
      3491      3494      3497      3492      3491      3493      3492      3491      3494
      3493      3491      3494      3494      3497      3498      3494      3497      3499
      3494      3497      3500      3495      3494      3496      3495      3494      3497
      3496      3494      3497      3498      3497      3499      3498      3497      3500
      3499      3497      3500      3501      3502      3503      3501      3502      3504
      3501      3502      3517      3501      3505      3506      3501      3505      3507
      3501      3505      3508      3501      3509      3510      3501      3509      3511
      3501      3509      3512      3501      3513      3514      3501      3513      3515
      3501      3513      3516      3502      3501      3505      3502      3501      3509
      3502      3501      3513      3502      3517      3518      3502      3517      3519
      3502      3517      3523      3503      3502      3504      3503      3502      3517
      3504      3502      3517      3505      3501      3509      3505      3501      3513
      3506      3505      3507      3506      3505      3508      3507      3505      3508
      3509      3501      3513      3510      3509      3511      3510      3509      3512
      3511      3509      3512      3514      3513      3515      3514      3513      3516
      3515      3513      3516      3517      3523      3520      3518      3517      3519
      3518      3517      3523      3519      3517      3523      3520      3524      3525
      3521      3520      3522      3521      3520      3523      3521      3520      3524
      3522      3520      3523      3522      3520      3524      3523      3520      3524
      3524      3525      3526      3524      3525      3527      3524      3525      3528
      3525      3528      3529      3525      3528      3530      3525      3528      3536
      3526      3525      3527      3526      3525      3528      3527      3525      3528
      3528      3530      3531      3528      3536      3537      3528      3536      3538
      3528      3536      3539      3529      3528      3530      3529      3528      3536
      3530      3528      3536      3530      3531      3532      3530      3531      3533
      3531      3533      3534      3531      3533      3535      3531      3533      3545
      3532      3531      3533      3533      3545      3546      3533      3545      3547
      3533      3545      3548      3534      3533      3535      3534      3533      3545
      3535      3533      3545      3536      3539      3540      3537      3536      3538
      3537      3536      3539      3538      3536      3539      3539      3540      3541
      3539      3540      3542      3540      3542      3543      3540      3542      3544
      3540      3542      3592      3541      3540      3542      3542      3592      3593
      3542      3592      3594      3542      3592      3595      3543      3542      3544
      3543      3542      3592      3544      3542      3592      3545      3548      3549
      3545      3548      3550      3545      3548      3551      3546      3545      3547
      3546      3545      3548      3547      3545      3548      3548      3551      3552
      3548      3551      3553      3548      3551      3554      3549      3548      3550
      3549      3548      3551      3550      3548      3551      3551      3554      3555
      3551      3554      3556      3551      3554      3557      3552      3551      3553
      3552      3551      3554      3553      3551      3554      3554      3557      3558
      3554      3557      3559      3554      3557      3560      3555      3554      3556
      3555      3554      3557      3556      3554      3557      3557      3560      3561
      3557      3560      3562      3557      3560      3563      3558      3557      3559
      3558      3557      3560      3559      3557      3560      3560      3563      3564
      3560      3563      3565      3561      3560      3562      3561      3560      3563
      3562      3560      3563      3563      3565      3566      3563      3565      3567
      3564      3563      3565      3565      3567      3568      3565      3567      3569
      3565      3567      3570      3566      3565      3567      3567      3570      3571
      3567      3570      3572      3567      3570      3573      3568      3567      3569
      3568      3567      3570      3569      3567      3570      3570      3573      3574
      3570      3573      3575      3570      3573      3576      3571      3570      3572
      3571      3570      3573      3572      3570      3573      3573      3576      3577
      3573      3576      3578      3573      3576      3579      3574      3573      3575
      3574      3573      3576      3575      3573      3576      3576      3579      3580
      3576      3579      3581      3576      3579      3582      3577      3576      3578
      3577      3576      3579      3578      3576      3579      3579      3582      3583
      3579      3582      3584      3579      3582      3585      3580      3579      3581
      3580      3579      3582      3581      3579      3582      3582      3585      3586
      3582      3585      3587      3582      3585      3588      3583      3582      3584
      3583      3582      3585      3584      3582      3585      3585      3588      3589
      3585      3588      3590      3585      3588      3591      3586      3585      3587
      3586      3585      3588      3587      3585      3588      3589      3588      3590
      3589      3588      3591      3590      3588      3591      3592      3595      3596
      3592      3595      3597      3592      3595      3598      3593      3592      3594
      3593      3592      3595      3594      3592      3595      3595      3598      3599
      3595      3598      3600      3595      3598      3601      3596      3595      3597
      3596      3595      3598      3597      3595      3598      3598      3601      3602
      3598      3601      3603      3598      3601      3604      3599      3598      3600
      3599      3598      3601      3600      3598      3601      3601      3604      3605
      3601      3604      3606      3601      3604      3607      3602      3601      3603
      3602      3601      3604      3603      3601      3604      3604      3607      3608
      3604      3607      3609      3604      3607      3610      3605      3604      3606
      3605      3604      3607      3606      3604      3607      3607      3610      3611
      3607      3610      3612      3607      3610      3613      3608      3607      3609
      3608      3607      3610      3609      3607      3610      3610      3613      3614
      3610      3613      3615      3610      3613      3616      3611      3610      3612
      3611      3610      3613      3612      3610      3613      3613      3616      3617
      3613      3616      3618      3613      3616      3619      3614      3613      3615
      3614      3613      3616      3615      3613      3616      3616      3619      3620
      3616      3619      3621      3616      3619      3622      3617      3616      3618
      3617      3616      3619      3618      3616      3619      3619      3622      3623
      3619      3622      3624      3619      3622      3625      3620      3619      3621
      3620      3619      3622      3621      3619      3622      3622      3625      3626
      3622      3625      3627      3622      3625      3628      3623      3622      3624
      3623      3622      3625      3624      3622      3625      3625      3628      3629
      3625      3628      3630      3625      3628      3631      3626      3625      3627
      3626      3625      3628      3627      3625      3628      3628      3631      3632
      3628      3631      3633      3628      3631      3634      3629      3628      3630
      3629      3628      3631      3630      3628      3631      3632      3631      3633
      3632      3631      3634      3633      3631      3634      3635      3636      3637
      3635      3636      3638      3635      3636      3651      3635      3639      3640
      3635      3639      3641      3635      3639      3642      3635      3643      3644
      3635      3643      3645      3635      3643      3646      3635      3647      3648
      3635      3647      3649      3635      3647      3650      3636      3635      3639
      3636      3635      3643      3636      3635      3647      3636      3651      3652
      3636      3651      3653      3636      3651      3657      3637      3636      3638
      3637      3636      3651      3638      3636      3651      3639      3635      3643
      3639      3635      3647      3640      3639      3641      3640      3639      3642
      3641      3639      3642      3643      3635      3647      3644      3643      3645
      3644      3643      3646      3645      3643      3646      3648      3647      3649
      3648      3647      3650      3649      3647      3650      3651      3657      3654
      3652      3651      3653      3652      3651      3657      3653      3651      3657
      3654      3658      3659      3655      3654      3656      3655      3654      3657
      3655      3654      3658      3656      3654      3657      3656      3654      3658
      3657      3654      3658      3658      3659      3660      3658      3659      3661
      3658      3659      3662      3659      3662      3663      3659      3662      3664
      3659      3662      3670      3660      3659      3661      3660      3659      3662
      3661      3659      3662      3662      3664      3665      3662      3670      3671
      3662      3670      3672      3662      3670      3673      3663      3662      3664
      3663      3662      3670      3664      3662      3670      3664      3665      3666
      3664      3665      3667      3665      3667      3668      3665      3667      3669
      3665      3667      3679      3666      3665      3667      3667      3679      3680
      3667      3679      3681      3667      3679      3682      3668      3667      3669
      3668      3667      3679      3669      3667      3679      3670      3673      3674
      3671      3670      3672      3671      3670      3673      3672      3670      3673
      3673      3674      3675      3673      3674      3676      3674      3676      3677
      3674      3676      3678      3674      3676      3726      3675      3674      3676
      3676      3726      3727      3676      3726      3728      3676      3726      3729
      3677      3676      3678      3677      3676      3726      3678      3676      3726
      3679      3682      3683      3679      3682      3684      3679      3682      3685
      3680      3679      3681      3680      3679      3682      3681      3679      3682
      3682      3685      3686      3682      3685      3687      3682      3685      3688
      3683      3682      3684      3683      3682      3685      3684      3682      3685
      3685      3688      3689      3685      3688      3690      3685      3688      3691
      3686      3685      3687      3686      3685      3688      3687      3685      3688
      3688      3691      3692      3688      3691      3693      3688      3691      3694
      3689      3688      3690      3689      3688      3691      3690      3688      3691
      3691      3694      3695      3691      3694      3696      3691      3694      3697
      3692      3691      3693      3692      3691      3694      3693      3691      3694
      3694      3697      3698      3694      3697      3699      3695      3694      3696
      3695      3694      3697      3696      3694      3697      3697      3699      3700
      3697      3699      3701      3698      3697      3699      3699      3701      3702
      3699      3701      3703      3699      3701      3704      3700      3699      3701
      3701      3704      3705      3701      3704      3706      3701      3704      3707
      3702      3701      3703      3702      3701      3704      3703      3701      3704
      3704      3707      3708      3704      3707      3709      3704      3707      3710
      3705      3704      3706      3705      3704      3707      3706      3704      3707
      3707      3710      3711      3707      3710      3712      3707      3710      3713
      3708      3707      3709      3708      3707      3710      3709      3707      3710
      3710      3713      3714      3710      3713      3715      3710      3713      3716
      3711      3710      3712      3711      3710      3713      3712      3710      3713
      3713      3716      3717      3713      3716      3718      3713      3716      3719
      3714      3713      3715      3714      3713      3716      3715      3713      3716
      3716      3719      3720      3716      3719      3721      3716      3719      3722
      3717      3716      3718      3717      3716      3719      3718      3716      3719
      3719      3722      3723      3719      3722      3724      3719      3722      3725
      3720      3719      3721      3720      3719      3722      3721      3719      3722
      3723      3722      3724      3723      3722      3725      3724      3722      3725
      3726      3729      3730      3726      3729      3731      3726      3729      3732
      3727      3726      3728      3727      3726      3729      3728      3726      3729
      3729      3732      3733      3729      3732      3734      3729      3732      3735
      3730      3729      3731      3730      3729      3732      3731      3729      3732
      3732      3735      3736      3732      3735      3737      3732      3735      3738
      3733      3732      3734      3733      3732      3735      3734      3732      3735
      3735      3738      3739      3735      3738      3740      3735      3738      3741
      3736      3735      3737      3736      3735      3738      3737      3735      3738
      3738      3741      3742      3738      3741      3743      3738      3741      3744
      3739      3738      3740      3739      3738      3741      3740      3738      3741
      3741      3744      3745      3741      3744      3746      3741      3744      3747
      3742      3741      3743      3742      3741      3744      3743      3741      3744
      3744      3747      3748      3744      3747      3749      3744      3747      3750
      3745      3744      3746      3745      3744      3747      3746      3744      3747
      3747      3750      3751      3747      3750      3752      3747      3750      3753
      3748      3747      3749      3748      3747      3750      3749      3747      3750
      3750      3753      3754      3750      3753      3755      3750      3753      3756
      3751      3750      3752      3751      3750      3753      3752      3750      3753
      3753      3756      3757      3753      3756      3758      3753      3756      3759
      3754      3753      3755      3754      3753      3756      3755      3753      3756
      3756      3759      3760      3756      3759      3761      3756      3759      3762
      3757      3756      3758      3757      3756      3759      3758      3756      3759
      3759      3762      3763      3759      3762      3764      3759      3762      3765
      3760      3759      3761      3760      3759      3762      3761      3759      3762
      3762      3765      3766      3762      3765      3767      3762      3765      3768
      3763      3762      3764      3763      3762      3765      3764      3762      3765
      3766      3765      3767      3766      3765      3768      3767      3765      3768
      3769      3770      3771      3769      3770      3772      3769      3770      3785
      3769      3773      3774      3769      3773      3775      3769      3773      3776
      3769      3777      3778      3769      3777      3779      3769      3777      3780
      3769      3781      3782      3769      3781      3783      3769      3781      3784
      3770      3769      3773      3770      3769      3777      3770      3769      3781
      3770      3785      3786      3770      3785      3787      3770      3785      3791
      3771      3770      3772      3771      3770      3785      3772      3770      3785
      3773      3769      3777      3773      3769      3781      3774      3773      3775
      3774      3773      3776      3775      3773      3776      3777      3769      3781
      3778      3777      3779      3778      3777      3780      3779      3777      3780
      3782      3781      3783      3782      3781      3784      3783      3781      3784
      3785      3791      3788      3786      3785      3787      3786      3785      3791
      3787      3785      3791      3788      3792      3793      3789      3788      3790
      3789      3788      3791      3789      3788      3792      3790      3788      3791
      3790      3788      3792      3791      3788      3792      3792      3793      3794
      3792      3793      3795      3792      3793      3796      3793      3796      3797
      3793      3796      3798      3793      3796      3804      3794      3793      3795
      3794      3793      3796      3795      3793      3796      3796      3798      3799
      3796      3804      3805      3796      3804      3806      3796      3804      3807
      3797      3796      3798      3797      3796      3804      3798      3796      3804
      3798      3799      3800      3798      3799      3801      3799      3801      3802
      3799      3801      3803      3799      3801      3813      3800      3799      3801
      3801      3813      3814      3801      3813      3815      3801      3813      3816
      3802      3801      3803      3802      3801      3813      3803      3801      3813
      3804      3807      3808      3805      3804      3806      3805      3804      3807
      3806      3804      3807      3807      3808      3809      3807      3808      3810
      3808      3810      3811      3808      3810      3812      3808      3810      3860
      3809      3808      3810      3810      3860      3861      3810      3860      3862
      3810      3860      3863      3811      3810      3812      3811      3810      3860
      3812      3810      3860      3813      3816      3817      3813      3816      3818
      3813      3816      3819      3814      3813      3815      3814      3813      3816
      3815      3813      3816      3816      3819      3820      3816      3819      3821
      3816      3819      3822      3817      3816      3818      3817      3816      3819
      3818      3816      3819      3819      3822      3823      3819      3822      3824
      3819      3822      3825      3820      3819      3821      3820      3819      3822
      3821      3819      3822      3822      3825      3826      3822      3825      3827
      3822      3825      3828      3823      3822      3824      3823      3822      3825
      3824      3822      3825      3825      3828      3829      3825      3828      3830
      3825      3828      3831      3826      3825      3827      3826      3825      3828
      3827      3825      3828      3828      3831      3832      3828      3831      3833
      3829      3828      3830      3829      3828      3831      3830      3828      3831
      3831      3833      3834      3831      3833      3835      3832      3831      3833
      3833      3835      3836      3833      3835      3837      3833      3835      3838
      3834      3833      3835      3835      3838      3839      3835      3838      3840
      3835      3838      3841      3836      3835      3837      3836      3835      3838
      3837      3835      3838      3838      3841      3842      3838      3841      3843
      3838      3841      3844      3839      3838      3840      3839      3838      3841
      3840      3838      3841      3841      3844      3845      3841      3844      3846
      3841      3844      3847      3842      3841      3843      3842      3841      3844
      3843      3841      3844      3844      3847      3848      3844      3847      3849
      3844      3847      3850      3845      3844      3846      3845      3844      3847
      3846      3844      3847      3847      3850      3851      3847      3850      3852
      3847      3850      3853      3848      3847      3849      3848      3847      3850
      3849      3847      3850      3850      3853      3854      3850      3853      3855
      3850      3853      3856      3851      3850      3852      3851      3850      3853
      3852      3850      3853      3853      3856      3857      3853      3856      3858
      3853      3856      3859      3854      3853      3855      3854      3853      3856
      3855      3853      3856      3857      3856      3858      3857      3856      3859
      3858      3856      3859      3860      3863      3864      3860      3863      3865
      3860      3863      3866      3861      3860      3862      3861      3860      3863
      3862      3860      3863      3863      3866      3867      3863      3866      3868
      3863      3866      3869      3864      3863      3865      3864      3863      3866
      3865      3863      3866      3866      3869      3870      3866      3869      3871
      3866      3869      3872      3867      3866      3868      3867      3866      3869
      3868      3866      3869      3869      3872      3873      3869      3872      3874
      3869      3872      3875      3870      3869      3871      3870      3869      3872
      3871      3869      3872      3872      3875      3876      3872      3875      3877
      3872      3875      3878      3873      3872      3874      3873      3872      3875
      3874      3872      3875      3875      3878      3879      3875      3878      3880
      3875      3878      3881      3876      3875      3877      3876      3875      3878
      3877      3875      3878      3878      3881      3882      3878      3881      3883
      3878      3881      3884      3879      3878      3880      3879      3878      3881
      3880      3878      3881      3881      3884      3885      3881      3884      3886
      3881      3884      3887      3882      3881      3883      3882      3881      3884
      3883      3881      3884      3884      3887      3888      3884      3887      3889
      3884      3887      3890      3885      3884      3886      3885      3884      3887
      3886      3884      3887      3887      3890      3891      3887      3890      3892
      3887      3890      3893      3888      3887      3889      3888      3887      3890
      3889      3887      3890      3890      3893      3894      3890      3893      3895
      3890      3893      3896      3891      3890      3892      3891      3890      3893
      3892      3890      3893      3893      3896      3897      3893      3896      3898
      3893      3896      3899      3894      3893      3895      3894      3893      3896
      3895      3893      3896      3896      3899      3900      3896      3899      3901
      3896      3899      3902      3897      3896      3898      3897      3896      3899
      3898      3896      3899      3900      3899      3901      3900      3899      3902
      3901      3899      3902      3903      3904      3905      3903      3904      3906
      3903      3904      3919      3903      3907      3908      3903      3907      3909
      3903      3907      3910      3903      3911      3912      3903      3911      3913
      3903      3911      3914      3903      3915      3916      3903      3915      3917
      3903      3915      3918      3904      3903      3907      3904      3903      3911
      3904      3903      3915      3904      3919      3920      3904      3919      3921
      3904      3919      3925      3905      3904      3906      3905      3904      3919
      3906      3904      3919      3907      3903      3911      3907      3903      3915
      3908      3907      3909      3908      3907      3910      3909      3907      3910
      3911      3903      3915      3912      3911      3913      3912      3911      3914
      3913      3911      3914      3916      3915      3917      3916      3915      3918
      3917      3915      3918      3919      3925      3922      3920      3919      3921
      3920      3919      3925      3921      3919      3925      3922      3926      3927
      3923      3922      3924      3923      3922      3925      3923      3922      3926
      3924      3922      3925      3924      3922      3926      3925      3922      3926
      3926      3927      3928      3926      3927      3929      3926      3927      3930
      3927      3930      3931      3927      3930      3932      3927      3930      3938
      3928      3927      3929      3928      3927      3930      3929      3927      3930
      3930      3932      3933      3930      3938      3939      3930      3938      3940
      3930      3938      3941      3931      3930      3932      3931      3930      3938
      3932      3930      3938      3932      3933      3934      3932      3933      3935
      3933      3935      3936      3933      3935      3937      3933      3935      3947
      3934      3933      3935      3935      3947      3948      3935      3947      3949
      3935      3947      3950      3936      3935      3937      3936      3935      3947
      3937      3935      3947      3938      3941      3942      3939      3938      3940
      3939      3938      3941      3940      3938      3941      3941      3942      3943
      3941      3942      3944      3942      3944      3945      3942      3944      3946
      3942      3944      3994      3943      3942      3944      3944      3994      3995
      3944      3994      3996      3944      3994      3997      3945      3944      3946
      3945      3944      3994      3946      3944      3994      3947      3950      3951
      3947      3950      3952      3947      3950      3953      3948      3947      3949
      3948      3947      3950      3949      3947      3950      3950      3953      3954
      3950      3953      3955      3950      3953      3956      3951      3950      3952
      3951      3950      3953      3952      3950      3953      3953      3956      3957
      3953      3956      3958      3953      3956      3959      3954      3953      3955
      3954      3953      3956      3955      3953      3956      3956      3959      3960
      3956      3959      3961      3956      3959      3962      3957      3956      3958
      3957      3956      3959      3958      3956      3959      3959      3962      3963
      3959      3962      3964      3959      3962      3965      3960      3959      3961
      3960      3959      3962      3961      3959      3962      3962      3965      3966
      3962      3965      3967      3963      3962      3964      3963      3962      3965
      3964      3962      3965      3965      3967      3968      3965      3967      3969
      3966      3965      3967      3967      3969      3970      3967      3969      3971
      3967      3969      3972      3968      3967      3969      3969      3972      3973
      3969      3972      3974      3969      3972      3975      3970      3969      3971
      3970      3969      3972      3971      3969      3972      3972      3975      3976
      3972      3975      3977      3972      3975      3978      3973      3972      3974
      3973      3972      3975      3974      3972      3975      3975      3978      3979
      3975      3978      3980      3975      3978      3981      3976      3975      3977
      3976      3975      3978      3977      3975      3978      3978      3981      3982
      3978      3981      3983      3978      3981      3984      3979      3978      3980
      3979      3978      3981      3980      3978      3981      3981      3984      3985
      3981      3984      3986      3981      3984      3987      3982      3981      3983
      3982      3981      3984      3983      3981      3984      3984      3987      3988
      3984      3987      3989      3984      3987      3990      3985      3984      3986
      3985      3984      3987      3986      3984      3987      3987      3990      3991
      3987      3990      3992      3987      3990      3993      3988      3987      3989
      3988      3987      3990      3989      3987      3990      3991      3990      3992
      3991      3990      3993      3992      3990      3993      3994      3997      3998
      3994      3997      3999      3994      3997      4000      3995      3994      3996
      3995      3994      3997      3996      3994      3997      3997      4000      4001
      3997      4000      4002      3997      4000      4003      3998      3997      3999
      3998      3997      4000      3999      3997      4000      4000      4003      4004
      4000      4003      4005      4000      4003      4006      4001      4000      4002
      4001      4000      4003      4002      4000      4003      4003      4006      4007
      4003      4006      4008      4003      4006      4009      4004      4003      4005
      4004      4003      4006      4005      4003      4006      4006      4009      4010
      4006      4009      4011      4006      4009      4012      4007      4006      4008
      4007      4006      4009      4008      4006      4009      4009      4012      4013
      4009      4012      4014      4009      4012      4015      4010      4009      4011
      4010      4009      4012      4011      4009      4012      4012      4015      4016
      4012      4015      4017      4012      4015      4018      4013      4012      4014
      4013      4012      4015      4014      4012      4015      4015      4018      4019
      4015      4018      4020      4015      4018      4021      4016      4015      4017
      4016      4015      4018      4017      4015      4018      4018      4021      4022
      4018      4021      4023      4018      4021      4024      4019      4018      4020
      4019      4018      4021      4020      4018      4021      4021      4024      4025
      4021      4024      4026      4021      4024      4027      4022      4021      4023
      4022      4021      4024      4023      4021      4024      4024      4027      4028
      4024      4027      4029      4024      4027      4030      4025      4024      4026
      4025      4024      4027      4026      4024      4027      4027      4030      4031
      4027      4030      4032      4027      4030      4033      4028      4027      4029
      4028      4027      4030      4029      4027      4030      4030      4033      4034
      4030      4033      4035      4030      4033      4036      4031      4030      4032
      4031      4030      4033      4032      4030      4033      4034      4033      4035
      4034      4033      4036      4035      4033      4036      4037      4038      4039
      4037      4038      4040      4037      4038      4053      4037      4041      4042
      4037      4041      4043      4037      4041      4044      4037      4045      4046
      4037      4045      4047      4037      4045      4048      4037      4049      4050
      4037      4049      4051      4037      4049      4052      4038      4037      4041
      4038      4037      4045      4038      4037      4049      4038      4053      4054
      4038      4053      4055      4038      4053      4059      4039      4038      4040
      4039      4038      4053      4040      4038      4053      4041      4037      4045
      4041      4037      4049      4042      4041      4043      4042      4041      4044
      4043      4041      4044      4045      4037      4049      4046      4045      4047
      4046      4045      4048      4047      4045      4048      4050      4049      4051
      4050      4049      4052      4051      4049      4052      4053      4059      4056
      4054      4053      4055      4054      4053      4059      4055      4053      4059
      4056      4060      4061      4057      4056      4058      4057      4056      4059
      4057      4056      4060      4058      4056      4059      4058      4056      4060
      4059      4056      4060      4060      4061      4062      4060      4061      4063
      4060      4061      4064      4061      4064      4065      4061      4064      4066
      4061      4064      4072      4062      4061      4063      4062      4061      4064
      4063      4061      4064      4064      4066      4067      4064      4072      4073
      4064      4072      4074      4064      4072      4075      4065      4064      4066
      4065      4064      4072      4066      4064      4072      4066      4067      4068
      4066      4067      4069      4067      4069      4070      4067      4069      4071
      4067      4069      4081      4068      4067      4069      4069      4081      4082
      4069      4081      4083      4069      4081      4084      4070      4069      4071
      4070      4069      4081      4071      4069      4081      4072      4075      4076
      4073      4072      4074      4073      4072      4075      4074      4072      4075
      4075      4076      4077      4075      4076      4078      4076      4078      4079
      4076      4078      4080      4076      4078      4128      4077      4076      4078
      4078      4128      4129      4078      4128      4130      4078      4128      4131
      4079      4078      4080      4079      4078      4128      4080      4078      4128
      4081      4084      4085      4081      4084      4086      4081      4084      4087
      4082      4081      4083      4082      4081      4084      4083      4081      4084
      4084      4087      4088      4084      4087      4089      4084      4087      4090
      4085      4084      4086      4085      4084      4087      4086      4084      4087
      4087      4090      4091      4087      4090      4092      4087      4090      4093
      4088      4087      4089      4088      4087      4090      4089      4087      4090
      4090      4093      4094      4090      4093      4095      4090      4093      4096
      4091      4090      4092      4091      4090      4093      4092      4090      4093
      4093      4096      4097      4093      4096      4098      4093      4096      4099
      4094      4093      4095      4094      4093      4096      4095      4093      4096
      4096      4099      4100      4096      4099      4101      4097      4096      4098
      4097      4096      4099      4098      4096      4099      4099      4101      4102
      4099      4101      4103      4100      4099      4101      4101      4103      4104
      4101      4103      4105      4101      4103      4106      4102      4101      4103
      4103      4106      4107      4103      4106      4108      4103      4106      4109
      4104      4103      4105      4104      4103      4106      4105      4103      4106
      4106      4109      4110      4106      4109      4111      4106      4109      4112
      4107      4106      4108      4107      4106      4109      4108      4106      4109
      4109      4112      4113      4109      4112      4114      4109      4112      4115
      4110      4109      4111      4110      4109      4112      4111      4109      4112
      4112      4115      4116      4112      4115      4117      4112      4115      4118
      4113      4112      4114      4113      4112      4115      4114      4112      4115
      4115      4118      4119      4115      4118      4120      4115      4118      4121
      4116      4115      4117      4116      4115      4118      4117      4115      4118
      4118      4121      4122      4118      4121      4123      4118      4121      4124
      4119      4118      4120      4119      4118      4121      4120      4118      4121
      4121      4124      4125      4121      4124      4126      4121      4124      4127
      4122      4121      4123      4122      4121      4124      4123      4121      4124
      4125      4124      4126      4125      4124      4127      4126      4124      4127
      4128      4131      4132      4128      4131      4133      4128      4131      4134
      4129      4128      4130      4129      4128      4131      4130      4128      4131
      4131      4134      4135      4131      4134      4136      4131      4134      4137
      4132      4131      4133      4132      4131      4134      4133      4131      4134
      4134      4137      4138      4134      4137      4139      4134      4137      4140
      4135      4134      4136      4135      4134      4137      4136      4134      4137
      4137      4140      4141      4137      4140      4142      4137      4140      4143
      4138      4137      4139      4138      4137      4140      4139      4137      4140
      4140      4143      4144      4140      4143      4145      4140      4143      4146
      4141      4140      4142      4141      4140      4143      4142      4140      4143
      4143      4146      4147      4143      4146      4148      4143      4146      4149
      4144      4143      4145      4144      4143      4146      4145      4143      4146
      4146      4149      4150      4146      4149      4151      4146      4149      4152
      4147      4146      4148      4147      4146      4149      4148      4146      4149
      4149      4152      4153      4149      4152      4154      4149      4152      4155
      4150      4149      4151      4150      4149      4152      4151      4149      4152
      4152      4155      4156      4152      4155      4157      4152      4155      4158
      4153      4152      4154      4153      4152      4155      4154      4152      4155
      4155      4158      4159      4155      4158      4160      4155      4158      4161
      4156      4155      4157      4156      4155      4158      4157      4155      4158
      4158      4161      4162      4158      4161      4163      4158      4161      4164
      4159      4158      4160      4159      4158      4161      4160      4158      4161
      4161      4164      4165      4161      4164      4166      4161      4164      4167
      4162      4161      4163      4162      4161      4164      4163      4161      4164
      4164      4167      4168      4164      4167      4169      4164      4167      4170
      4165      4164      4166      4165      4164      4167      4166      4164      4167
      4168      4167      4169      4168      4167      4170      4169      4167      4170
      4171      4172      4173      4171      4172      4174      4171      4172      4187
      4171      4175      4176      4171      4175      4177      4171      4175      4178
      4171      4179      4180      4171      4179      4181      4171      4179      4182
      4171      4183      4184      4171      4183      4185      4171      4183      4186
      4172      4171      4175      4172      4171      4179      4172      4171      4183
      4172      4187      4188      4172      4187      4189      4172      4187      4193
      4173      4172      4174      4173      4172      4187      4174      4172      4187
      4175      4171      4179      4175      4171      4183      4176      4175      4177
      4176      4175      4178      4177      4175      4178      4179      4171      4183
      4180      4179      4181      4180      4179      4182      4181      4179      4182
      4184      4183      4185      4184      4183      4186      4185      4183      4186
      4187      4193      4190      4188      4187      4189      4188      4187      4193
      4189      4187      4193      4190      4194      4195      4191      4190      4192
      4191      4190      4193      4191      4190      4194      4192      4190      4193
      4192      4190      4194      4193      4190      4194      4194      4195      4196
      4194      4195      4197      4194      4195      4198      4195      4198      4199
      4195      4198      4200      4195      4198      4206      4196      4195      4197
      4196      4195      4198      4197      4195      4198      4198      4200      4201
      4198      4206      4207      4198      4206      4208      4198      4206      4209
      4199      4198      4200      4199      4198      4206      4200      4198      4206
      4200      4201      4202      4200      4201      4203      4201      4203      4204
      4201      4203      4205      4201      4203      4215      4202      4201      4203
      4203      4215      4216      4203      4215      4217      4203      4215      4218
      4204      4203      4205      4204      4203      4215      4205      4203      4215
      4206      4209      4210      4207      4206      4208      4207      4206      4209
      4208      4206      4209      4209      4210      4211      4209      4210      4212
      4210      4212      4213      4210      4212      4214      4210      4212      4262
      4211      4210      4212      4212      4262      4263      4212      4262      4264
      4212      4262      4265      4213      4212      4214      4213      4212      4262
      4214      4212      4262      4215      4218      4219      4215      4218      4220
      4215      4218      4221      4216      4215      4217      4216      4215      4218
      4217      4215      4218      4218      4221      4222      4218      4221      4223
      4218      4221      4224      4219      4218      4220      4219      4218      4221
      4220      4218      4221      4221      4224      4225      4221      4224      4226
      4221      4224      4227      4222      4221      4223      4222      4221      4224
      4223      4221      4224      4224      4227      4228      4224      4227      4229
      4224      4227      4230      4225      4224      4226      4225      4224      4227
      4226      4224      4227      4227      4230      4231      4227      4230      4232
      4227      4230      4233      4228      4227      4229      4228      4227      4230
      4229      4227      4230      4230      4233      4234      4230      4233      4235
      4231      4230      4232      4231      4230      4233      4232      4230      4233
      4233      4235      4236      4233      4235      4237      4234      4233      4235
      4235      4237      4238      4235      4237      4239      4235      4237      4240
      4236      4235      4237      4237      4240      4241      4237      4240      4242
      4237      4240      4243      4238      4237      4239      4238      4237      4240
      4239      4237      4240      4240      4243      4244      4240      4243      4245
      4240      4243      4246      4241      4240      4242      4241      4240      4243
      4242      4240      4243      4243      4246      4247      4243      4246      4248
      4243      4246      4249      4244      4243      4245      4244      4243      4246
      4245      4243      4246      4246      4249      4250      4246      4249      4251
      4246      4249      4252      4247      4246      4248      4247      4246      4249
      4248      4246      4249      4249      4252      4253      4249      4252      4254
      4249      4252      4255      4250      4249      4251      4250      4249      4252
      4251      4249      4252      4252      4255      4256      4252      4255      4257
      4252      4255      4258      4253      4252      4254      4253      4252      4255
      4254      4252      4255      4255      4258      4259      4255      4258      4260
      4255      4258      4261      4256      4255      4257      4256      4255      4258
      4257      4255      4258      4259      4258      4260      4259      4258      4261
      4260      4258      4261      4262      4265      4266      4262      4265      4267
      4262      4265      4268      4263      4262      4264      4263      4262      4265
      4264      4262      4265      4265      4268      4269      4265      4268      4270
      4265      4268      4271      4266      4265      4267      4266      4265      4268
      4267      4265      4268      4268      4271      4272      4268      4271      4273
      4268      4271      4274      4269      4268      4270      4269      4268      4271
      4270      4268      4271      4271      4274      4275      4271      4274      4276
      4271      4274      4277      4272      4271      4273      4272      4271      4274
      4273      4271      4274      4274      4277      4278      4274      4277      4279
      4274      4277      4280      4275      4274      4276      4275      4274      4277
      4276      4274      4277      4277      4280      4281      4277      4280      4282
      4277      4280      4283      4278      4277      4279      4278      4277      4280
      4279      4277      4280      4280      4283      4284      4280      4283      4285
      4280      4283      4286      4281      4280      4282      4281      4280      4283
      4282      4280      4283      4283      4286      4287      4283      4286      4288
      4283      4286      4289      4284      4283      4285      4284      4283      4286
      4285      4283      4286      4286      4289      4290      4286      4289      4291
      4286      4289      4292      4287      4286      4288      4287      4286      4289
      4288      4286      4289      4289      4292      4293      4289      4292      4294
      4289      4292      4295      4290      4289      4291      4290      4289      4292
      4291      4289      4292      4292      4295      4296      4292      4295      4297
      4292      4295      4298      4293      4292      4294      4293      4292      4295
      4294      4292      4295      4295      4298      4299      4295      4298      4300
      4295      4298      4301      4296      4295      4297      4296      4295      4298
      4297      4295      4298      4298      4301      4302      4298      4301      4303
      4298      4301      4304      4299      4298      4300      4299      4298      4301
      4300      4298      4301      4302      4301      4303      4302      4301      4304
      4303      4301      4304      4305      4306      4307      4305      4306      4308
      4305      4306      4321      4305      4309      4310      4305      4309      4311
      4305      4309      4312      4305      4313      4314      4305      4313      4315
      4305      4313      4316      4305      4317      4318      4305      4317      4319
      4305      4317      4320      4306      4305      4309      4306      4305      4313
      4306      4305      4317      4306      4321      4322      4306      4321      4323
      4306      4321      4327      4307      4306      4308      4307      4306      4321
      4308      4306      4321      4309      4305      4313      4309      4305      4317
      4310      4309      4311      4310      4309      4312      4311      4309      4312
      4313      4305      4317      4314      4313      4315      4314      4313      4316
      4315      4313      4316      4318      4317      4319      4318      4317      4320
      4319      4317      4320      4321      4327      4324      4322      4321      4323
      4322      4321      4327      4323      4321      4327      4324      4328      4329
      4325      4324      4326      4325      4324      4327      4325      4324      4328
      4326      4324      4327      4326      4324      4328      4327      4324      4328
      4328      4329      4330      4328      4329      4331      4328      4329      4332
      4329      4332      4333      4329      4332      4334      4329      4332      4340
      4330      4329      4331      4330      4329      4332      4331      4329      4332
      4332      4334      4335      4332      4340      4341      4332      4340      4342
      4332      4340      4343      4333      4332      4334      4333      4332      4340
      4334      4332      4340      4334      4335      4336      4334      4335      4337
      4335      4337      4338      4335      4337      4339      4335      4337      4349
      4336      4335      4337      4337      4349      4350      4337      4349      4351
      4337      4349      4352      4338      4337      4339      4338      4337      4349
      4339      4337      4349      4340      4343      4344      4341      4340      4342
      4341      4340      4343      4342      4340      4343      4343      4344      4345
      4343      4344      4346      4344      4346      4347      4344      4346      4348
      4344      4346      4396      4345      4344      4346      4346      4396      4397
      4346      4396      4398      4346      4396      4399      4347      4346      4348
      4347      4346      4396      4348      4346      4396      4349      4352      4353
      4349      4352      4354      4349      4352      4355      4350      4349      4351
      4350      4349      4352      4351      4349      4352      4352      4355      4356
      4352      4355      4357      4352      4355      4358      4353      4352      4354
      4353      4352      4355      4354      4352      4355      4355      4358      4359
      4355      4358      4360      4355      4358      4361      4356      4355      4357
      4356      4355      4358      4357      4355      4358      4358      4361      4362
      4358      4361      4363      4358      4361      4364      4359      4358      4360
      4359      4358      4361      4360      4358      4361      4361      4364      4365
      4361      4364      4366      4361      4364      4367      4362      4361      4363
      4362      4361      4364      4363      4361      4364      4364      4367      4368
      4364      4367      4369      4365      4364      4366      4365      4364      4367
      4366      4364      4367      4367      4369      4370      4367      4369      4371
      4368      4367      4369      4369      4371      4372      4369      4371      4373
      4369      4371      4374      4370      4369      4371      4371      4374      4375
      4371      4374      4376      4371      4374      4377      4372      4371      4373
      4372      4371      4374      4373      4371      4374      4374      4377      4378
      4374      4377      4379      4374      4377      4380      4375      4374      4376
      4375      4374      4377      4376      4374      4377      4377      4380      4381
      4377      4380      4382      4377      4380      4383      4378      4377      4379
      4378      4377      4380      4379      4377      4380      4380      4383      4384
      4380      4383      4385      4380      4383      4386      4381      4380      4382
      4381      4380      4383      4382      4380      4383      4383      4386      4387
      4383      4386      4388      4383      4386      4389      4384      4383      4385
      4384      4383      4386      4385      4383      4386      4386      4389      4390
      4386      4389      4391      4386      4389      4392      4387      4386      4388
      4387      4386      4389      4388      4386      4389      4389      4392      4393
      4389      4392      4394      4389      4392      4395      4390      4389      4391
      4390      4389      4392      4391      4389      4392      4393      4392      4394
      4393      4392      4395      4394      4392      4395      4396      4399      4400
      4396      4399      4401      4396      4399      4402      4397      4396      4398
      4397      4396      4399      4398      4396      4399      4399      4402      4403
      4399      4402      4404      4399      4402      4405      4400      4399      4401
      4400      4399      4402      4401      4399      4402      4402      4405      4406
      4402      4405      4407      4402      4405      4408      4403      4402      4404
      4403      4402      4405      4404      4402      4405      4405      4408      4409
      4405      4408      4410      4405      4408      4411      4406      4405      4407
      4406      4405      4408      4407      4405      4408      4408      4411      4412
      4408      4411      4413      4408      4411      4414      4409      4408      4410
      4409      4408      4411      4410      4408      4411      4411      4414      4415
      4411      4414      4416      4411      4414      4417      4412      4411      4413
      4412      4411      4414      4413      4411      4414      4414      4417      4418
      4414      4417      4419      4414      4417      4420      4415      4414      4416
      4415      4414      4417      4416      4414      4417      4417      4420      4421
      4417      4420      4422      4417      4420      4423      4418      4417      4419
      4418      4417      4420      4419      4417      4420      4420      4423      4424
      4420      4423      4425      4420      4423      4426      4421      4420      4422
      4421      4420      4423      4422      4420      4423      4423      4426      4427
      4423      4426      4428      4423      4426      4429      4424      4423      4425
      4424      4423      4426      4425      4423      4426      4426      4429      4430
      4426      4429      4431      4426      4429      4432      4427      4426      4428
      4427      4426      4429      4428      4426      4429      4429      4432      4433
      4429      4432      4434      4429      4432      4435      4430      4429      4431
      4430      4429      4432      4431      4429      4432      4432      4435      4436
      4432      4435      4437      4432      4435      4438      4433      4432      4434
      4433      4432      4435      4434      4432      4435      4436      4435      4437
      4436      4435      4438      4437      4435      4438      4439      4440      4441
      4439      4440      4442      4439      4440      4455      4439      4443      4444
      4439      4443      4445      4439      4443      4446      4439      4447      4448
      4439      4447      4449      4439      4447      4450      4439      4451      4452
      4439      4451      4453      4439      4451      4454      4440      4439      4443
      4440      4439      4447      4440      4439      4451      4440      4455      4456
      4440      4455      4457      4440      4455      4461      4441      4440      4442
      4441      4440      4455      4442      4440      4455      4443      4439      4447
      4443      4439      4451      4444      4443      4445      4444      4443      4446
      4445      4443      4446      4447      4439      4451      4448      4447      4449
      4448      4447      4450      4449      4447      4450      4452      4451      4453
      4452      4451      4454      4453      4451      4454      4455      4461      4458
      4456      4455      4457      4456      4455      4461      4457      4455      4461
      4458      4462      4463      4459      4458      4460      4459      4458      4461
      4459      4458      4462      4460      4458      4461      4460      4458      4462
      4461      4458      4462      4462      4463      4464      4462      4463      4465
      4462      4463      4466      4463      4466      4467      4463      4466      4468
      4463      4466      4474      4464      4463      4465      4464      4463      4466
      4465      4463      4466      4466      4468      4469      4466      4474      4475
      4466      4474      4476      4466      4474      4477      4467      4466      4468
      4467      4466      4474      4468      4466      4474      4468      4469      4470
      4468      4469      4471      4469      4471      4472      4469      4471      4473
      4469      4471      4483      4470      4469      4471      4471      4483      4484
      4471      4483      4485      4471      4483      4486      4472      4471      4473
      4472      4471      4483      4473      4471      4483      4474      4477      4478
      4475      4474      4476      4475      4474      4477      4476      4474      4477
      4477      4478      4479      4477      4478      4480      4478      4480      4481
      4478      4480      4482      4478      4480      4530      4479      4478      4480
      4480      4530      4531      4480      4530      4532      4480      4530      4533
      4481      4480      4482      4481      4480      4530      4482      4480      4530
      4483      4486      4487      4483      4486      4488      4483      4486      4489
      4484      4483      4485      4484      4483      4486      4485      4483      4486
      4486      4489      4490      4486      4489      4491      4486      4489      4492
      4487      4486      4488      4487      4486      4489      4488      4486      4489
      4489      4492      4493      4489      4492      4494      4489      4492      4495
      4490      4489      4491      4490      4489      4492      4491      4489      4492
      4492      4495      4496      4492      4495      4497      4492      4495      4498
      4493      4492      4494      4493      4492      4495      4494      4492      4495
      4495      4498      4499      4495      4498      4500      4495      4498      4501
      4496      4495      4497      4496      4495      4498      4497      4495      4498
      4498      4501      4502      4498      4501      4503      4499      4498      4500
      4499      4498      4501      4500      4498      4501      4501      4503      4504
      4501      4503      4505      4502      4501      4503      4503      4505      4506
      4503      4505      4507      4503      4505      4508      4504      4503      4505
      4505      4508      4509      4505      4508      4510      4505      4508      4511
      4506      4505      4507      4506      4505      4508      4507      4505      4508
      4508      4511      4512      4508      4511      4513      4508      4511      4514
      4509      4508      4510      4509      4508      4511      4510      4508      4511
      4511      4514      4515      4511      4514      4516      4511      4514      4517
      4512      4511      4513      4512      4511      4514      4513      4511      4514
      4514      4517      4518      4514      4517      4519      4514      4517      4520
      4515      4514      4516      4515      4514      4517      4516      4514      4517
      4517      4520      4521      4517      4520      4522      4517      4520      4523
      4518      4517      4519      4518      4517      4520      4519      4517      4520
      4520      4523      4524      4520      4523      4525      4520      4523      4526
      4521      4520      4522      4521      4520      4523      4522      4520      4523
      4523      4526      4527      4523      4526      4528      4523      4526      4529
      4524      4523      4525      4524      4523      4526      4525      4523      4526
      4527      4526      4528      4527      4526      4529      4528      4526      4529
      4530      4533      4534      4530      4533      4535      4530      4533      4536
      4531      4530      4532      4531      4530      4533      4532      4530      4533
      4533      4536      4537      4533      4536      4538      4533      4536      4539
      4534      4533      4535      4534      4533      4536      4535      4533      4536
      4536      4539      4540      4536      4539      4541      4536      4539      4542
      4537      4536      4538      4537      4536      4539      4538      4536      4539
      4539      4542      4543      4539      4542      4544      4539      4542      4545
      4540      4539      4541      4540      4539      4542      4541      4539      4542
      4542      4545      4546      4542      4545      4547      4542      4545      4548
      4543      4542      4544      4543      4542      4545      4544      4542      4545
      4545      4548      4549      4545      4548      4550      4545      4548      4551
      4546      4545      4547      4546      4545      4548      4547      4545      4548
      4548      4551      4552      4548      4551      4553      4548      4551      4554
      4549      4548      4550      4549      4548      4551      4550      4548      4551
      4551      4554      4555      4551      4554      4556      4551      4554      4557
      4552      4551      4553      4552      4551      4554      4553      4551      4554
      4554      4557      4558      4554      4557      4559      4554      4557      4560
      4555      4554      4556      4555      4554      4557      4556      4554      4557
      4557      4560      4561      4557      4560      4562      4557      4560      4563
      4558      4557      4559      4558      4557      4560      4559      4557      4560
      4560      4563      4564      4560      4563      4565      4560      4563      4566
      4561      4560      4562      4561      4560      4563      4562      4560      4563
      4563      4566      4567      4563      4566      4568      4563      4566      4569
      4564      4563      4565      4564      4563      4566      4565      4563      4566
      4566      4569      4570      4566      4569      4571      4566      4569      4572
      4567      4566      4568      4567      4566      4569      4568      4566      4569
      4570      4569      4571      4570      4569      4572      4571      4569      4572
      4573      4574      4575      4573      4574      4576      4573      4574      4589
      4573      4577      4578      4573      4577      4579      4573      4577      4580
      4573      4581      4582      4573      4581      4583      4573      4581      4584
      4573      4585      4586      4573      4585      4587      4573      4585      4588
      4574      4573      4577      4574      4573      4581      4574      4573      4585
      4574      4589      4590      4574      4589      4591      4574      4589      4595
      4575      4574      4576      4575      4574      4589      4576      4574      4589
      4577      4573      4581      4577      4573      4585      4578      4577      4579
      4578      4577      4580      4579      4577      4580      4581      4573      4585
      4582      4581      4583      4582      4581      4584      4583      4581      4584
      4586      4585      4587      4586      4585      4588      4587      4585      4588
      4589      4595      4592      4590      4589      4591      4590      4589      4595
      4591      4589      4595      4592      4596      4597      4593      4592      4594
      4593      4592      4595      4593      4592      4596      4594      4592      4595
      4594      4592      4596      4595      4592      4596      4596      4597      4598
      4596      4597      4599      4596      4597      4600      4597      4600      4601
      4597      4600      4602      4597      4600      4608      4598      4597      4599
      4598      4597      4600      4599      4597      4600      4600      4602      4603
      4600      4608      4609      4600      4608      4610      4600      4608      4611
      4601      4600      4602      4601      4600      4608      4602      4600      4608
      4602      4603      4604      4602      4603      4605      4603      4605      4606
      4603      4605      4607      4603      4605      4617      4604      4603      4605
      4605      4617      4618      4605      4617      4619      4605      4617      4620
      4606      4605      4607      4606      4605      4617      4607      4605      4617
      4608      4611      4612      4609      4608      4610      4609      4608      4611
      4610      4608      4611      4611      4612      4613      4611      4612      4614
      4612      4614      4615      4612      4614      4616      4612      4614      4664
      4613      4612      4614      4614      4664      4665      4614      4664      4666
      4614      4664      4667      4615      4614      4616      4615      4614      4664
      4616      4614      4664      4617      4620      4621      4617      4620      4622
      4617      4620      4623      4618      4617      4619      4618      4617      4620
      4619      4617      4620      4620      4623      4624      4620      4623      4625
      4620      4623      4626      4621      4620      4622      4621      4620      4623
      4622      4620      4623      4623      4626      4627      4623      4626      4628
      4623      4626      4629      4624      4623      4625      4624      4623      4626
      4625      4623      4626      4626      4629      4630      4626      4629      4631
      4626      4629      4632      4627      4626      4628      4627      4626      4629
      4628      4626      4629      4629      4632      4633      4629      4632      4634
      4629      4632      4635      4630      4629      4631      4630      4629      4632
      4631      4629      4632      4632      4635      4636      4632      4635      4637
      4633      4632      4634      4633      4632      4635      4634      4632      4635
      4635      4637      4638      4635      4637      4639      4636      4635      4637
      4637      4639      4640      4637      4639      4641      4637      4639      4642
      4638      4637      4639      4639      4642      4643      4639      4642      4644
      4639      4642      4645      4640      4639      4641      4640      4639      4642
      4641      4639      4642      4642      4645      4646      4642      4645      4647
      4642      4645      4648      4643      4642      4644      4643      4642      4645
      4644      4642      4645      4645      4648      4649      4645      4648      4650
      4645      4648      4651      4646      4645      4647      4646      4645      4648
      4647      4645      4648      4648      4651      4652      4648      4651      4653
      4648      4651      4654      4649      4648      4650      4649      4648      4651
      4650      4648      4651      4651      4654      4655      4651      4654      4656
      4651      4654      4657      4652      4651      4653      4652      4651      4654
      4653      4651      4654      4654      4657      4658      4654      4657      4659
      4654      4657      4660      4655      4654      4656      4655      4654      4657
      4656      4654      4657      4657      4660      4661      4657      4660      4662
      4657      4660      4663      4658      4657      4659      4658      4657      4660
      4659      4657      4660      4661      4660      4662      4661      4660      4663
      4662      4660      4663      4664      4667      4668      4664      4667      4669
      4664      4667      4670      4665      4664      4666      4665      4664      4667
      4666      4664      4667      4667      4670      4671      4667      4670      4672
      4667      4670      4673      4668      4667      4669      4668      4667      4670
      4669      4667      4670      4670      4673      4674      4670      4673      4675
      4670      4673      4676      4671      4670      4672      4671      4670      4673
      4672      4670      4673      4673      4676      4677      4673      4676      4678
      4673      4676      4679      4674      4673      4675      4674      4673      4676
      4675      4673      4676      4676      4679      4680      4676      4679      4681
      4676      4679      4682      4677      4676      4678      4677      4676      4679
      4678      4676      4679      4679      4682      4683      4679      4682      4684
      4679      4682      4685      4680      4679      4681      4680      4679      4682
      4681      4679      4682      4682      4685      4686      4682      4685      4687
      4682      4685      4688      4683      4682      4684      4683      4682      4685
      4684      4682      4685      4685      4688      4689      4685      4688      4690
      4685      4688      4691      4686      4685      4687      4686      4685      4688
      4687      4685      4688      4688      4691      4692      4688      4691      4693
      4688      4691      4694      4689      4688      4690      4689      4688      4691
      4690      4688      4691      4691      4694      4695      4691      4694      4696
      4691      4694      4697      4692      4691      4693      4692      4691      4694
      4693      4691      4694      4694      4697      4698      4694      4697      4699
      4694      4697      4700      4695      4694      4696      4695      4694      4697
      4696      4694      4697      4697      4700      4701      4697      4700      4702
      4697      4700      4703      4698      4697      4699      4698      4697      4700
      4699      4697      4700      4700      4703      4704      4700      4703      4705
      4700      4703      4706      4701      4700      4702      4701      4700      4703
      4702      4700      4703      4704      4703      4705      4704      4703      4706
      4705      4703      4706      4707      4708      4709      4707      4708      4710
      4707      4708      4723      4707      4711      4712      4707      4711      4713
      4707      4711      4714      4707      4715      4716      4707      4715      4717
      4707      4715      4718      4707      4719      4720      4707      4719      4721
      4707      4719      4722      4708      4707      4711      4708      4707      4715
      4708      4707      4719      4708      4723      4724      4708      4723      4725
      4708      4723      4729      4709      4708      4710      4709      4708      4723
      4710      4708      4723      4711      4707      4715      4711      4707      4719
      4712      4711      4713      4712      4711      4714      4713      4711      4714
      4715      4707      4719      4716      4715      4717      4716      4715      4718
      4717      4715      4718      4720      4719      4721      4720      4719      4722
      4721      4719      4722      4723      4729      4726      4724      4723      4725
      4724      4723      4729      4725      4723      4729      4726      4730      4731
      4727      4726      4728      4727      4726      4729      4727      4726      4730
      4728      4726      4729      4728      4726      4730      4729      4726      4730
      4730      4731      4732      4730      4731      4733      4730      4731      4734
      4731      4734      4735      4731      4734      4736      4731      4734      4742
      4732      4731      4733      4732      4731      4734      4733      4731      4734
      4734      4736      4737      4734      4742      4743      4734      4742      4744
      4734      4742      4745      4735      4734      4736      4735      4734      4742
      4736      4734      4742      4736      4737      4738      4736      4737      4739
      4737      4739      4740      4737      4739      4741      4737      4739      4751
      4738      4737      4739      4739      4751      4752      4739      4751      4753
      4739      4751      4754      4740      4739      4741      4740      4739      4751
      4741      4739      4751      4742      4745      4746      4743      4742      4744
      4743      4742      4745      4744      4742      4745      4745      4746      4747
      4745      4746      4748      4746      4748      4749      4746      4748      4750
      4746      4748      4798      4747      4746      4748      4748      4798      4799
      4748      4798      4800      4748      4798      4801      4749      4748      4750
      4749      4748      4798      4750      4748      4798      4751      4754      4755
      4751      4754      4756      4751      4754      4757      4752      4751      4753
      4752      4751      4754      4753      4751      4754      4754      4757      4758
      4754      4757      4759      4754      4757      4760      4755      4754      4756
      4755      4754      4757      4756      4754      4757      4757      4760      4761
      4757      4760      4762      4757      4760      4763      4758      4757      4759
      4758      4757      4760      4759      4757      4760      4760      4763      4764
      4760      4763      4765      4760      4763      4766      4761      4760      4762
      4761      4760      4763      4762      4760      4763      4763      4766      4767
      4763      4766      4768      4763      4766      4769      4764      4763      4765
      4764      4763      4766      4765      4763      4766      4766      4769      4770
      4766      4769      4771      4767      4766      4768      4767      4766      4769
      4768      4766      4769      4769      4771      4772      4769      4771      4773
      4770      4769      4771      4771      4773      4774      4771      4773      4775
      4771      4773      4776      4772      4771      4773      4773      4776      4777
      4773      4776      4778      4773      4776      4779      4774      4773      4775
      4774      4773      4776      4775      4773      4776      4776      4779      4780
      4776      4779      4781      4776      4779      4782      4777      4776      4778
      4777      4776      4779      4778      4776      4779      4779      4782      4783
      4779      4782      4784      4779      4782      4785      4780      4779      4781
      4780      4779      4782      4781      4779      4782      4782      4785      4786
      4782      4785      4787      4782      4785      4788      4783      4782      4784
      4783      4782      4785      4784      4782      4785      4785      4788      4789
      4785      4788      4790      4785      4788      4791      4786      4785      4787
      4786      4785      4788      4787      4785      4788      4788      4791      4792
      4788      4791      4793      4788      4791      4794      4789      4788      4790
      4789      4788      4791      4790      4788      4791      4791      4794      4795
      4791      4794      4796      4791      4794      4797      4792      4791      4793
      4792      4791      4794      4793      4791      4794      4795      4794      4796
      4795      4794      4797      4796      4794      4797      4798      4801      4802
      4798      4801      4803      4798      4801      4804      4799      4798      4800
      4799      4798      4801      4800      4798      4801      4801      4804      4805
      4801      4804      4806      4801      4804      4807      4802      4801      4803
      4802      4801      4804      4803      4801      4804      4804      4807      4808
      4804      4807      4809      4804      4807      4810      4805      4804      4806
      4805      4804      4807      4806      4804      4807      4807      4810      4811
      4807      4810      4812      4807      4810      4813      4808      4807      4809
      4808      4807      4810      4809      4807      4810      4810      4813      4814
      4810      4813      4815      4810      4813      4816      4811      4810      4812
      4811      4810      4813      4812      4810      4813      4813      4816      4817
      4813      4816      4818      4813      4816      4819      4814      4813      4815
      4814      4813      4816      4815      4813      4816      4816      4819      4820
      4816      4819      4821      4816      4819      4822      4817      4816      4818
      4817      4816      4819      4818      4816      4819      4819      4822      4823
      4819      4822      4824      4819      4822      4825      4820      4819      4821
      4820      4819      4822      4821      4819      4822      4822      4825      4826
      4822      4825      4827      4822      4825      4828      4823      4822      4824
      4823      4822      4825      4824      4822      4825      4825      4828      4829
      4825      4828      4830      4825      4828      4831      4826      4825      4827
      4826      4825      4828      4827      4825      4828      4828      4831      4832
      4828      4831      4833      4828      4831      4834      4829      4828      4830
      4829      4828      4831      4830      4828      4831      4831      4834      4835
      4831      4834      4836      4831      4834      4837      4832      4831      4833
      4832      4831      4834      4833      4831      4834      4834      4837      4838
      4834      4837      4839      4834      4837      4840      4835      4834      4836
      4835      4834      4837      4836      4834      4837      4838      4837      4839
      4838      4837      4840      4839      4837      4840      4841      4842      4843
      4841      4842      4844      4841      4842      4857      4841      4845      4846
      4841      4845      4847      4841      4845      4848      4841      4849      4850
      4841      4849      4851      4841      4849      4852      4841      4853      4854
      4841      4853      4855      4841      4853      4856      4842      4841      4845
      4842      4841      4849      4842      4841      4853      4842      4857      4858
      4842      4857      4859      4842      4857      4863      4843      4842      4844
      4843      4842      4857      4844      4842      4857      4845      4841      4849
      4845      4841      4853      4846      4845      4847      4846      4845      4848
      4847      4845      4848      4849      4841      4853      4850      4849      4851
      4850      4849      4852      4851      4849      4852      4854      4853      4855
      4854      4853      4856      4855      4853      4856      4857      4863      4860
      4858      4857      4859      4858      4857      4863      4859      4857      4863
      4860      4864      4865      4861      4860      4862      4861      4860      4863
      4861      4860      4864      4862      4860      4863      4862      4860      4864
      4863      4860      4864      4864      4865      4866      4864      4865      4867
      4864      4865      4868      4865      4868      4869      4865      4868      4870
      4865      4868      4876      4866      4865      4867      4866      4865      4868
      4867      4865      4868      4868      4870      4871      4868      4876      4877
      4868      4876      4878      4868      4876      4879      4869      4868      4870
      4869      4868      4876      4870      4868      4876      4870      4871      4872
      4870      4871      4873      4871      4873      4874      4871      4873      4875
      4871      4873      4885      4872      4871      4873      4873      4885      4886
      4873      4885      4887      4873      4885      4888      4874      4873      4875
      4874      4873      4885      4875      4873      4885      4876      4879      4880
      4877      4876      4878      4877      4876      4879      4878      4876      4879
      4879      4880      4881      4879      4880      4882      4880      4882      4883
      4880      4882      4884      4880      4882      4932      4881      4880      4882
      4882      4932      4933      4882      4932      4934      4882      4932      4935
      4883      4882      4884      4883      4882      4932      4884      4882      4932
      4885      4888      4889      4885      4888      4890      4885      4888      4891
      4886      4885      4887      4886      4885      4888      4887      4885      4888
      4888      4891      4892      4888      4891      4893      4888      4891      4894
      4889      4888      4890      4889      4888      4891      4890      4888      4891
      4891      4894      4895      4891      4894      4896      4891      4894      4897
      4892      4891      4893      4892      4891      4894      4893      4891      4894
      4894      4897      4898      4894      4897      4899      4894      4897      4900
      4895      4894      4896      4895      4894      4897      4896      4894      4897
      4897      4900      4901      4897      4900      4902      4897      4900      4903
      4898      4897      4899      4898      4897      4900      4899      4897      4900
      4900      4903      4904      4900      4903      4905      4901      4900      4902
      4901      4900      4903      4902      4900      4903      4903      4905      4906
      4903      4905      4907      4904      4903      4905      4905      4907      4908
      4905      4907      4909      4905      4907      4910      4906      4905      4907
      4907      4910      4911      4907      4910      4912      4907      4910      4913
      4908      4907      4909      4908      4907      4910      4909      4907      4910
      4910      4913      4914      4910      4913      4915      4910      4913      4916
      4911      4910      4912      4911      4910      4913      4912      4910      4913
      4913      4916      4917      4913      4916      4918      4913      4916      4919
      4914      4913      4915      4914      4913      4916      4915      4913      4916
      4916      4919      4920      4916      4919      4921      4916      4919      4922
      4917      4916      4918      4917      4916      4919      4918      4916      4919
      4919      4922      4923      4919      4922      4924      4919      4922      4925
      4920      4919      4921      4920      4919      4922      4921      4919      4922
      4922      4925      4926      4922      4925      4927      4922      4925      4928
      4923      4922      4924      4923      4922      4925      4924      4922      4925
      4925      4928      4929      4925      4928      4930      4925      4928      4931
      4926      4925      4927      4926      4925      4928      4927      4925      4928
      4929      4928      4930      4929      4928      4931      4930      4928      4931
      4932      4935      4936      4932      4935      4937      4932      4935      4938
      4933      4932      4934      4933      4932      4935      4934      4932      4935
      4935      4938      4939      4935      4938      4940      4935      4938      4941
      4936      4935      4937      4936      4935      4938      4937      4935      4938
      4938      4941      4942      4938      4941      4943      4938      4941      4944
      4939      4938      4940      4939      4938      4941      4940      4938      4941
      4941      4944      4945      4941      4944      4946      4941      4944      4947
      4942      4941      4943      4942      4941      4944      4943      4941      4944
      4944      4947      4948      4944      4947      4949      4944      4947      4950
      4945      4944      4946      4945      4944      4947      4946      4944      4947
      4947      4950      4951      4947      4950      4952      4947      4950      4953
      4948      4947      4949      4948      4947      4950      4949      4947      4950
      4950      4953      4954      4950      4953      4955      4950      4953      4956
      4951      4950      4952      4951      4950      4953      4952      4950      4953
      4953      4956      4957      4953      4956      4958      4953      4956      4959
      4954      4953      4955      4954      4953      4956      4955      4953      4956
      4956      4959      4960      4956      4959      4961      4956      4959      4962
      4957      4956      4958      4957      4956      4959      4958      4956      4959
      4959      4962      4963      4959      4962      4964      4959      4962      4965
      4960      4959      4961      4960      4959      4962      4961      4959      4962
      4962      4965      4966      4962      4965      4967      4962      4965      4968
      4963      4962      4964      4963      4962      4965      4964      4962      4965
      4965      4968      4969      4965      4968      4970      4965      4968      4971
      4966      4965      4967      4966      4965      4968      4967      4965      4968
      4968      4971      4972      4968      4971      4973      4968      4971      4974
      4969      4968      4970      4969      4968      4971      4970      4968      4971
      4972      4971      4973      4972      4971      4974      4973      4971      4974
      4975      4976      4977      4975      4976      4978      4975      4976      4991
      4975      4979      4980      4975      4979      4981      4975      4979      4982
      4975      4983      4984      4975      4983      4985      4975      4983      4986
      4975      4987      4988      4975      4987      4989      4975      4987      4990
      4976      4975      4979      4976      4975      4983      4976      4975      4987
      4976      4991      4992      4976      4991      4993      4976      4991      4997
      4977      4976      4978      4977      4976      4991      4978      4976      4991
      4979      4975      4983      4979      4975      4987      4980      4979      4981
      4980      4979      4982      4981      4979      4982      4983      4975      4987
      4984      4983      4985      4984      4983      4986      4985      4983      4986
      4988      4987      4989      4988      4987      4990      4989      4987      4990
      4991      4997      4994      4992      4991      4993      4992      4991      4997
      4993      4991      4997      4994      4998      4999      4995      4994      4996
      4995      4994      4997      4995      4994      4998      4996      4994      4997
      4996      4994      4998      4997      4994      4998      4998      4999      5000
      4998      4999      5001      4998      4999      5002      4999      5002      5003
      4999      5002      5004      4999      5002      5010      5000      4999      5001
      5000      4999      5002      5001      4999      5002      5002      5004      5005
      5002      5010      5011      5002      5010      5012      5002      5010      5013
      5003      5002      5004      5003      5002      5010      5004      5002      5010
      5004      5005      5006      5004      5005      5007      5005      5007      5008
      5005      5007      5009      5005      5007      5019      5006      5005      5007
      5007      5019      5020      5007      5019      5021      5007      5019      5022
      5008      5007      5009      5008      5007      5019      5009      5007      5019
      5010      5013      5014      5011      5010      5012      5011      5010      5013
      5012      5010      5013      5013      5014      5015      5013      5014      5016
      5014      5016      5017      5014      5016      5018      5014      5016      5066
      5015      5014      5016      5016      5066      5067      5016      5066      5068
      5016      5066      5069      5017      5016      5018      5017      5016      5066
      5018      5016      5066      5019      5022      5023      5019      5022      5024
      5019      5022      5025      5020      5019      5021      5020      5019      5022
      5021      5019      5022      5022      5025      5026      5022      5025      5027
      5022      5025      5028      5023      5022      5024      5023      5022      5025
      5024      5022      5025      5025      5028      5029      5025      5028      5030
      5025      5028      5031      5026      5025      5027      5026      5025      5028
      5027      5025      5028      5028      5031      5032      5028      5031      5033
      5028      5031      5034      5029      5028      5030      5029      5028      5031
      5030      5028      5031      5031      5034      5035      5031      5034      5036
      5031      5034      5037      5032      5031      5033      5032      5031      5034
      5033      5031      5034      5034      5037      5038      5034      5037      5039
      5035      5034      5036      5035      5034      5037      5036      5034      5037
      5037      5039      5040      5037      5039      5041      5038      5037      5039
      5039      5041      5042      5039      5041      5043      5039      5041      5044
      5040      5039      5041      5041      5044      5045      5041      5044      5046
      5041      5044      5047      5042      5041      5043      5042      5041      5044
      5043      5041      5044      5044      5047      5048      5044      5047      5049
      5044      5047      5050      5045      5044      5046      5045      5044      5047
      5046      5044      5047      5047      5050      5051      5047      5050      5052
      5047      5050      5053      5048      5047      5049      5048      5047      5050
      5049      5047      5050      5050      5053      5054      5050      5053      5055
      5050      5053      5056      5051      5050      5052      5051      5050      5053
      5052      5050      5053      5053      5056      5057      5053      5056      5058
      5053      5056      5059      5054      5053      5055      5054      5053      5056
      5055      5053      5056      5056      5059      5060      5056      5059      5061
      5056      5059      5062      5057      5056      5058      5057      5056      5059
      5058      5056      5059      5059      5062      5063      5059      5062      5064
      5059      5062      5065      5060      5059      5061      5060      5059      5062
      5061      5059      5062      5063      5062      5064      5063      5062      5065
      5064      5062      5065      5066      5069      5070      5066      5069      5071
      5066      5069      5072      5067      5066      5068      5067      5066      5069
      5068      5066      5069      5069      5072      5073      5069      5072      5074
      5069      5072      5075      5070      5069      5071      5070      5069      5072
      5071      5069      5072      5072      5075      5076      5072      5075      5077
      5072      5075      5078      5073      5072      5074      5073      5072      5075
      5074      5072      5075      5075      5078      5079      5075      5078      5080
      5075      5078      5081      5076      5075      5077      5076      5075      5078
      5077      5075      5078      5078      5081      5082      5078      5081      5083
      5078      5081      5084      5079      5078      5080      5079      5078      5081
      5080      5078      5081      5081      5084      5085      5081      5084      5086
      5081      5084      5087      5082      5081      5083      5082      5081      5084
      5083      5081      5084      5084      5087      5088      5084      5087      5089
      5084      5087      5090      5085      5084      5086      5085      5084      5087
      5086      5084      5087      5087      5090      5091      5087      5090      5092
      5087      5090      5093      5088      5087      5089      5088      5087      5090
      5089      5087      5090      5090      5093      5094      5090      5093      5095
      5090      5093      5096      5091      5090      5092      5091      5090      5093
      5092      5090      5093      5093      5096      5097      5093      5096      5098
      5093      5096      5099      5094      5093      5095      5094      5093      5096
      5095      5093      5096      5096      5099      5100      5096      5099      5101
      5096      5099      5102      5097      5096      5098      5097      5096      5099
      5098      5096      5099      5099      5102      5103      5099      5102      5104
      5099      5102      5105      5100      5099      5101      5100      5099      5102
      5101      5099      5102      5102      5105      5106      5102      5105      5107
      5102      5105      5108      5103      5102      5104      5103      5102      5105
      5104      5102      5105      5106      5105      5107      5106      5105      5108
      5107      5105      5108      5109      5110      5111      5109      5110      5112
      5109      5110      5125      5109      5113      5114      5109      5113      5115
      5109      5113      5116      5109      5117      5118      5109      5117      5119
      5109      5117      5120      5109      5121      5122      5109      5121      5123
      5109      5121      5124      5110      5109      5113      5110      5109      5117
      5110      5109      5121      5110      5125      5126      5110      5125      5127
      5110      5125      5131      5111      5110      5112      5111      5110      5125
      5112      5110      5125      5113      5109      5117      5113      5109      5121
      5114      5113      5115      5114      5113      5116      5115      5113      5116
      5117      5109      5121      5118      5117      5119      5118      5117      5120
      5119      5117      5120      5122      5121      5123      5122      5121      5124
      5123      5121      5124      5125      5131      5128      5126      5125      5127
      5126      5125      5131      5127      5125      5131      5128      5132      5133
      5129      5128      5130      5129      5128      5131      5129      5128      5132
      5130      5128      5131      5130      5128      5132      5131      5128      5132
      5132      5133      5134      5132      5133      5135      5132      5133      5136
      5133      5136      5137      5133      5136      5138      5133      5136      5144
      5134      5133      5135      5134      5133      5136      5135      5133      5136
      5136      5138      5139      5136      5144      5145      5136      5144      5146
      5136      5144      5147      5137      5136      5138      5137      5136      5144
      5138      5136      5144      5138      5139      5140      5138      5139      5141
      5139      5141      5142      5139      5141      5143      5139      5141      5153
      5140      5139      5141      5141      5153      5154      5141      5153      5155
      5141      5153      5156      5142      5141      5143      5142      5141      5153
      5143      5141      5153      5144      5147      5148      5145      5144      5146
      5145      5144      5147      5146      5144      5147      5147      5148      5149
      5147      5148      5150      5148      5150      5151      5148      5150      5152
      5148      5150      5200      5149      5148      5150      5150      5200      5201
      5150      5200      5202      5150      5200      5203      5151      5150      5152
      5151      5150      5200      5152      5150      5200      5153      5156      5157
      5153      5156      5158      5153      5156      5159      5154      5153      5155
      5154      5153      5156      5155      5153      5156      5156      5159      5160
      5156      5159      5161      5156      5159      5162      5157      5156      5158
      5157      5156      5159      5158      5156      5159      5159      5162      5163
      5159      5162      5164      5159      5162      5165      5160      5159      5161
      5160      5159      5162      5161      5159      5162      5162      5165      5166
      5162      5165      5167      5162      5165      5168      5163      5162      5164
      5163      5162      5165      5164      5162      5165      5165      5168      5169
      5165      5168      5170      5165      5168      5171      5166      5165      5167
      5166      5165      5168      5167      5165      5168      5168      5171      5172
      5168      5171      5173      5169      5168      5170      5169      5168      5171
      5170      5168      5171      5171      5173      5174      5171      5173      5175
      5172      5171      5173      5173      5175      5176      5173      5175      5177
      5173      5175      5178      5174      5173      5175      5175      5178      5179
      5175      5178      5180      5175      5178      5181      5176      5175      5177
      5176      5175      5178      5177      5175      5178      5178      5181      5182
      5178      5181      5183      5178      5181      5184      5179      5178      5180
      5179      5178      5181      5180      5178      5181      5181      5184      5185
      5181      5184      5186      5181      5184      5187      5182      5181      5183
      5182      5181      5184      5183      5181      5184      5184      5187      5188
      5184      5187      5189      5184      5187      5190      5185      5184      5186
      5185      5184      5187      5186      5184      5187      5187      5190      5191
      5187      5190      5192      5187      5190      5193      5188      5187      5189
      5188      5187      5190      5189      5187      5190      5190      5193      5194
      5190      5193      5195      5190      5193      5196      5191      5190      5192
      5191      5190      5193      5192      5190      5193      5193      5196      5197
      5193      5196      5198      5193      5196      5199      5194      5193      5195
      5194      5193      5196      5195      5193      5196      5197      5196      5198
      5197      5196      5199      5198      5196      5199      5200      5203      5204
      5200      5203      5205      5200      5203      5206      5201      5200      5202
      5201      5200      5203      5202      5200      5203      5203      5206      5207
      5203      5206      5208      5203      5206      5209      5204      5203      5205
      5204      5203      5206      5205      5203      5206      5206      5209      5210
      5206      5209      5211      5206      5209      5212      5207      5206      5208
      5207      5206      5209      5208      5206      5209      5209      5212      5213
      5209      5212      5214      5209      5212      5215      5210      5209      5211
      5210      5209      5212      5211      5209      5212      5212      5215      5216
      5212      5215      5217      5212      5215      5218      5213      5212      5214
      5213      5212      5215      5214      5212      5215      5215      5218      5219
      5215      5218      5220      5215      5218      5221      5216      5215      5217
      5216      5215      5218      5217      5215      5218      5218      5221      5222
      5218      5221      5223      5218      5221      5224      5219      5218      5220
      5219      5218      5221      5220      5218      5221      5221      5224      5225
      5221      5224      5226      5221      5224      5227      5222      5221      5223
      5222      5221      5224      5223      5221      5224      5224      5227      5228
      5224      5227      5229      5224      5227      5230      5225      5224      5226
      5225      5224      5227      5226      5224      5227      5227      5230      5231
      5227      5230      5232      5227      5230      5233      5228      5227      5229
      5228      5227      5230      5229      5227      5230      5230      5233      5234
      5230      5233      5235      5230      5233      5236      5231      5230      5232
      5231      5230      5233      5232      5230      5233      5233      5236      5237
      5233      5236      5238      5233      5236      5239      5234      5233      5235
      5234      5233      5236      5235      5233      5236      5236      5239      5240
      5236      5239      5241      5236      5239      5242      5237      5236      5238
      5237      5236      5239      5238      5236      5239      5240      5239      5241
      5240      5239      5242      5241      5239      5242      5243      5244      5245
      5243      5244      5246      5243      5244      5259      5243      5247      5248
      5243      5247      5249      5243      5247      5250      5243      5251      5252
      5243      5251      5253      5243      5251      5254      5243      5255      5256
      5243      5255      5257      5243      5255      5258      5244      5243      5247
      5244      5243      5251      5244      5243      5255      5244      5259      5260
      5244      5259      5261      5244      5259      5265      5245      5244      5246
      5245      5244      5259      5246      5244      5259      5247      5243      5251
      5247      5243      5255      5248      5247      5249      5248      5247      5250
      5249      5247      5250      5251      5243      5255      5252      5251      5253
      5252      5251      5254      5253      5251      5254      5256      5255      5257
      5256      5255      5258      5257      5255      5258      5259      5265      5262
      5260      5259      5261      5260      5259      5265      5261      5259      5265
      5262      5266      5267      5263      5262      5264      5263      5262      5265
      5263      5262      5266      5264      5262      5265      5264      5262      5266
      5265      5262      5266      5266      5267      5268      5266      5267      5269
      5266      5267      5270      5267      5270      5271      5267      5270      5272
      5267      5270      5278      5268      5267      5269      5268      5267      5270
      5269      5267      5270      5270      5272      5273      5270      5278      5279
      5270      5278      5280      5270      5278      5281      5271      5270      5272
      5271      5270      5278      5272      5270      5278      5272      5273      5274
      5272      5273      5275      5273      5275      5276      5273      5275      5277
      5273      5275      5287      5274      5273      5275      5275      5287      5288
      5275      5287      5289      5275      5287      5290      5276      5275      5277
      5276      5275      5287      5277      5275      5287      5278      5281      5282
      5279      5278      5280      5279      5278      5281      5280      5278      5281
      5281      5282      5283      5281      5282      5284      5282      5284      5285
      5282      5284      5286      5282      5284      5334      5283      5282      5284
      5284      5334      5335      5284      5334      5336      5284      5334      5337
      5285      5284      5286      5285      5284      5334      5286      5284      5334
      5287      5290      5291      5287      5290      5292      5287      5290      5293
      5288      5287      5289      5288      5287      5290      5289      5287      5290
      5290      5293      5294      5290      5293      5295      5290      5293      5296
      5291      5290      5292      5291      5290      5293      5292      5290      5293
      5293      5296      5297      5293      5296      5298      5293      5296      5299
      5294      5293      5295      5294      5293      5296      5295      5293      5296
      5296      5299      5300      5296      5299      5301      5296      5299      5302
      5297      5296      5298      5297      5296      5299      5298      5296      5299
      5299      5302      5303      5299      5302      5304      5299      5302      5305
      5300      5299      5301      5300      5299      5302      5301      5299      5302
      5302      5305      5306      5302      5305      5307      5303      5302      5304
      5303      5302      5305      5304      5302      5305      5305      5307      5308
      5305      5307      5309      5306      5305      5307      5307      5309      5310
      5307      5309      5311      5307      5309      5312      5308      5307      5309
      5309      5312      5313      5309      5312      5314      5309      5312      5315
      5310      5309      5311      5310      5309      5312      5311      5309      5312
      5312      5315      5316      5312      5315      5317      5312      5315      5318
      5313      5312      5314      5313      5312      5315      5314      5312      5315
      5315      5318      5319      5315      5318      5320      5315      5318      5321
      5316      5315      5317      5316      5315      5318      5317      5315      5318
      5318      5321      5322      5318      5321      5323      5318      5321      5324
      5319      5318      5320      5319      5318      5321      5320      5318      5321
      5321      5324      5325      5321      5324      5326      5321      5324      5327
      5322      5321      5323      5322      5321      5324      5323      5321      5324
      5324      5327      5328      5324      5327      5329      5324      5327      5330
      5325      5324      5326      5325      5324      5327      5326      5324      5327
      5327      5330      5331      5327      5330      5332      5327      5330      5333
      5328      5327      5329      5328      5327      5330      5329      5327      5330
      5331      5330      5332      5331      5330      5333      5332      5330      5333
      5334      5337      5338      5334      5337      5339      5334      5337      5340
      5335      5334      5336      5335      5334      5337      5336      5334      5337
      5337      5340      5341      5337      5340      5342      5337      5340      5343
      5338      5337      5339      5338      5337      5340      5339      5337      5340
      5340      5343      5344      5340      5343      5345      5340      5343      5346
      5341      5340      5342      5341      5340      5343      5342      5340      5343
      5343      5346      5347      5343      5346      5348      5343      5346      5349
      5344      5343      5345      5344      5343      5346      5345      5343      5346
      5346      5349      5350      5346      5349      5351      5346      5349      5352
      5347      5346      5348      5347      5346      5349      5348      5346      5349
      5349      5352      5353      5349      5352      5354      5349      5352      5355
      5350      5349      5351      5350      5349      5352      5351      5349      5352
      5352      5355      5356      5352      5355      5357      5352      5355      5358
      5353      5352      5354      5353      5352      5355      5354      5352      5355
      5355      5358      5359      5355      5358      5360      5355      5358      5361
      5356      5355      5357      5356      5355      5358      5357      5355      5358
      5358      5361      5362      5358      5361      5363      5358      5361      5364
      5359      5358      5360      5359      5358      5361      5360      5358      5361
      5361      5364      5365      5361      5364      5366      5361      5364      5367
      5362      5361      5363      5362      5361      5364      5363      5361      5364
      5364      5367      5368      5364      5367      5369      5364      5367      5370
      5365      5364      5366      5365      5364      5367      5366      5364      5367
      5367      5370      5371      5367      5370      5372      5367      5370      5373
      5368      5367      5369      5368      5367      5370      5369      5367      5370
      5370      5373      5374      5370      5373      5375      5370      5373      5376
      5371      5370      5372      5371      5370      5373      5372      5370      5373
      5374      5373      5375      5374      5373      5376      5375      5373      5376
      5377      5378      5379      5377      5378      5380      5377      5378      5393
      5377      5381      5382      5377      5381      5383      5377      5381      5384
      5377      5385      5386      5377      5385      5387      5377      5385      5388
      5377      5389      5390      5377      5389      5391      5377      5389      5392
      5378      5377      5381      5378      5377      5385      5378      5377      5389
      5378      5393      5394      5378      5393      5395      5378      5393      5399
      5379      5378      5380      5379      5378      5393      5380      5378      5393
      5381      5377      5385      5381      5377      5389      5382      5381      5383
      5382      5381      5384      5383      5381      5384      5385      5377      5389
      5386      5385      5387      5386      5385      5388      5387      5385      5388
      5390      5389      5391      5390      5389      5392      5391      5389      5392
      5393      5399      5396      5394      5393      5395      5394      5393      5399
      5395      5393      5399      5396      5400      5401      5397      5396      5398
      5397      5396      5399      5397      5396      5400      5398      5396      5399
      5398      5396      5400      5399      5396      5400      5400      5401      5402
      5400      5401      5403      5400      5401      5404      5401      5404      5405
      5401      5404      5406      5401      5404      5412      5402      5401      5403
      5402      5401      5404      5403      5401      5404      5404      5406      5407
      5404      5412      5413      5404      5412      5414      5404      5412      5415
      5405      5404      5406      5405      5404      5412      5406      5404      5412
      5406      5407      5408      5406      5407      5409      5407      5409      5410
      5407      5409      5411      5407      5409      5421      5408      5407      5409
      5409      5421      5422      5409      5421      5423      5409      5421      5424
      5410      5409      5411      5410      5409      5421      5411      5409      5421
      5412      5415      5416      5413      5412      5414      5413      5412      5415
      5414      5412      5415      5415      5416      5417      5415      5416      5418
      5416      5418      5419      5416      5418      5420      5416      5418      5468
      5417      5416      5418      5418      5468      5469      5418      5468      5470
      5418      5468      5471      5419      5418      5420      5419      5418      5468
      5420      5418      5468      5421      5424      5425      5421      5424      5426
      5421      5424      5427      5422      5421      5423      5422      5421      5424
      5423      5421      5424      5424      5427      5428      5424      5427      5429
      5424      5427      5430      5425      5424      5426      5425      5424      5427
      5426      5424      5427      5427      5430      5431      5427      5430      5432
      5427      5430      5433      5428      5427      5429      5428      5427      5430
      5429      5427      5430      5430      5433      5434      5430      5433      5435
      5430      5433      5436      5431      5430      5432      5431      5430      5433
      5432      5430      5433      5433      5436      5437      5433      5436      5438
      5433      5436      5439      5434      5433      5435      5434      5433      5436
      5435      5433      5436      5436      5439      5440      5436      5439      5441
      5437      5436      5438      5437      5436      5439      5438      5436      5439
      5439      5441      5442      5439      5441      5443      5440      5439      5441
      5441      5443      5444      5441      5443      5445      5441      5443      5446
      5442      5441      5443      5443      5446      5447      5443      5446      5448
      5443      5446      5449      5444      5443      5445      5444      5443      5446
      5445      5443      5446      5446      5449      5450      5446      5449      5451
      5446      5449      5452      5447      5446      5448      5447      5446      5449
      5448      5446      5449      5449      5452      5453      5449      5452      5454
      5449      5452      5455      5450      5449      5451      5450      5449      5452
      5451      5449      5452      5452      5455      5456      5452      5455      5457
      5452      5455      5458      5453      5452      5454      5453      5452      5455
      5454      5452      5455      5455      5458      5459      5455      5458      5460
      5455      5458      5461      5456      5455      5457      5456      5455      5458
      5457      5455      5458      5458      5461      5462      5458      5461      5463
      5458      5461      5464      5459      5458      5460      5459      5458      5461
      5460      5458      5461      5461      5464      5465      5461      5464      5466
      5461      5464      5467      5462      5461      5463      5462      5461      5464
      5463      5461      5464      5465      5464      5466      5465      5464      5467
      5466      5464      5467      5468      5471      5472      5468      5471      5473
      5468      5471      5474      5469      5468      5470      5469      5468      5471
      5470      5468      5471      5471      5474      5475      5471      5474      5476
      5471      5474      5477      5472      5471      5473      5472      5471      5474
      5473      5471      5474      5474      5477      5478      5474      5477      5479
      5474      5477      5480      5475      5474      5476      5475      5474      5477
      5476      5474      5477      5477      5480      5481      5477      5480      5482
      5477      5480      5483      5478      5477      5479      5478      5477      5480
      5479      5477      5480      5480      5483      5484      5480      5483      5485
      5480      5483      5486      5481      5480      5482      5481      5480      5483
      5482      5480      5483      5483      5486      5487      5483      5486      5488
      5483      5486      5489      5484      5483      5485      5484      5483      5486
      5485      5483      5486      5486      5489      5490      5486      5489      5491
      5486      5489      5492      5487      5486      5488      5487      5486      5489
      5488      5486      5489      5489      5492      5493      5489      5492      5494
      5489      5492      5495      5490      5489      5491      5490      5489      5492
      5491      5489      5492      5492      5495      5496      5492      5495      5497
      5492      5495      5498      5493      5492      5494      5493      5492      5495
      5494      5492      5495      5495      5498      5499      5495      5498      5500
      5495      5498      5501      5496      5495      5497      5496      5495      5498
      5497      5495      5498      5498      5501      5502      5498      5501      5503
      5498      5501      5504      5499      5498      5500      5499      5498      5501
      5500      5498      5501      5501      5504      5505      5501      5504      5506
      5501      5504      5507      5502      5501      5503      5502      5501      5504
      5503      5501      5504      5504      5507      5508      5504      5507      5509
      5504      5507      5510      5505      5504      5506      5505      5504      5507
      5506      5504      5507      5508      5507      5509      5508      5507      5510
      5509      5507      5510      5511      5512      5513      5511      5512      5514
      5511      5512      5527      5511      5515      5516      5511      5515      5517
      5511      5515      5518      5511      5519      5520      5511      5519      5521
      5511      5519      5522      5511      5523      5524      5511      5523      5525
      5511      5523      5526      5512      5511      5515      5512      5511      5519
      5512      5511      5523      5512      5527      5528      5512      5527      5529
      5512      5527      5533      5513      5512      5514      5513      5512      5527
      5514      5512      5527      5515      5511      5519      5515      5511      5523
      5516      5515      5517      5516      5515      5518      5517      5515      5518
      5519      5511      5523      5520      5519      5521      5520      5519      5522
      5521      5519      5522      5524      5523      5525      5524      5523      5526
      5525      5523      5526      5527      5533      5530      5528      5527      5529
      5528      5527      5533      5529      5527      5533      5530      5534      5535
      5531      5530      5532      5531      5530      5533      5531      5530      5534
      5532      5530      5533      5532      5530      5534      5533      5530      5534
      5534      5535      5536      5534      5535      5537      5534      5535      5538
      5535      5538      5539      5535      5538      5540      5535      5538      5546
      5536      5535      5537      5536      5535      5538      5537      5535      5538
      5538      5540      5541      5538      5546      5547      5538      5546      5548
      5538      5546      5549      5539      5538      5540      5539      5538      5546
      5540      5538      5546      5540      5541      5542      5540      5541      5543
      5541      5543      5544      5541      5543      5545      5541      5543      5555
      5542      5541      5543      5543      5555      5556      5543      5555      5557
      5543      5555      5558      5544      5543      5545      5544      5543      5555
      5545      5543      5555      5546      5549      5550      5547      5546      5548
      5547      5546      5549      5548      5546      5549      5549      5550      5551
      5549      5550      5552      5550      5552      5553      5550      5552      5554
      5550      5552      5602      5551      5550      5552      5552      5602      5603
      5552      5602      5604      5552      5602      5605      5553      5552      5554
      5553      5552      5602      5554      5552      5602      5555      5558      5559
      5555      5558      5560      5555      5558      5561      5556      5555      5557
      5556      5555      5558      5557      5555      5558      5558      5561      5562
      5558      5561      5563      5558      5561      5564      5559      5558      5560
      5559      5558      5561      5560      5558      5561      5561      5564      5565
      5561      5564      5566      5561      5564      5567      5562      5561      5563
      5562      5561      5564      5563      5561      5564      5564      5567      5568
      5564      5567      5569      5564      5567      5570      5565      5564      5566
      5565      5564      5567      5566      5564      5567      5567      5570      5571
      5567      5570      5572      5567      5570      5573      5568      5567      5569
      5568      5567      5570      5569      5567      5570      5570      5573      5574
      5570      5573      5575      5571      5570      5572      5571      5570      5573
      5572      5570      5573      5573      5575      5576      5573      5575      5577
      5574      5573      5575      5575      5577      5578      5575      5577      5579
      5575      5577      5580      5576      5575      5577      5577      5580      5581
      5577      5580      5582      5577      5580      5583      5578      5577      5579
      5578      5577      5580      5579      5577      5580      5580      5583      5584
      5580      5583      5585      5580      5583      5586      5581      5580      5582
      5581      5580      5583      5582      5580      5583      5583      5586      5587
      5583      5586      5588      5583      5586      5589      5584      5583      5585
      5584      5583      5586      5585      5583      5586      5586      5589      5590
      5586      5589      5591      5586      5589      5592      5587      5586      5588
      5587      5586      5589      5588      5586      5589      5589      5592      5593
      5589      5592      5594      5589      5592      5595      5590      5589      5591
      5590      5589      5592      5591      5589      5592      5592      5595      5596
      5592      5595      5597      5592      5595      5598      5593      5592      5594
      5593      5592      5595      5594      5592      5595      5595      5598      5599
      5595      5598      5600      5595      5598      5601      5596      5595      5597
      5596      5595      5598      5597      5595      5598      5599      5598      5600
      5599      5598      5601      5600      5598      5601      5602      5605      5606
      5602      5605      5607      5602      5605      5608      5603      5602      5604
      5603      5602      5605      5604      5602      5605      5605      5608      5609
      5605      5608      5610      5605      5608      5611      5606      5605      5607
      5606      5605      5608      5607      5605      5608      5608      5611      5612
      5608      5611      5613      5608      5611      5614      5609      5608      5610
      5609      5608      5611      5610      5608      5611      5611      5614      5615
      5611      5614      5616      5611      5614      5617      5612      5611      5613
      5612      5611      5614      5613      5611      5614      5614      5617      5618
      5614      5617      5619      5614      5617      5620      5615      5614      5616
      5615      5614      5617      5616      5614      5617      5617      5620      5621
      5617      5620      5622      5617      5620      5623      5618      5617      5619
      5618      5617      5620      5619      5617      5620      5620      5623      5624
      5620      5623      5625      5620      5623      5626      5621      5620      5622
      5621      5620      5623      5622      5620      5623      5623      5626      5627
      5623      5626      5628      5623      5626      5629      5624      5623      5625
      5624      5623      5626      5625      5623      5626      5626      5629      5630
      5626      5629      5631      5626      5629      5632      5627      5626      5628
      5627      5626      5629      5628      5626      5629      5629      5632      5633
      5629      5632      5634      5629      5632      5635      5630      5629      5631
      5630      5629      5632      5631      5629      5632      5632      5635      5636
      5632      5635      5637      5632      5635      5638      5633      5632      5634
      5633      5632      5635      5634      5632      5635      5635      5638      5639
      5635      5638      5640      5635      5638      5641      5636      5635      5637
      5636      5635      5638      5637      5635      5638      5638      5641      5642
      5638      5641      5643      5638      5641      5644      5639      5638      5640
      5639      5638      5641      5640      5638      5641      5642      5641      5643
      5642      5641      5644      5643      5641      5644      5645      5646      5647
      5645      5646      5648      5645      5646      5661      5645      5649      5650
      5645      5649      5651      5645      5649      5652      5645      5653      5654
      5645      5653      5655      5645      5653      5656      5645      5657      5658
      5645      5657      5659      5645      5657      5660      5646      5645      5649
      5646      5645      5653      5646      5645      5657      5646      5661      5662
      5646      5661      5663      5646      5661      5667      5647      5646      5648
      5647      5646      5661      5648      5646      5661      5649      5645      5653
      5649      5645      5657      5650      5649      5651      5650      5649      5652
      5651      5649      5652      5653      5645      5657      5654      5653      5655
      5654      5653      5656      5655      5653      5656      5658      5657      5659
      5658      5657      5660      5659      5657      5660      5661      5667      5664
      5662      5661      5663      5662      5661      5667      5663      5661      5667
      5664      5668      5669      5665      5664      5666      5665      5664      5667
      5665      5664      5668      5666      5664      5667      5666      5664      5668
      5667      5664      5668      5668      5669      5670      5668      5669      5671
      5668      5669      5672      5669      5672      5673      5669      5672      5674
      5669      5672      5680      5670      5669      5671      5670      5669      5672
      5671      5669      5672      5672      5674      5675      5672      5680      5681
      5672      5680      5682      5672      5680      5683      5673      5672      5674
      5673      5672      5680      5674      5672      5680      5674      5675      5676
      5674      5675      5677      5675      5677      5678      5675      5677      5679
      5675      5677      5689      5676      5675      5677      5677      5689      5690
      5677      5689      5691      5677      5689      5692      5678      5677      5679
      5678      5677      5689      5679      5677      5689      5680      5683      5684
      5681      5680      5682      5681      5680      5683      5682      5680      5683
      5683      5684      5685      5683      5684      5686      5684      5686      5687
      5684      5686      5688      5684      5686      5736      5685      5684      5686
      5686      5736      5737      5686      5736      5738      5686      5736      5739
      5687      5686      5688      5687      5686      5736      5688      5686      5736
      5689      5692      5693      5689      5692      5694      5689      5692      5695
      5690      5689      5691      5690      5689      5692      5691      5689      5692
      5692      5695      5696      5692      5695      5697      5692      5695      5698
      5693      5692      5694      5693      5692      5695      5694      5692      5695
      5695      5698      5699      5695      5698      5700      5695      5698      5701
      5696      5695      5697      5696      5695      5698      5697      5695      5698
      5698      5701      5702      5698      5701      5703      5698      5701      5704
      5699      5698      5700      5699      5698      5701      5700      5698      5701
      5701      5704      5705      5701      5704      5706      5701      5704      5707
      5702      5701      5703      5702      5701      5704      5703      5701      5704
      5704      5707      5708      5704      5707      5709      5705      5704      5706
      5705      5704      5707      5706      5704      5707      5707      5709      5710
      5707      5709      5711      5708      5707      5709      5709      5711      5712
      5709      5711      5713      5709      5711      5714      5710      5709      5711
      5711      5714      5715      5711      5714      5716      5711      5714      5717
      5712      5711      5713      5712      5711      5714      5713      5711      5714
      5714      5717      5718      5714      5717      5719      5714      5717      5720
      5715      5714      5716      5715      5714      5717      5716      5714      5717
      5717      5720      5721      5717      5720      5722      5717      5720      5723
      5718      5717      5719      5718      5717      5720      5719      5717      5720
      5720      5723      5724      5720      5723      5725      5720      5723      5726
      5721      5720      5722      5721      5720      5723      5722      5720      5723
      5723      5726      5727      5723      5726      5728      5723      5726      5729
      5724      5723      5725      5724      5723      5726      5725      5723      5726
      5726      5729      5730      5726      5729      5731      5726      5729      5732
      5727      5726      5728      5727      5726      5729      5728      5726      5729
      5729      5732      5733      5729      5732      5734      5729      5732      5735
      5730      5729      5731      5730      5729      5732      5731      5729      5732
      5733      5732      5734      5733      5732      5735      5734      5732      5735
      5736      5739      5740      5736      5739      5741      5736      5739      5742
      5737      5736      5738      5737      5736      5739      5738      5736      5739
      5739      5742      5743      5739      5742      5744      5739      5742      5745
      5740      5739      5741      5740      5739      5742      5741      5739      5742
      5742      5745      5746      5742      5745      5747      5742      5745      5748
      5743      5742      5744      5743      5742      5745      5744      5742      5745
      5745      5748      5749      5745      5748      5750      5745      5748      5751
      5746      5745      5747      5746      5745      5748      5747      5745      5748
      5748      5751      5752      5748      5751      5753      5748      5751      5754
      5749      5748      5750      5749      5748      5751      5750      5748      5751
      5751      5754      5755      5751      5754      5756      5751      5754      5757
      5752      5751      5753      5752      5751      5754      5753      5751      5754
      5754      5757      5758      5754      5757      5759      5754      5757      5760
      5755      5754      5756      5755      5754      5757      5756      5754      5757
      5757      5760      5761      5757      5760      5762      5757      5760      5763
      5758      5757      5759      5758      5757      5760      5759      5757      5760
      5760      5763      5764      5760      5763      5765      5760      5763      5766
      5761      5760      5762      5761      5760      5763      5762      5760      5763
      5763      5766      5767      5763      5766      5768      5763      5766      5769
      5764      5763      5765      5764      5763      5766      5765      5763      5766
      5766      5769      5770      5766      5769      5771      5766      5769      5772
      5767      5766      5768      5767      5766      5769      5768      5766      5769
      5769      5772      5773      5769      5772      5774      5769      5772      5775
      5770      5769      5771      5770      5769      5772      5771      5769      5772
      5772      5775      5776      5772      5775      5777      5772      5775      5778
      5773      5772      5774      5773      5772      5775      5774      5772      5775
      5776      5775      5777      5776      5775      5778      5777      5775      5778
      5779      5780      5781      5779      5780      5782      5779      5780      5795
      5779      5783      5784      5779      5783      5785      5779      5783      5786
      5779      5787      5788      5779      5787      5789      5779      5787      5790
      5779      5791      5792      5779      5791      5793      5779      5791      5794
      5780      5779      5783      5780      5779      5787      5780      5779      5791
      5780      5795      5796      5780      5795      5797      5780      5795      5801
      5781      5780      5782      5781      5780      5795      5782      5780      5795
      5783      5779      5787      5783      5779      5791      5784      5783      5785
      5784      5783      5786      5785      5783      5786      5787      5779      5791
      5788      5787      5789      5788      5787      5790      5789      5787      5790
      5792      5791      5793      5792      5791      5794      5793      5791      5794
      5795      5801      5798      5796      5795      5797      5796      5795      5801
      5797      5795      5801      5798      5802      5803      5799      5798      5800
      5799      5798      5801      5799      5798      5802      5800      5798      5801
      5800      5798      5802      5801      5798      5802      5802      5803      5804
      5802      5803      5805      5802      5803      5806      5803      5806      5807
      5803      5806      5808      5803      5806      5814      5804      5803      5805
      5804      5803      5806      5805      5803      5806      5806      5808      5809
      5806      5814      5815      5806      5814      5816      5806      5814      5817
      5807      5806      5808      5807      5806      5814      5808      5806      5814
      5808      5809      5810      5808      5809      5811      5809      5811      5812
      5809      5811      5813      5809      5811      5823      5810      5809      5811
      5811      5823      5824      5811      5823      5825      5811      5823      5826
      5812      5811      5813      5812      5811      5823      5813      5811      5823
      5814      5817      5818      5815      5814      5816      5815      5814      5817
      5816      5814      5817      5817      5818      5819      5817      5818      5820
      5818      5820      5821      5818      5820      5822      5818      5820      5870
      5819      5818      5820      5820      5870      5871      5820      5870      5872
      5820      5870      5873      5821      5820      5822      5821      5820      5870
      5822      5820      5870      5823      5826      5827      5823      5826      5828
      5823      5826      5829      5824      5823      5825      5824      5823      5826
      5825      5823      5826      5826      5829      5830      5826      5829      5831
      5826      5829      5832      5827      5826      5828      5827      5826      5829
      5828      5826      5829      5829      5832      5833      5829      5832      5834
      5829      5832      5835      5830      5829      5831      5830      5829      5832
      5831      5829      5832      5832      5835      5836      5832      5835      5837
      5832      5835      5838      5833      5832      5834      5833      5832      5835
      5834      5832      5835      5835      5838      5839      5835      5838      5840
      5835      5838      5841      5836      5835      5837      5836      5835      5838
      5837      5835      5838      5838      5841      5842      5838      5841      5843
      5839      5838      5840      5839      5838      5841      5840      5838      5841
      5841      5843      5844      5841      5843      5845      5842      5841      5843
      5843      5845      5846      5843      5845      5847      5843      5845      5848
      5844      5843      5845      5845      5848      5849      5845      5848      5850
      5845      5848      5851      5846      5845      5847      5846      5845      5848
      5847      5845      5848      5848      5851      5852      5848      5851      5853
      5848      5851      5854      5849      5848      5850      5849      5848      5851
      5850      5848      5851      5851      5854      5855      5851      5854      5856
      5851      5854      5857      5852      5851      5853      5852      5851      5854
      5853      5851      5854      5854      5857      5858      5854      5857      5859
      5854      5857      5860      5855      5854      5856      5855      5854      5857
      5856      5854      5857      5857      5860      5861      5857      5860      5862
      5857      5860      5863      5858      5857      5859      5858      5857      5860
      5859      5857      5860      5860      5863      5864      5860      5863      5865
      5860      5863      5866      5861      5860      5862      5861      5860      5863
      5862      5860      5863      5863      5866      5867      5863      5866      5868
      5863      5866      5869      5864      5863      5865      5864      5863      5866
      5865      5863      5866      5867      5866      5868      5867      5866      5869
      5868      5866      5869      5870      5873      5874      5870      5873      5875
      5870      5873      5876      5871      5870      5872      5871      5870      5873
      5872      5870      5873      5873      5876      5877      5873      5876      5878
      5873      5876      5879      5874      5873      5875      5874      5873      5876
      5875      5873      5876      5876      5879      5880      5876      5879      5881
      5876      5879      5882      5877      5876      5878      5877      5876      5879
      5878      5876      5879      5879      5882      5883      5879      5882      5884
      5879      5882      5885      5880      5879      5881      5880      5879      5882
      5881      5879      5882      5882      5885      5886      5882      5885      5887
      5882      5885      5888      5883      5882      5884      5883      5882      5885
      5884      5882      5885      5885      5888      5889      5885      5888      5890
      5885      5888      5891      5886      5885      5887      5886      5885      5888
      5887      5885      5888      5888      5891      5892      5888      5891      5893
      5888      5891      5894      5889      5888      5890      5889      5888      5891
      5890      5888      5891      5891      5894      5895      5891      5894      5896
      5891      5894      5897      5892      5891      5893      5892      5891      5894
      5893      5891      5894      5894      5897      5898      5894      5897      5899
      5894      5897      5900      5895      5894      5896      5895      5894      5897
      5896      5894      5897      5897      5900      5901      5897      5900      5902
      5897      5900      5903      5898      5897      5899      5898      5897      5900
      5899      5897      5900      5900      5903      5904      5900      5903      5905
      5900      5903      5906      5901      5900      5902      5901      5900      5903
      5902      5900      5903      5903      5906      5907      5903      5906      5908
      5903      5906      5909      5904      5903      5905      5904      5903      5906
      5905      5903      5906      5906      5909      5910      5906      5909      5911
      5906      5909      5912      5907      5906      5908      5907      5906      5909
      5908      5906      5909      5910      5909      5911      5910      5909      5912
      5911      5909      5912      5913      5914      5915      5913      5914      5916
      5913      5914      5929      5913      5917      5918      5913      5917      5919
      5913      5917      5920      5913      5921      5922      5913      5921      5923
      5913      5921      5924      5913      5925      5926      5913      5925      5927
      5913      5925      5928      5914      5913      5917      5914      5913      5921
      5914      5913      5925      5914      5929      5930      5914      5929      5931
      5914      5929      5935      5915      5914      5916      5915      5914      5929
      5916      5914      5929      5917      5913      5921      5917      5913      5925
      5918      5917      5919      5918      5917      5920      5919      5917      5920
      5921      5913      5925      5922      5921      5923      5922      5921      5924
      5923      5921      5924      5926      5925      5927      5926      5925      5928
      5927      5925      5928      5929      5935      5932      5930      5929      5931
      5930      5929      5935      5931      5929      5935      5932      5936      5937
      5933      5932      5934      5933      5932      5935      5933      5932      5936
      5934      5932      5935      5934      5932      5936      5935      5932      5936
      5936      5937      5938      5936      5937      5939      5936      5937      5940
      5937      5940      5941      5937      5940      5942      5937      5940      5948
      5938      5937      5939      5938      5937      5940      5939      5937      5940
      5940      5942      5943      5940      5948      5949      5940      5948      5950
      5940      5948      5951      5941      5940      5942      5941      5940      5948
      5942      5940      5948      5942      5943      5944      5942      5943      5945
      5943      5945      5946      5943      5945      5947      5943      5945      5957
      5944      5943      5945      5945      5957      5958      5945      5957      5959
      5945      5957      5960      5946      5945      5947      5946      5945      5957
      5947      5945      5957      5948      5951      5952      5949      5948      5950
      5949      5948      5951      5950      5948      5951      5951      5952      5953
      5951      5952      5954      5952      5954      5955      5952      5954      5956
      5952      5954      6004      5953      5952      5954      5954      6004      6005
      5954      6004      6006      5954      6004      6007      5955      5954      5956
      5955      5954      6004      5956      5954      6004      5957      5960      5961
      5957      5960      5962      5957      5960      5963      5958      5957      5959
      5958      5957      5960      5959      5957      5960      5960      5963      5964
      5960      5963      5965      5960      5963      5966      5961      5960      5962
      5961      5960      5963      5962      5960      5963      5963      5966      5967
      5963      5966      5968      5963      5966      5969      5964      5963      5965
      5964      5963      5966      5965      5963      5966      5966      5969      5970
      5966      5969      5971      5966      5969      5972      5967      5966      5968
      5967      5966      5969      5968      5966      5969      5969      5972      5973
      5969      5972      5974      5969      5972      5975      5970      5969      5971
      5970      5969      5972      5971      5969      5972      5972      5975      5976
      5972      5975      5977      5973      5972      5974      5973      5972      5975
      5974      5972      5975      5975      5977      5978      5975      5977      5979
      5976      5975      5977      5977      5979      5980      5977      5979      5981
      5977      5979      5982      5978      5977      5979      5979      5982      5983
      5979      5982      5984      5979      5982      5985      5980      5979      5981
      5980      5979      5982      5981      5979      5982      5982      5985      5986
      5982      5985      5987      5982      5985      5988      5983      5982      5984
      5983      5982      5985      5984      5982      5985      5985      5988      5989
      5985      5988      5990      5985      5988      5991      5986      5985      5987
      5986      5985      5988      5987      5985      5988      5988      5991      5992
      5988      5991      5993      5988      5991      5994      5989      5988      5990
      5989      5988      5991      5990      5988      5991      5991      5994      5995
      5991      5994      5996      5991      5994      5997      5992      5991      5993
      5992      5991      5994      5993      5991      5994      5994      5997      5998
      5994      5997      5999      5994      5997      6000      5995      5994      5996
      5995      5994      5997      5996      5994      5997      5997      6000      6001
      5997      6000      6002      5997      6000      6003      5998      5997      5999
      5998      5997      6000      5999      5997      6000      6001      6000      6002
      6001      6000      6003      6002      6000      6003      6004      6007      6008
      6004      6007      6009      6004      6007      6010      6005      6004      6006
      6005      6004      6007      6006      6004      6007      6007      6010      6011
      6007      6010      6012      6007      6010      6013      6008      6007      6009
      6008      6007      6010      6009      6007      6010      6010      6013      6014
      6010      6013      6015      6010      6013      6016      6011      6010      6012
      6011      6010      6013      6012      6010      6013      6013      6016      6017
      6013      6016      6018      6013      6016      6019      6014      6013      6015
      6014      6013      6016      6015      6013      6016      6016      6019      6020
      6016      6019      6021      6016      6019      6022      6017      6016      6018
      6017      6016      6019      6018      6016      6019      6019      6022      6023
      6019      6022      6024      6019      6022      6025      6020      6019      6021
      6020      6019      6022      6021      6019      6022      6022      6025      6026
      6022      6025      6027      6022      6025      6028      6023      6022      6024
      6023      6022      6025      6024      6022      6025      6025      6028      6029
      6025      6028      6030      6025      6028      6031      6026      6025      6027
      6026      6025      6028      6027      6025      6028      6028      6031      6032
      6028      6031      6033      6028      6031      6034      6029      6028      6030
      6029      6028      6031      6030      6028      6031      6031      6034      6035
      6031      6034      6036      6031      6034      6037      6032      6031      6033
      6032      6031      6034      6033      6031      6034      6034      6037      6038
      6034      6037      6039      6034      6037      6040      6035      6034      6036
      6035      6034      6037      6036      6034      6037      6037      6040      6041
      6037      6040      6042      6037      6040      6043      6038      6037      6039
      6038      6037      6040      6039      6037      6040      6040      6043      6044
      6040      6043      6045      6040      6043      6046      6041      6040      6042
      6041      6040      6043      6042      6040      6043      6044      6043      6045
      6044      6043      6046      6045      6043      6046      6047      6048      6049
      6047      6048      6050      6047      6048      6063      6047      6051      6052
      6047      6051      6053      6047      6051      6054      6047      6055      6056
      6047      6055      6057      6047      6055      6058      6047      6059      6060
      6047      6059      6061      6047      6059      6062      6048      6047      6051
      6048      6047      6055      6048      6047      6059      6048      6063      6064
      6048      6063      6065      6048      6063      6069      6049      6048      6050
      6049      6048      6063      6050      6048      6063      6051      6047      6055
      6051      6047      6059      6052      6051      6053      6052      6051      6054
      6053      6051      6054      6055      6047      6059      6056      6055      6057
      6056      6055      6058      6057      6055      6058      6060      6059      6061
      6060      6059      6062      6061      6059      6062      6063      6069      6066
      6064      6063      6065      6064      6063      6069      6065      6063      6069
      6066      6070      6071      6067      6066      6068      6067      6066      6069
      6067      6066      6070      6068      6066      6069      6068      6066      6070
      6069      6066      6070      6070      6071      6072      6070      6071      6073
      6070      6071      6074      6071      6074      6075      6071      6074      6076
      6071      6074      6082      6072      6071      6073      6072      6071      6074
      6073      6071      6074      6074      6076      6077      6074      6082      6083
      6074      6082      6084      6074      6082      6085      6075      6074      6076
      6075      6074      6082      6076      6074      6082      6076      6077      6078
      6076      6077      6079      6077      6079      6080      6077      6079      6081
      6077      6079      6091      6078      6077      6079      6079      6091      6092
      6079      6091      6093      6079      6091      6094      6080      6079      6081
      6080      6079      6091      6081      6079      6091      6082      6085      6086
      6083      6082      6084      6083      6082      6085      6084      6082      6085
      6085      6086      6087      6085      6086      6088      6086      6088      6089
      6086      6088      6090      6086      6088      6138      6087      6086      6088
      6088      6138      6139      6088      6138      6140      6088      6138      6141
      6089      6088      6090      6089      6088      6138      6090      6088      6138
      6091      6094      6095      6091      6094      6096      6091      6094      6097
      6092      6091      6093      6092      6091      6094      6093      6091      6094
      6094      6097      6098      6094      6097      6099      6094      6097      6100
      6095      6094      6096      6095      6094      6097      6096      6094      6097
      6097      6100      6101      6097      6100      6102      6097      6100      6103
      6098      6097      6099      6098      6097      6100      6099      6097      6100
      6100      6103      6104      6100      6103      6105      6100      6103      6106
      6101      6100      6102      6101      6100      6103      6102      6100      6103
      6103      6106      6107      6103      6106      6108      6103      6106      6109
      6104      6103      6105      6104      6103      6106      6105      6103      6106
      6106      6109      6110      6106      6109      6111      6107      6106      6108
      6107      6106      6109      6108      6106      6109      6109      6111      6112
      6109      6111      6113      6110      6109      6111      6111      6113      6114
      6111      6113      6115      6111      6113      6116      6112      6111      6113
      6113      6116      6117      6113      6116      6118      6113      6116      6119
      6114      6113      6115      6114      6113      6116      6115      6113      6116
      6116      6119      6120      6116      6119      6121      6116      6119      6122
      6117      6116      6118      6117      6116      6119      6118      6116      6119
      6119      6122      6123      6119      6122      6124      6119      6122      6125
      6120      6119      6121      6120      6119      6122      6121      6119      6122
      6122      6125      6126      6122      6125      6127      6122      6125      6128
      6123      6122      6124      6123      6122      6125      6124      6122      6125
      6125      6128      6129      6125      6128      6130      6125      6128      6131
      6126      6125      6127      6126      6125      6128      6127      6125      6128
      6128      6131      6132      6128      6131      6133      6128      6131      6134
      6129      6128      6130      6129      6128      6131      6130      6128      6131
      6131      6134      6135      6131      6134      6136      6131      6134      6137
      6132      6131      6133      6132      6131      6134      6133      6131      6134
      6135      6134      6136      6135      6134      6137      6136      6134      6137
      6138      6141      6142      6138      6141      6143      6138      6141      6144
      6139      6138      6140      6139      6138      6141      6140      6138      6141
      6141      6144      6145      6141      6144      6146      6141      6144      6147
      6142      6141      6143      6142      6141      6144      6143      6141      6144
      6144      6147      6148      6144      6147      6149      6144      6147      6150
      6145      6144      6146      6145      6144      6147      6146      6144      6147
      6147      6150      6151      6147      6150      6152      6147      6150      6153
      6148      6147      6149      6148      6147      6150      6149      6147      6150
      6150      6153      6154      6150      6153      6155      6150      6153      6156
      6151      6150      6152      6151      6150      6153      6152      6150      6153
      6153      6156      6157      6153      6156      6158      6153      6156      6159
      6154      6153      6155      6154      6153      6156      6155      6153      6156
      6156      6159      6160      6156      6159      6161      6156      6159      6162
      6157      6156      6158      6157      6156      6159      6158      6156      6159
      6159      6162      6163      6159      6162      6164      6159      6162      6165
      6160      6159      6161      6160      6159      6162      6161      6159      6162
      6162      6165      6166      6162      6165      6167      6162      6165      6168
      6163      6162      6164      6163      6162      6165      6164      6162      6165
      6165      6168      6169      6165      6168      6170      6165      6168      6171
      6166      6165      6167      6166      6165      6168      6167      6165      6168
      6168      6171      6172      6168      6171      6173      6168      6171      6174
      6169      6168      6170      6169      6168      6171      6170      6168      6171
      6171      6174      6175      6171      6174      6176      6171      6174      6177
      6172      6171      6173      6172      6171      6174      6173      6171      6174
      6174      6177      6178      6174      6177      6179      6174      6177      6180
      6175      6174      6176      6175      6174      6177      6176      6174      6177
      6178      6177      6179      6178      6177      6180      6179      6177      6180
      6181      6182      6183      6181      6182      6184      6181      6182      6197
      6181      6185      6186      6181      6185      6187      6181      6185      6188
      6181      6189      6190      6181      6189      6191      6181      6189      6192
      6181      6193      6194      6181      6193      6195      6181      6193      6196
      6182      6181      6185      6182      6181      6189      6182      6181      6193
      6182      6197      6198      6182      6197      6199      6182      6197      6203
      6183      6182      6184      6183      6182      6197      6184      6182      6197
      6185      6181      6189      6185      6181      6193      6186      6185      6187
      6186      6185      6188      6187      6185      6188      6189      6181      6193
      6190      6189      6191      6190      6189      6192      6191      6189      6192
      6194      6193      6195      6194      6193      6196      6195      6193      6196
      6197      6203      6200      6198      6197      6199      6198      6197      6203
      6199      6197      6203      6200      6204      6205      6201      6200      6202
      6201      6200      6203      6201      6200      6204      6202      6200      6203
      6202      6200      6204      6203      6200      6204      6204      6205      6206
      6204      6205      6207      6204      6205      6208      6205      6208      6209
      6205      6208      6210      6205      6208      6216      6206      6205      6207
      6206      6205      6208      6207      6205      6208      6208      6210      6211
      6208      6216      6217      6208      6216      6218      6208      6216      6219
      6209      6208      6210      6209      6208      6216      6210      6208      6216
      6210      6211      6212      6210      6211      6213      6211      6213      6214
      6211      6213      6215      6211      6213      6225      6212      6211      6213
      6213      6225      6226      6213      6225      6227      6213      6225      6228
      6214      6213      6215      6214      6213      6225      6215      6213      6225
      6216      6219      6220      6217      6216      6218      6217      6216      6219
      6218      6216      6219      6219      6220      6221      6219      6220      6222
      6220      6222      6223      6220      6222      6224      6220      6222      6272
      6221      6220      6222      6222      6272      6273      6222      6272      6274
      6222      6272      6275      6223      6222      6224      6223      6222      6272
      6224      6222      6272      6225      6228      6229      6225      6228      6230
      6225      6228      6231      6226      6225      6227      6226      6225      6228
      6227      6225      6228      6228      6231      6232      6228      6231      6233
      6228      6231      6234      6229      6228      6230      6229      6228      6231
      6230      6228      6231      6231      6234      6235      6231      6234      6236
      6231      6234      6237      6232      6231      6233      6232      6231      6234
      6233      6231      6234      6234      6237      6238      6234      6237      6239
      6234      6237      6240      6235      6234      6236      6235      6234      6237
      6236      6234      6237      6237      6240      6241      6237      6240      6242
      6237      6240      6243      6238      6237      6239      6238      6237      6240
      6239      6237      6240      6240      6243      6244      6240      6243      6245
      6241      6240      6242      6241      6240      6243      6242      6240      6243
      6243      6245      6246      6243      6245      6247      6244      6243      6245
      6245      6247      6248      6245      6247      6249      6245      6247      6250
      6246      6245      6247      6247      6250      6251      6247      6250      6252
      6247      6250      6253      6248      6247      6249      6248      6247      6250
      6249      6247      6250      6250      6253      6254      6250      6253      6255
      6250      6253      6256      6251      6250      6252      6251      6250      6253
      6252      6250      6253      6253      6256      6257      6253      6256      6258
      6253      6256      6259      6254      6253      6255      6254      6253      6256
      6255      6253      6256      6256      6259      6260      6256      6259      6261
      6256      6259      6262      6257      6256      6258      6257      6256      6259
      6258      6256      6259      6259      6262      6263      6259      6262      6264
      6259      6262      6265      6260      6259      6261      6260      6259      6262
      6261      6259      6262      6262      6265      6266      6262      6265      6267
      6262      6265      6268      6263      6262      6264      6263      6262      6265
      6264      6262      6265      6265      6268      6269      6265      6268      6270
      6265      6268      6271      6266      6265      6267      6266      6265      6268
      6267      6265      6268      6269      6268      6270      6269      6268      6271
      6270      6268      6271      6272      6275      6276      6272      6275      6277
      6272      6275      6278      6273      6272      6274      6273      6272      6275
      6274      6272      6275      6275      6278      6279      6275      6278      6280
      6275      6278      6281      6276      6275      6277      6276      6275      6278
      6277      6275      6278      6278      6281      6282      6278      6281      6283
      6278      6281      6284      6279      6278      6280      6279      6278      6281
      6280      6278      6281      6281      6284      6285      6281      6284      6286
      6281      6284      6287      6282      6281      6283      6282      6281      6284
      6283      6281      6284      6284      6287      6288      6284      6287      6289
      6284      6287      6290      6285      6284      6286      6285      6284      6287
      6286      6284      6287      6287      6290      6291      6287      6290      6292
      6287      6290      6293      6288      6287      6289      6288      6287      6290
      6289      6287      6290      6290      6293      6294      6290      6293      6295
      6290      6293      6296      6291      6290      6292      6291      6290      6293
      6292      6290      6293      6293      6296      6297      6293      6296      6298
      6293      6296      6299      6294      6293      6295      6294      6293      6296
      6295      6293      6296      6296      6299      6300      6296      6299      6301
      6296      6299      6302      6297      6296      6298      6297      6296      6299
      6298      6296      6299      6299      6302      6303      6299      6302      6304
      6299      6302      6305      6300      6299      6301      6300      6299      6302
      6301      6299      6302      6302      6305      6306      6302      6305      6307
      6302      6305      6308      6303      6302      6304      6303      6302      6305
      6304      6302      6305      6305      6308      6309      6305      6308      6310
      6305      6308      6311      6306      6305      6307      6306      6305      6308
      6307      6305      6308      6308      6311      6312      6308      6311      6313
      6308      6311      6314      6309      6308      6310      6309      6308      6311
      6310      6308      6311      6312      6311      6313      6312      6311      6314
      6313      6311      6314      6315      6316      6317      6315      6316      6318
      6315      6316      6331      6315      6319      6320      6315      6319      6321
      6315      6319      6322      6315      6323      6324      6315      6323      6325
      6315      6323      6326      6315      6327      6328      6315      6327      6329
      6315      6327      6330      6316      6315      6319      6316      6315      6323
      6316      6315      6327      6316      6331      6332      6316      6331      6333
      6316      6331      6337      6317      6316      6318      6317      6316      6331
      6318      6316      6331      6319      6315      6323      6319      6315      6327
      6320      6319      6321      6320      6319      6322      6321      6319      6322
      6323      6315      6327      6324      6323      6325      6324      6323      6326
      6325      6323      6326      6328      6327      6329      6328      6327      6330
      6329      6327      6330      6331      6337      6334      6332      6331      6333
      6332      6331      6337      6333      6331      6337      6334      6338      6339
      6335      6334      6336      6335      6334      6337      6335      6334      6338
      6336      6334      6337      6336      6334      6338      6337      6334      6338
      6338      6339      6340      6338      6339      6341      6338      6339      6342
      6339      6342      6343      6339      6342      6344      6339      6342      6350
      6340      6339      6341      6340      6339      6342      6341      6339      6342
      6342      6344      6345      6342      6350      6351      6342      6350      6352
      6342      6350      6353      6343      6342      6344      6343      6342      6350
      6344      6342      6350      6344      6345      6346      6344      6345      6347
      6345      6347      6348      6345      6347      6349      6345      6347      6359
      6346      6345      6347      6347      6359      6360      6347      6359      6361
      6347      6359      6362      6348      6347      6349      6348      6347      6359
      6349      6347      6359      6350      6353      6354      6351      6350      6352
      6351      6350      6353      6352      6350      6353      6353      6354      6355
      6353      6354      6356      6354      6356      6357      6354      6356      6358
      6354      6356      6406      6355      6354      6356      6356      6406      6407
      6356      6406      6408      6356      6406      6409      6357      6356      6358
      6357      6356      6406      6358      6356      6406      6359      6362      6363
      6359      6362      6364      6359      6362      6365      6360      6359      6361
      6360      6359      6362      6361      6359      6362      6362      6365      6366
      6362      6365      6367      6362      6365      6368      6363      6362      6364
      6363      6362      6365      6364      6362      6365      6365      6368      6369
      6365      6368      6370      6365      6368      6371      6366      6365      6367
      6366      6365      6368      6367      6365      6368      6368      6371      6372
      6368      6371      6373      6368      6371      6374      6369      6368      6370
      6369      6368      6371      6370      6368      6371      6371      6374      6375
      6371      6374      6376      6371      6374      6377      6372      6371      6373
      6372      6371      6374      6373      6371      6374      6374      6377      6378
      6374      6377      6379      6375      6374      6376      6375      6374      6377
      6376      6374      6377      6377      6379      6380      6377      6379      6381
      6378      6377      6379      6379      6381      6382      6379      6381      6383
      6379      6381      6384      6380      6379      6381      6381      6384      6385
      6381      6384      6386      6381      6384      6387      6382      6381      6383
      6382      6381      6384      6383      6381      6384      6384      6387      6388
      6384      6387      6389      6384      6387      6390      6385      6384      6386
      6385      6384      6387      6386      6384      6387      6387      6390      6391
      6387      6390      6392      6387      6390      6393      6388      6387      6389
      6388      6387      6390      6389      6387      6390      6390      6393      6394
      6390      6393      6395      6390      6393      6396      6391      6390      6392
      6391      6390      6393      6392      6390      6393      6393      6396      6397
      6393      6396      6398      6393      6396      6399      6394      6393      6395
      6394      6393      6396      6395      6393      6396      6396      6399      6400
      6396      6399      6401      6396      6399      6402      6397      6396      6398
      6397      6396      6399      6398      6396      6399      6399      6402      6403
      6399      6402      6404      6399      6402      6405      6400      6399      6401
      6400      6399      6402      6401      6399      6402      6403      6402      6404
      6403      6402      6405      6404      6402      6405      6406      6409      6410
      6406      6409      6411      6406      6409      6412      6407      6406      6408
      6407      6406      6409      6408      6406      6409      6409      6412      6413
      6409      6412      6414      6409      6412      6415      6410      6409      6411
      6410      6409      6412      6411      6409      6412      6412      6415      6416
      6412      6415      6417      6412      6415      6418      6413      6412      6414
      6413      6412      6415      6414      6412      6415      6415      6418      6419
      6415      6418      6420      6415      6418      6421      6416      6415      6417
      6416      6415      6418      6417      6415      6418      6418      6421      6422
      6418      6421      6423      6418      6421      6424      6419      6418      6420
      6419      6418      6421      6420      6418      6421      6421      6424      6425
      6421      6424      6426      6421      6424      6427      6422      6421      6423
      6422      6421      6424      6423      6421      6424      6424      6427      6428
      6424      6427      6429      6424      6427      6430      6425      6424      6426
      6425      6424      6427      6426      6424      6427      6427      6430      6431
      6427      6430      6432      6427      6430      6433      6428      6427      6429
      6428      6427      6430      6429      6427      6430      6430      6433      6434
      6430      6433      6435      6430      6433      6436      6431      6430      6432
      6431      6430      6433      6432      6430      6433      6433      6436      6437
      6433      6436      6438      6433      6436      6439      6434      6433      6435
      6434      6433      6436      6435      6433      6436      6436      6439      6440
      6436      6439      6441      6436      6439      6442      6437      6436      6438
      6437      6436      6439      6438      6436      6439      6439      6442      6443
      6439      6442      6444      6439      6442      6445      6440      6439      6441
      6440      6439      6442      6441      6439      6442      6442      6445      6446
      6442      6445      6447      6442      6445      6448      6443      6442      6444
      6443      6442      6445      6444      6442      6445      6446      6445      6447
      6446      6445      6448      6447      6445      6448      6449      6450      6451
      6449      6450      6452      6449      6450      6465      6449      6453      6454
      6449      6453      6455      6449      6453      6456      6449      6457      6458
      6449      6457      6459      6449      6457      6460      6449      6461      6462
      6449      6461      6463      6449      6461      6464      6450      6449      6453
      6450      6449      6457      6450      6449      6461      6450      6465      6466
      6450      6465      6467      6450      6465      6471      6451      6450      6452
      6451      6450      6465      6452      6450      6465      6453      6449      6457
      6453      6449      6461      6454      6453      6455      6454      6453      6456
      6455      6453      6456      6457      6449      6461      6458      6457      6459
      6458      6457      6460      6459      6457      6460      6462      6461      6463
      6462      6461      6464      6463      6461      6464      6465      6471      6468
      6466      6465      6467      6466      6465      6471      6467      6465      6471
      6468      6472      6473      6469      6468      6470      6469      6468      6471
      6469      6468      6472      6470      6468      6471      6470      6468      6472
      6471      6468      6472      6472      6473      6474      6472      6473      6475
      6472      6473      6476      6473      6476      6477      6473      6476      6478
      6473      6476      6484      6474      6473      6475      6474      6473      6476
      6475      6473      6476      6476      6478      6479      6476      6484      6485
      6476      6484      6486      6476      6484      6487      6477      6476      6478
      6477      6476      6484      6478      6476      6484      6478      6479      6480
      6478      6479      6481      6479      6481      6482      6479      6481      6483
      6479      6481      6493      6480      6479      6481      6481      6493      6494
      6481      6493      6495      6481      6493      6496      6482      6481      6483
      6482      6481      6493      6483      6481      6493      6484      6487      6488
      6485      6484      6486      6485      6484      6487      6486      6484      6487
      6487      6488      6489      6487      6488      6490      6488      6490      6491
      6488      6490      6492      6488      6490      6540      6489      6488      6490
      6490      6540      6541      6490      6540      6542      6490      6540      6543
      6491      6490      6492      6491      6490      6540      6492      6490      6540
      6493      6496      6497      6493      6496      6498      6493      6496      6499
      6494      6493      6495      6494      6493      6496      6495      6493      6496
      6496      6499      6500      6496      6499      6501      6496      6499      6502
      6497      6496      6498      6497      6496      6499      6498      6496      6499
      6499      6502      6503      6499      6502      6504      6499      6502      6505
      6500      6499      6501      6500      6499      6502      6501      6499      6502
      6502      6505      6506      6502      6505      6507      6502      6505      6508
      6503      6502      6504      6503      6502      6505      6504      6502      6505
      6505      6508      6509      6505      6508      6510      6505      6508      6511
      6506      6505      6507      6506      6505      6508      6507      6505      6508
      6508      6511      6512      6508      6511      6513      6509      6508      6510
      6509      6508      6511      6510      6508      6511      6511      6513      6514
      6511      6513      6515      6512      6511      6513      6513      6515      6516
      6513      6515      6517      6513      6515      6518      6514      6513      6515
      6515      6518      6519      6515      6518      6520      6515      6518      6521
      6516      6515      6517      6516      6515      6518      6517      6515      6518
      6518      6521      6522      6518      6521      6523      6518      6521      6524
      6519      6518      6520      6519      6518      6521      6520      6518      6521
      6521      6524      6525      6521      6524      6526      6521      6524      6527
      6522      6521      6523      6522      6521      6524      6523      6521      6524
      6524      6527      6528      6524      6527      6529      6524      6527      6530
      6525      6524      6526      6525      6524      6527      6526      6524      6527
      6527      6530      6531      6527      6530      6532      6527      6530      6533
      6528      6527      6529      6528      6527      6530      6529      6527      6530
      6530      6533      6534      6530      6533      6535      6530      6533      6536
      6531      6530      6532      6531      6530      6533      6532      6530      6533
      6533      6536      6537      6533      6536      6538      6533      6536      6539
      6534      6533      6535      6534      6533      6536      6535      6533      6536
      6537      6536      6538      6537      6536      6539      6538      6536      6539
      6540      6543      6544      6540      6543      6545      6540      6543      6546
      6541      6540      6542      6541      6540      6543      6542      6540      6543
      6543      6546      6547      6543      6546      6548      6543      6546      6549
      6544      6543      6545      6544      6543      6546      6545      6543      6546
      6546      6549      6550      6546      6549      6551      6546      6549      6552
      6547      6546      6548      6547      6546      6549      6548      6546      6549
      6549      6552      6553      6549      6552      6554      6549      6552      6555
      6550      6549      6551      6550      6549      6552      6551      6549      6552
      6552      6555      6556      6552      6555      6557      6552      6555      6558
      6553      6552      6554      6553      6552      6555      6554      6552      6555
      6555      6558      6559      6555      6558      6560      6555      6558      6561
      6556      6555      6557      6556      6555      6558      6557      6555      6558
      6558      6561      6562      6558      6561      6563      6558      6561      6564
      6559      6558      6560      6559      6558      6561      6560      6558      6561
      6561      6564      6565      6561      6564      6566      6561      6564      6567
      6562      6561      6563      6562      6561      6564      6563      6561      6564
      6564      6567      6568      6564      6567      6569      6564      6567      6570
      6565      6564      6566      6565      6564      6567      6566      6564      6567
      6567      6570      6571      6567      6570      6572      6567      6570      6573
      6568      6567      6569      6568      6567      6570      6569      6567      6570
      6570      6573      6574      6570      6573      6575      6570      6573      6576
      6571      6570      6572      6571      6570      6573      6572      6570      6573
      6573      6576      6577      6573      6576      6578      6573      6576      6579
      6574      6573      6575      6574      6573      6576      6575      6573      6576
      6576      6579      6580      6576      6579      6581      6576      6579      6582
      6577      6576      6578      6577      6576      6579      6578      6576      6579
      6580      6579      6581      6580      6579      6582      6581      6579      6582
      6583      6584      6585      6583      6584      6586      6583      6584      6599
      6583      6587      6588      6583      6587      6589      6583      6587      6590
      6583      6591      6592      6583      6591      6593      6583      6591      6594
      6583      6595      6596      6583      6595      6597      6583      6595      6598
      6584      6583      6587      6584      6583      6591      6584      6583      6595
      6584      6599      6600      6584      6599      6601      6584      6599      6605
      6585      6584      6586      6585      6584      6599      6586      6584      6599
      6587      6583      6591      6587      6583      6595      6588      6587      6589
      6588      6587      6590      6589      6587      6590      6591      6583      6595
      6592      6591      6593      6592      6591      6594      6593      6591      6594
      6596      6595      6597      6596      6595      6598      6597      6595      6598
      6599      6605      6602      6600      6599      6601      6600      6599      6605
      6601      6599      6605      6602      6606      6607      6603      6602      6604
      6603      6602      6605      6603      6602      6606      6604      6602      6605
      6604      6602      6606      6605      6602      6606      6606      6607      6608
      6606      6607      6609      6606      6607      6610      6607      6610      6611
      6607      6610      6612      6607      6610      6618      6608      6607      6609
      6608      6607      6610      6609      6607      6610      6610      6612      6613
      6610      6618      6619      6610      6618      6620      6610      6618      6621
      6611      6610      6612      6611      6610      6618      6612      6610      6618
      6612      6613      6614      6612      6613      6615      6613      6615      6616
      6613      6615      6617      6613      6615      6627      6614      6613      6615
      6615      6627      6628      6615      6627      6629      6615      6627      6630
      6616      6615      6617      6616      6615      6627      6617      6615      6627
      6618      6621      6622      6619      6618      6620      6619      6618      6621
      6620      6618      6621      6621      6622      6623      6621      6622      6624
      6622      6624      6625      6622      6624      6626      6622      6624      6674
      6623      6622      6624      6624      6674      6675      6624      6674      6676
      6624      6674      6677      6625      6624      6626      6625      6624      6674
      6626      6624      6674      6627      6630      6631      6627      6630      6632
      6627      6630      6633      6628      6627      6629      6628      6627      6630
      6629      6627      6630      6630      6633      6634      6630      6633      6635
      6630      6633      6636      6631      6630      6632      6631      6630      6633
      6632      6630      6633      6633      6636      6637      6633      6636      6638
      6633      6636      6639      6634      6633      6635      6634      6633      6636
      6635      6633      6636      6636      6639      6640      6636      6639      6641
      6636      6639      6642      6637      6636      6638      6637      6636      6639
      6638      6636      6639      6639      6642      6643      6639      6642      6644
      6639      6642      6645      6640      6639      6641      6640      6639      6642
      6641      6639      6642      6642      6645      6646      6642      6645      6647
      6643      6642      6644      6643      6642      6645      6644      6642      6645
      6645      6647      6648      6645      6647      6649      6646      6645      6647
      6647      6649      6650      6647      6649      6651      6647      6649      6652
      6648      6647      6649      6649      6652      6653      6649      6652      6654
      6649      6652      6655      6650      6649      6651      6650      6649      6652
      6651      6649      6652      6652      6655      6656      6652      6655      6657
      6652      6655      6658      6653      6652      6654      6653      6652      6655
      6654      6652      6655      6655      6658      6659      6655      6658      6660
      6655      6658      6661      6656      6655      6657      6656      6655      6658
      6657      6655      6658      6658      6661      6662      6658      6661      6663
      6658      6661      6664      6659      6658      6660      6659      6658      6661
      6660      6658      6661      6661      6664      6665      6661      6664      6666
      6661      6664      6667      6662      6661      6663      6662      6661      6664
      6663      6661      6664      6664      6667      6668      6664      6667      6669
      6664      6667      6670      6665      6664      6666      6665      6664      6667
      6666      6664      6667      6667      6670      6671      6667      6670      6672
      6667      6670      6673      6668      6667      6669      6668      6667      6670
      6669      6667      6670      6671      6670      6672      6671      6670      6673
      6672      6670      6673      6674      6677      6678      6674      6677      6679
      6674      6677      6680      6675      6674      6676      6675      6674      6677
      6676      6674      6677      6677      6680      6681      6677      6680      6682
      6677      6680      6683      6678      6677      6679      6678      6677      6680
      6679      6677      6680      6680      6683      6684      6680      6683      6685
      6680      6683      6686      6681      6680      6682      6681      6680      6683
      6682      6680      6683      6683      6686      6687      6683      6686      6688
      6683      6686      6689      6684      6683      6685      6684      6683      6686
      6685      6683      6686      6686      6689      6690      6686      6689      6691
      6686      6689      6692      6687      6686      6688      6687      6686      6689
      6688      6686      6689      6689      6692      6693      6689      6692      6694
      6689      6692      6695      6690      6689      6691      6690      6689      6692
      6691      6689      6692      6692      6695      6696      6692      6695      6697
      6692      6695      6698      6693      6692      6694      6693      6692      6695
      6694      6692      6695      6695      6698      6699      6695      6698      6700
      6695      6698      6701      6696      6695      6697      6696      6695      6698
      6697      6695      6698      6698      6701      6702      6698      6701      6703
      6698      6701      6704      6699      6698      6700      6699      6698      6701
      6700      6698      6701      6701      6704      6705      6701      6704      6706
      6701      6704      6707      6702      6701      6703      6702      6701      6704
      6703      6701      6704      6704      6707      6708      6704      6707      6709
      6704      6707      6710      6705      6704      6706      6705      6704      6707
      6706      6704      6707      6707      6710      6711      6707      6710      6712
      6707      6710      6713      6708      6707      6709      6708      6707      6710
      6709      6707      6710      6710      6713      6714      6710      6713      6715
      6710      6713      6716      6711      6710      6712      6711      6710      6713
      6712      6710      6713      6714      6713      6715      6714      6713      6716
      6715      6713      6716      6717      6718      6719      6717      6718      6720
      6717      6718      6733      6717      6721      6722      6717      6721      6723
      6717      6721      6724      6717      6725      6726      6717      6725      6727
      6717      6725      6728      6717      6729      6730      6717      6729      6731
      6717      6729      6732      6718      6717      6721      6718      6717      6725
      6718      6717      6729      6718      6733      6734      6718      6733      6735
      6718      6733      6739      6719      6718      6720      6719      6718      6733
      6720      6718      6733      6721      6717      6725      6721      6717      6729
      6722      6721      6723      6722      6721      6724      6723      6721      6724
      6725      6717      6729      6726      6725      6727      6726      6725      6728
      6727      6725      6728      6730      6729      6731      6730      6729      6732
      6731      6729      6732      6733      6739      6736      6734      6733      6735
      6734      6733      6739      6735      6733      6739      6736      6740      6741
      6737      6736      6738      6737      6736      6739      6737      6736      6740
      6738      6736      6739      6738      6736      6740      6739      6736      6740
      6740      6741      6742      6740      6741      6743      6740      6741      6744
      6741      6744      6745      6741      6744      6746      6741      6744      6752
      6742      6741      6743      6742      6741      6744      6743      6741      6744
      6744      6746      6747      6744      6752      6753      6744      6752      6754
      6744      6752      6755      6745      6744      6746      6745      6744      6752
      6746      6744      6752      6746      6747      6748      6746      6747      6749
      6747      6749      6750      6747      6749      6751      6747      6749      6761
      6748      6747      6749      6749      6761      6762      6749      6761      6763
      6749      6761      6764      6750      6749      6751      6750      6749      6761
      6751      6749      6761      6752      6755      6756      6753      6752      6754
      6753      6752      6755      6754      6752      6755      6755      6756      6757
      6755      6756      6758      6756      6758      6759      6756      6758      6760
      6756      6758      6808      6757      6756      6758      6758      6808      6809
      6758      6808      6810      6758      6808      6811      6759      6758      6760
      6759      6758      6808      6760      6758      6808      6761      6764      6765
      6761      6764      6766      6761      6764      6767      6762      6761      6763
      6762      6761      6764      6763      6761      6764      6764      6767      6768
      6764      6767      6769      6764      6767      6770      6765      6764      6766
      6765      6764      6767      6766      6764      6767      6767      6770      6771
      6767      6770      6772      6767      6770      6773      6768      6767      6769
      6768      6767      6770      6769      6767      6770      6770      6773      6774
      6770      6773      6775      6770      6773      6776      6771      6770      6772
      6771      6770      6773      6772      6770      6773      6773      6776      6777
      6773      6776      6778      6773      6776      6779      6774      6773      6775
      6774      6773      6776      6775      6773      6776      6776      6779      6780
      6776      6779      6781      6777      6776      6778      6777      6776      6779
      6778      6776      6779      6779      6781      6782      6779      6781      6783
      6780      6779      6781      6781      6783      6784      6781      6783      6785
      6781      6783      6786      6782      6781      6783      6783      6786      6787
      6783      6786      6788      6783      6786      6789      6784      6783      6785
      6784      6783      6786      6785      6783      6786      6786      6789      6790
      6786      6789      6791      6786      6789      6792      6787      6786      6788
      6787      6786      6789      6788      6786      6789      6789      6792      6793
      6789      6792      6794      6789      6792      6795      6790      6789      6791
      6790      6789      6792      6791      6789      6792      6792      6795      6796
      6792      6795      6797      6792      6795      6798      6793      6792      6794
      6793      6792      6795      6794      6792      6795      6795      6798      6799
      6795      6798      6800      6795      6798      6801      6796      6795      6797
      6796      6795      6798      6797      6795      6798      6798      6801      6802
      6798      6801      6803      6798      6801      6804      6799      6798      6800
      6799      6798      6801      6800      6798      6801      6801      6804      6805
      6801      6804      6806      6801      6804      6807      6802      6801      6803
      6802      6801      6804      6803      6801      6804      6805      6804      6806
      6805      6804      6807      6806      6804      6807      6808      6811      6812
      6808      6811      6813      6808      6811      6814      6809      6808      6810
      6809      6808      6811      6810      6808      6811      6811      6814      6815
      6811      6814      6816      6811      6814      6817      6812      6811      6813
      6812      6811      6814      6813      6811      6814      6814      6817      6818
      6814      6817      6819      6814      6817      6820      6815      6814      6816
      6815      6814      6817      6816      6814      6817      6817      6820      6821
      6817      6820      6822      6817      6820      6823      6818      6817      6819
      6818      6817      6820      6819      6817      6820      6820      6823      6824
      6820      6823      6825      6820      6823      6826      6821      6820      6822
      6821      6820      6823      6822      6820      6823      6823      6826      6827
      6823      6826      6828      6823      6826      6829      6824      6823      6825
      6824      6823      6826      6825      6823      6826      6826      6829      6830
      6826      6829      6831      6826      6829      6832      6827      6826      6828
      6827      6826      6829      6828      6826      6829      6829      6832      6833
      6829      6832      6834      6829      6832      6835      6830      6829      6831
      6830      6829      6832      6831      6829      6832      6832      6835      6836
      6832      6835      6837      6832      6835      6838      6833      6832      6834
      6833      6832      6835      6834      6832      6835      6835      6838      6839
      6835      6838      6840      6835      6838      6841      6836      6835      6837
      6836      6835      6838      6837      6835      6838      6838      6841      6842
      6838      6841      6843      6838      6841      6844      6839      6838      6840
      6839      6838      6841      6840      6838      6841      6841      6844      6845
      6841      6844      6846      6841      6844      6847      6842      6841      6843
      6842      6841      6844      6843      6841      6844      6844      6847      6848
      6844      6847      6849      6844      6847      6850      6845      6844      6846
      6845      6844      6847      6846      6844      6847      6848      6847      6849
      6848      6847      6850      6849      6847      6850      6851      6852      6853
      6851      6852      6854      6851      6852      6867      6851      6855      6856
      6851      6855      6857      6851      6855      6858      6851      6859      6860
      6851      6859      6861      6851      6859      6862      6851      6863      6864
      6851      6863      6865      6851      6863      6866      6852      6851      6855
      6852      6851      6859      6852      6851      6863      6852      6867      6868
      6852      6867      6869      6852      6867      6873      6853      6852      6854
      6853      6852      6867      6854      6852      6867      6855      6851      6859
      6855      6851      6863      6856      6855      6857      6856      6855      6858
      6857      6855      6858      6859      6851      6863      6860      6859      6861
      6860      6859      6862      6861      6859      6862      6864      6863      6865
      6864      6863      6866      6865      6863      6866      6867      6873      6870
      6868      6867      6869      6868      6867      6873      6869      6867      6873
      6870      6874      6875      6871      6870      6872      6871      6870      6873
      6871      6870      6874      6872      6870      6873      6872      6870      6874
      6873      6870      6874      6874      6875      6876      6874      6875      6877
      6874      6875      6878      6875      6878      6879      6875      6878      6880
      6875      6878      6886      6876      6875      6877      6876      6875      6878
      6877      6875      6878      6878      6880      6881      6878      6886      6887
      6878      6886      6888      6878      6886      6889      6879      6878      6880
      6879      6878      6886      6880      6878      6886      6880      6881      6882
      6880      6881      6883      6881      6883      6884      6881      6883      6885
      6881      6883      6895      6882      6881      6883      6883      6895      6896
      6883      6895      6897      6883      6895      6898      6884      6883      6885
      6884      6883      6895      6885      6883      6895      6886      6889      6890
      6887      6886      6888      6887      6886      6889      6888      6886      6889
      6889      6890      6891      6889      6890      6892      6890      6892      6893
      6890      6892      6894      6890      6892      6942      6891      6890      6892
      6892      6942      6943      6892      6942      6944      6892      6942      6945
      6893      6892      6894      6893      6892      6942      6894      6892      6942
      6895      6898      6899      6895      6898      6900      6895      6898      6901
      6896      6895      6897      6896      6895      6898      6897      6895      6898
      6898      6901      6902      6898      6901      6903      6898      6901      6904
      6899      6898      6900      6899      6898      6901      6900      6898      6901
      6901      6904      6905      6901      6904      6906      6901      6904      6907
      6902      6901      6903      6902      6901      6904      6903      6901      6904
      6904      6907      6908      6904      6907      6909      6904      6907      6910
      6905      6904      6906      6905      6904      6907      6906      6904      6907
      6907      6910      6911      6907      6910      6912      6907      6910      6913
      6908      6907      6909      6908      6907      6910      6909      6907      6910
      6910      6913      6914      6910      6913      6915      6911      6910      6912
      6911      6910      6913      6912      6910      6913      6913      6915      6916
      6913      6915      6917      6914      6913      6915      6915      6917      6918
      6915      6917      6919      6915      6917      6920      6916      6915      6917
      6917      6920      6921      6917      6920      6922      6917      6920      6923
      6918      6917      6919      6918      6917      6920      6919      6917      6920
      6920      6923      6924      6920      6923      6925      6920      6923      6926
      6921      6920      6922      6921      6920      6923      6922      6920      6923
      6923      6926      6927      6923      6926      6928      6923      6926      6929
      6924      6923      6925      6924      6923      6926      6925      6923      6926
      6926      6929      6930      6926      6929      6931      6926      6929      6932
      6927      6926      6928      6927      6926      6929      6928      6926      6929
      6929      6932      6933      6929      6932      6934      6929      6932      6935
      6930      6929      6931      6930      6929      6932      6931      6929      6932
      6932      6935      6936      6932      6935      6937      6932      6935      6938
      6933      6932      6934      6933      6932      6935      6934      6932      6935
      6935      6938      6939      6935      6938      6940      6935      6938      6941
      6936      6935      6937      6936      6935      6938      6937      6935      6938
      6939      6938      6940      6939      6938      6941      6940      6938      6941
      6942      6945      6946      6942      6945      6947      6942      6945      6948
      6943      6942      6944      6943      6942      6945      6944      6942      6945
      6945      6948      6949      6945      6948      6950      6945      6948      6951
      6946      6945      6947      6946      6945      6948      6947      6945      6948
      6948      6951      6952      6948      6951      6953      6948      6951      6954
      6949      6948      6950      6949      6948      6951      6950      6948      6951
      6951      6954      6955      6951      6954      6956      6951      6954      6957
      6952      6951      6953      6952      6951      6954      6953      6951      6954
      6954      6957      6958      6954      6957      6959      6954      6957      6960
      6955      6954      6956      6955      6954      6957      6956      6954      6957
      6957      6960      6961      6957      6960      6962      6957      6960      6963
      6958      6957      6959      6958      6957      6960      6959      6957      6960
      6960      6963      6964      6960      6963      6965      6960      6963      6966
      6961      6960      6962      6961      6960      6963      6962      6960      6963
      6963      6966      6967      6963      6966      6968      6963      6966      6969
      6964      6963      6965      6964      6963      6966      6965      6963      6966
      6966      6969      6970      6966      6969      6971      6966      6969      6972
      6967      6966      6968      6967      6966      6969      6968      6966      6969
      6969      6972      6973      6969      6972      6974      6969      6972      6975
      6970      6969      6971      6970      6969      6972      6971      6969      6972
      6972      6975      6976      6972      6975      6977      6972      6975      6978
      6973      6972      6974      6973      6972      6975      6974      6972      6975
      6975      6978      6979      6975      6978      6980      6975      6978      6981
      6976      6975      6977      6976      6975      6978      6977      6975      6978
      6978      6981      6982      6978      6981      6983      6978      6981      6984
      6979      6978      6980      6979      6978      6981      6980      6978      6981
      6982      6981      6983      6982      6981      6984      6983      6981      6984
      6985      6986      6987      6985      6986      6988      6985      6986      7001
      6985      6989      6990      6985      6989      6991      6985      6989      6992
      6985      6993      6994      6985      6993      6995      6985      6993      6996
      6985      6997      6998      6985      6997      6999      6985      6997      7000
      6986      6985      6989      6986      6985      6993      6986      6985      6997
      6986      7001      7002      6986      7001      7003      6986      7001      7007
      6987      6986      6988      6987      6986      7001      6988      6986      7001
      6989      6985      6993      6989      6985      6997      6990      6989      6991
      6990      6989      6992      6991      6989      6992      6993      6985      6997
      6994      6993      6995      6994      6993      6996      6995      6993      6996
      6998      6997      6999      6998      6997      7000      6999      6997      7000
      7001      7007      7004      7002      7001      7003      7002      7001      7007
      7003      7001      7007      7004      7008      7009      7005      7004      7006
      7005      7004      7007      7005      7004      7008      7006      7004      7007
      7006      7004      7008      7007      7004      7008      7008      7009      7010
      7008      7009      7011      7008      7009      7012      7009      7012      7013
      7009      7012      7014      7009      7012      7020      7010      7009      7011
      7010      7009      7012      7011      7009      7012      7012      7014      7015
      7012      7020      7021      7012      7020      7022      7012      7020      7023
      7013      7012      7014      7013      7012      7020      7014      7012      7020
      7014      7015      7016      7014      7015      7017      7015      7017      7018
      7015      7017      7019      7015      7017      7029      7016      7015      7017
      7017      7029      7030      7017      7029      7031      7017      7029      7032
      7018      7017      7019      7018      7017      7029      7019      7017      7029
      7020      7023      7024      7021      7020      7022      7021      7020      7023
      7022      7020      7023      7023      7024      7025      7023      7024      7026
      7024      7026      7027      7024      7026      7028      7024      7026      7076
      7025      7024      7026      7026      7076      7077      7026      7076      7078
      7026      7076      7079      7027      7026      7028      7027      7026      7076
      7028      7026      7076      7029      7032      7033      7029      7032      7034
      7029      7032      7035      7030      7029      7031      7030      7029      7032
      7031      7029      7032      7032      7035      7036      7032      7035      7037
      7032      7035      7038      7033      7032      7034      7033      7032      7035
      7034      7032      7035      7035      7038      7039      7035      7038      7040
      7035      7038      7041      7036      7035      7037      7036      7035      7038
      7037      7035      7038      7038      7041      7042      7038      7041      7043
      7038      7041      7044      7039      7038      7040      7039      7038      7041
      7040      7038      7041      7041      7044      7045      7041      7044      7046
      7041      7044      7047      7042      7041      7043      7042      7041      7044
      7043      7041      7044      7044      7047      7048      7044      7047      7049
      7045      7044      7046      7045      7044      7047      7046      7044      7047
      7047      7049      7050      7047      7049      7051      7048      7047      7049
      7049      7051      7052      7049      7051      7053      7049      7051      7054
      7050      7049      7051      7051      7054      7055      7051      7054      7056
      7051      7054      7057      7052      7051      7053      7052      7051      7054
      7053      7051      7054      7054      7057      7058      7054      7057      7059
      7054      7057      7060      7055      7054      7056      7055      7054      7057
      7056      7054      7057      7057      7060      7061      7057      7060      7062
      7057      7060      7063      7058      7057      7059      7058      7057      7060
      7059      7057      7060      7060      7063      7064      7060      7063      7065
      7060      7063      7066      7061      7060      7062      7061      7060      7063
      7062      7060      7063      7063      7066      7067      7063      7066      7068
      7063      7066      7069      7064      7063      7065      7064      7063      7066
      7065      7063      7066      7066      7069      7070      7066      7069      7071
      7066      7069      7072      7067      7066      7068      7067      7066      7069
      7068      7066      7069      7069      7072      7073      7069      7072      7074
      7069      7072      7075      7070      7069      7071      7070      7069      7072
      7071      7069      7072      7073      7072      7074      7073      7072      7075
      7074      7072      7075      7076      7079      7080      7076      7079      7081
      7076      7079      7082      7077      7076      7078      7077      7076      7079
      7078      7076      7079      7079      7082      7083      7079      7082      7084
      7079      7082      7085      7080      7079      7081      7080      7079      7082
      7081      7079      7082      7082      7085      7086      7082      7085      7087
      7082      7085      7088      7083      7082      7084      7083      7082      7085
      7084      7082      7085      7085      7088      7089      7085      7088      7090
      7085      7088      7091      7086      7085      7087      7086      7085      7088
      7087      7085      7088      7088      7091      7092      7088      7091      7093
      7088      7091      7094      7089      7088      7090      7089      7088      7091
      7090      7088      7091      7091      7094      7095      7091      7094      7096
      7091      7094      7097      7092      7091      7093      7092      7091      7094
      7093      7091      7094      7094      7097      7098      7094      7097      7099
      7094      7097      7100      7095      7094      7096      7095      7094      7097
      7096      7094      7097      7097      7100      7101      7097      7100      7102
      7097      7100      7103      7098      7097      7099      7098      7097      7100
      7099      7097      7100      7100      7103      7104      7100      7103      7105
      7100      7103      7106      7101      7100      7102      7101      7100      7103
      7102      7100      7103      7103      7106      7107      7103      7106      7108
      7103      7106      7109      7104      7103      7105      7104      7103      7106
      7105      7103      7106      7106      7109      7110      7106      7109      7111
      7106      7109      7112      7107      7106      7108      7107      7106      7109
      7108      7106      7109      7109      7112      7113      7109      7112      7114
      7109      7112      7115      7110      7109      7111      7110      7109      7112
      7111      7109      7112      7112      7115      7116      7112      7115      7117
      7112      7115      7118      7113      7112      7114      7113      7112      7115
      7114      7112      7115      7116      7115      7117      7116      7115      7118
      7117      7115      7118      7119      7120      7121      7119      7120      7122
      7119      7120      7135      7119      7123      7124      7119      7123      7125
      7119      7123      7126      7119      7127      7128      7119      7127      7129
      7119      7127      7130      7119      7131      7132      7119      7131      7133
      7119      7131      7134      7120      7119      7123      7120      7119      7127
      7120      7119      7131      7120      7135      7136      7120      7135      7137
      7120      7135      7141      7121      7120      7122      7121      7120      7135
      7122      7120      7135      7123      7119      7127      7123      7119      7131
      7124      7123      7125      7124      7123      7126      7125      7123      7126
      7127      7119      7131      7128      7127      7129      7128      7127      7130
      7129      7127      7130      7132      7131      7133      7132      7131      7134
      7133      7131      7134      7135      7141      7138      7136      7135      7137
      7136      7135      7141      7137      7135      7141      7138      7142      7143
      7139      7138      7140      7139      7138      7141      7139      7138      7142
      7140      7138      7141      7140      7138      7142      7141      7138      7142
      7142      7143      7144      7142      7143      7145      7142      7143      7146
      7143      7146      7147      7143      7146      7148      7143      7146      7154
      7144      7143      7145      7144      7143      7146      7145      7143      7146
      7146      7148      7149      7146      7154      7155      7146      7154      7156
      7146      7154      7157      7147      7146      7148      7147      7146      7154
      7148      7146      7154      7148      7149      7150      7148      7149      7151
      7149      7151      7152      7149      7151      7153      7149      7151      7163
      7150      7149      7151      7151      7163      7164      7151      7163      7165
      7151      7163      7166      7152      7151      7153      7152      7151      7163
      7153      7151      7163      7154      7157      7158      7155      7154      7156
      7155      7154      7157      7156      7154      7157      7157      7158      7159
      7157      7158      7160      7158      7160      7161      7158      7160      7162
      7158      7160      7210      7159      7158      7160      7160      7210      7211
      7160      7210      7212      7160      7210      7213      7161      7160      7162
      7161      7160      7210      7162      7160      7210      7163      7166      7167
      7163      7166      7168      7163      7166      7169      7164      7163      7165
      7164      7163      7166      7165      7163      7166      7166      7169      7170
      7166      7169      7171      7166      7169      7172      7167      7166      7168
      7167      7166      7169      7168      7166      7169      7169      7172      7173
      7169      7172      7174      7169      7172      7175      7170      7169      7171
      7170      7169      7172      7171      7169      7172      7172      7175      7176
      7172      7175      7177      7172      7175      7178      7173      7172      7174
      7173      7172      7175      7174      7172      7175      7175      7178      7179
      7175      7178      7180      7175      7178      7181      7176      7175      7177
      7176      7175      7178      7177      7175      7178      7178      7181      7182
      7178      7181      7183      7179      7178      7180      7179      7178      7181
      7180      7178      7181      7181      7183      7184      7181      7183      7185
      7182      7181      7183      7183      7185      7186      7183      7185      7187
      7183      7185      7188      7184      7183      7185      7185      7188      7189
      7185      7188      7190      7185      7188      7191      7186      7185      7187
      7186      7185      7188      7187      7185      7188      7188      7191      7192
      7188      7191      7193      7188      7191      7194      7189      7188      7190
      7189      7188      7191      7190      7188      7191      7191      7194      7195
      7191      7194      7196      7191      7194      7197      7192      7191      7193
      7192      7191      7194      7193      7191      7194      7194      7197      7198
      7194      7197      7199      7194      7197      7200      7195      7194      7196
      7195      7194      7197      7196      7194      7197      7197      7200      7201
      7197      7200      7202      7197      7200      7203      7198      7197      7199
      7198      7197      7200      7199      7197      7200      7200      7203      7204
      7200      7203      7205      7200      7203      7206      7201      7200      7202
      7201      7200      7203      7202      7200      7203      7203      7206      7207
      7203      7206      7208      7203      7206      7209      7204      7203      7205
      7204      7203      7206      7205      7203      7206      7207      7206      7208
      7207      7206      7209      7208      7206      7209      7210      7213      7214
      7210      7213      7215      7210      7213      7216      7211      7210      7212
      7211      7210      7213      7212      7210      7213      7213      7216      7217
      7213      7216      7218      7213      7216      7219      7214      7213      7215
      7214      7213      7216      7215      7213      7216      7216      7219      7220
      7216      7219      7221      7216      7219      7222      7217      7216      7218
      7217      7216      7219      7218      7216      7219      7219      7222      7223
      7219      7222      7224      7219      7222      7225      7220      7219      7221
      7220      7219      7222      7221      7219      7222      7222      7225      7226
      7222      7225      7227      7222      7225      7228      7223      7222      7224
      7223      7222      7225      7224      7222      7225      7225      7228      7229
      7225      7228      7230      7225      7228      7231      7226      7225      7227
      7226      7225      7228      7227      7225      7228      7228      7231      7232
      7228      7231      7233      7228      7231      7234      7229      7228      7230
      7229      7228      7231      7230      7228      7231      7231      7234      7235
      7231      7234      7236      7231      7234      7237      7232      7231      7233
      7232      7231      7234      7233      7231      7234      7234      7237      7238
      7234      7237      7239      7234      7237      7240      7235      7234      7236
      7235      7234      7237      7236      7234      7237      7237      7240      7241
      7237      7240      7242      7237      7240      7243      7238      7237      7239
      7238      7237      7240      7239      7237      7240      7240      7243      7244
      7240      7243      7245      7240      7243      7246      7241      7240      7242
      7241      7240      7243      7242      7240      7243      7243      7246      7247
      7243      7246      7248      7243      7246      7249      7244      7243      7245
      7244      7243      7246      7245      7243      7246      7246      7249      7250
      7246      7249      7251      7246      7249      7252      7247      7246      7248
      7247      7246      7249      7248      7246      7249      7250      7249      7251
      7250      7249      7252      7251      7249      7252      7253      7254      7255
      7253      7254      7256      7253      7254      7269      7253      7257      7258
      7253      7257      7259      7253      7257      7260      7253      7261      7262
      7253      7261      7263      7253      7261      7264      7253      7265      7266
      7253      7265      7267      7253      7265      7268      7254      7253      7257
      7254      7253      7261      7254      7253      7265      7254      7269      7270
      7254      7269      7271      7254      7269      7275      7255      7254      7256
      7255      7254      7269      7256      7254      7269      7257      7253      7261
      7257      7253      7265      7258      7257      7259      7258      7257      7260
      7259      7257      7260      7261      7253      7265      7262      7261      7263
      7262      7261      7264      7263      7261      7264      7266      7265      7267
      7266      7265      7268      7267      7265      7268      7269      7275      7272
      7270      7269      7271      7270      7269      7275      7271      7269      7275
      7272      7276      7277      7273      7272      7274      7273      7272      7275
      7273      7272      7276      7274      7272      7275      7274      7272      7276
      7275      7272      7276      7276      7277      7278      7276      7277      7279
      7276      7277      7280      7277      7280      7281      7277      7280      7282
      7277      7280      7288      7278      7277      7279      7278      7277      7280
      7279      7277      7280      7280      7282      7283      7280      7288      7289
      7280      7288      7290      7280      7288      7291      7281      7280      7282
      7281      7280      7288      7282      7280      7288      7282      7283      7284
      7282      7283      7285      7283      7285      7286      7283      7285      7287
      7283      7285      7297      7284      7283      7285      7285      7297      7298
      7285      7297      7299      7285      7297      7300      7286      7285      7287
      7286      7285      7297      7287      7285      7297      7288      7291      7292
      7289      7288      7290      7289      7288      7291      7290      7288      7291
      7291      7292      7293      7291      7292      7294      7292      7294      7295
      7292      7294      7296      7292      7294      7344      7293      7292      7294
      7294      7344      7345      7294      7344      7346      7294      7344      7347
      7295      7294      7296      7295      7294      7344      7296      7294      7344
      7297      7300      7301      7297      7300      7302      7297      7300      7303
      7298      7297      7299      7298      7297      7300      7299      7297      7300
      7300      7303      7304      7300      7303      7305      7300      7303      7306
      7301      7300      7302      7301      7300      7303      7302      7300      7303
      7303      7306      7307      7303      7306      7308      7303      7306      7309
      7304      7303      7305      7304      7303      7306      7305      7303      7306
      7306      7309      7310      7306      7309      7311      7306      7309      7312
      7307      7306      7308      7307      7306      7309      7308      7306      7309
      7309      7312      7313      7309      7312      7314      7309      7312      7315
      7310      7309      7311      7310      7309      7312      7311      7309      7312
      7312      7315      7316      7312      7315      7317      7313      7312      7314
      7313      7312      7315      7314      7312      7315      7315      7317      7318
      7315      7317      7319      7316      7315      7317      7317      7319      7320
      7317      7319      7321      7317      7319      7322      7318      7317      7319
      7319      7322      7323      7319      7322      7324      7319      7322      7325
      7320      7319      7321      7320      7319      7322      7321      7319      7322
      7322      7325      7326      7322      7325      7327      7322      7325      7328
      7323      7322      7324      7323      7322      7325      7324      7322      7325
      7325      7328      7329      7325      7328      7330      7325      7328      7331
      7326      7325      7327      7326      7325      7328      7327      7325      7328
      7328      7331      7332      7328      7331      7333      7328      7331      7334
      7329      7328      7330      7329      7328      7331      7330      7328      7331
      7331      7334      7335      7331      7334      7336      7331      7334      7337
      7332      7331      7333      7332      7331      7334      7333      7331      7334
      7334      7337      7338      7334      7337      7339      7334      7337      7340
      7335      7334      7336      7335      7334      7337      7336      7334      7337
      7337      7340      7341      7337      7340      7342      7337      7340      7343
      7338      7337      7339      7338      7337      7340      7339      7337      7340
      7341      7340      7342      7341      7340      7343      7342      7340      7343
      7344      7347      7348      7344      7347      7349      7344      7347      7350
      7345      7344      7346      7345      7344      7347      7346      7344      7347
      7347      7350      7351      7347      7350      7352      7347      7350      7353
      7348      7347      7349      7348      7347      7350      7349      7347      7350
      7350      7353      7354      7350      7353      7355      7350      7353      7356
      7351      7350      7352      7351      7350      7353      7352      7350      7353
      7353      7356      7357      7353      7356      7358      7353      7356      7359
      7354      7353      7355      7354      7353      7356      7355      7353      7356
      7356      7359      7360      7356      7359      7361      7356      7359      7362
      7357      7356      7358      7357      7356      7359      7358      7356      7359
      7359      7362      7363      7359      7362      7364      7359      7362      7365
      7360      7359      7361      7360      7359      7362      7361      7359      7362
      7362      7365      7366      7362      7365      7367      7362      7365      7368
      7363      7362      7364      7363      7362      7365      7364      7362      7365
      7365      7368      7369      7365      7368      7370      7365      7368      7371
      7366      7365      7367      7366      7365      7368      7367      7365      7368
      7368      7371      7372      7368      7371      7373      7368      7371      7374
      7369      7368      7370      7369      7368      7371      7370      7368      7371
      7371      7374      7375      7371      7374      7376      7371      7374      7377
      7372      7371      7373      7372      7371      7374      7373      7371      7374
      7374      7377      7378      7374      7377      7379      7374      7377      7380
      7375      7374      7376      7375      7374      7377      7376      7374      7377
      7377      7380      7381      7377      7380      7382      7377      7380      7383
      7378      7377      7379      7378      7377      7380      7379      7377      7380
      7380      7383      7384      7380      7383      7385      7380      7383      7386
      7381      7380      7382      7381      7380      7383      7382      7380      7383
      7384      7383      7385      7384      7383      7386      7385      7383      7386
      7387      7388      7389      7387      7388      7390      7387      7388      7403
      7387      7391      7392      7387      7391      7393      7387      7391      7394
      7387      7395      7396      7387      7395      7397      7387      7395      7398
      7387      7399      7400      7387      7399      7401      7387      7399      7402
      7388      7387      7391      7388      7387      7395      7388      7387      7399
      7388      7403      7404      7388      7403      7405      7388      7403      7409
      7389      7388      7390      7389      7388      7403      7390      7388      7403
      7391      7387      7395      7391      7387      7399      7392      7391      7393
      7392      7391      7394      7393      7391      7394      7395      7387      7399
      7396      7395      7397      7396      7395      7398      7397      7395      7398
      7400      7399      7401      7400      7399      7402      7401      7399      7402
      7403      7409      7406      7404      7403      7405      7404      7403      7409
      7405      7403      7409      7406      7410      7411      7407      7406      7408
      7407      7406      7409      7407      7406      7410      7408      7406      7409
      7408      7406      7410      7409      7406      7410      7410      7411      7412
      7410      7411      7413      7410      7411      7414      7411      7414      7415
      7411      7414      7416      7411      7414      7422      7412      7411      7413
      7412      7411      7414      7413      7411      7414      7414      7416      7417
      7414      7422      7423      7414      7422      7424      7414      7422      7425
      7415      7414      7416      7415      7414      7422      7416      7414      7422
      7416      7417      7418      7416      7417      7419      7417      7419      7420
      7417      7419      7421      7417      7419      7431      7418      7417      7419
      7419      7431      7432      7419      7431      7433      7419      7431      7434
      7420      7419      7421      7420      7419      7431      7421      7419      7431
      7422      7425      7426      7423      7422      7424      7423      7422      7425
      7424      7422      7425      7425      7426      7427      7425      7426      7428
      7426      7428      7429      7426      7428      7430      7426      7428      7478
      7427      7426      7428      7428      7478      7479      7428      7478      7480
      7428      7478      7481      7429      7428      7430      7429      7428      7478
      7430      7428      7478      7431      7434      7435      7431      7434      7436
      7431      7434      7437      7432      7431      7433      7432      7431      7434
      7433      7431      7434      7434      7437      7438      7434      7437      7439
      7434      7437      7440      7435      7434      7436      7435      7434      7437
      7436      7434      7437      7437      7440      7441      7437      7440      7442
      7437      7440      7443      7438      7437      7439      7438      7437      7440
      7439      7437      7440      7440      7443      7444      7440      7443      7445
      7440      7443      7446      7441      7440      7442      7441      7440      7443
      7442      7440      7443      7443      7446      7447      7443      7446      7448
      7443      7446      7449      7444      7443      7445      7444      7443      7446
      7445      7443      7446      7446      7449      7450      7446      7449      7451
      7447      7446      7448      7447      7446      7449      7448      7446      7449
      7449      7451      7452      7449      7451      7453      7450      7449      7451
      7451      7453      7454      7451      7453      7455      7451      7453      7456
      7452      7451      7453      7453      7456      7457      7453      7456      7458
      7453      7456      7459      7454      7453      7455      7454      7453      7456
      7455      7453      7456      7456      7459      7460      7456      7459      7461
      7456      7459      7462      7457      7456      7458      7457      7456      7459
      7458      7456      7459      7459      7462      7463      7459      7462      7464
      7459      7462      7465      7460      7459      7461      7460      7459      7462
      7461      7459      7462      7462      7465      7466      7462      7465      7467
      7462      7465      7468      7463      7462      7464      7463      7462      7465
      7464      7462      7465      7465      7468      7469      7465      7468      7470
      7465      7468      7471      7466      7465      7467      7466      7465      7468
      7467      7465      7468      7468      7471      7472      7468      7471      7473
      7468      7471      7474      7469      7468      7470      7469      7468      7471
      7470      7468      7471      7471      7474      7475      7471      7474      7476
      7471      7474      7477      7472      7471      7473      7472      7471      7474
      7473      7471      7474      7475      7474      7476      7475      7474      7477
      7476      7474      7477      7478      7481      7482      7478      7481      7483
      7478      7481      7484      7479      7478      7480      7479      7478      7481
      7480      7478      7481      7481      7484      7485      7481      7484      7486
      7481      7484      7487      7482      7481      7483      7482      7481      7484
      7483      7481      7484      7484      7487      7488      7484      7487      7489
      7484      7487      7490      7485      7484      7486      7485      7484      7487
      7486      7484      7487      7487      7490      7491      7487      7490      7492
      7487      7490      7493      7488      7487      7489      7488      7487      7490
      7489      7487      7490      7490      7493      7494      7490      7493      7495
      7490      7493      7496      7491      7490      7492      7491      7490      7493
      7492      7490      7493      7493      7496      7497      7493      7496      7498
      7493      7496      7499      7494      7493      7495      7494      7493      7496
      7495      7493      7496      7496      7499      7500      7496      7499      7501
      7496      7499      7502      7497      7496      7498      7497      7496      7499
      7498      7496      7499      7499      7502      7503      7499      7502      7504
      7499      7502      7505      7500      7499      7501      7500      7499      7502
      7501      7499      7502      7502      7505      7506      7502      7505      7507
      7502      7505      7508      7503      7502      7504      7503      7502      7505
      7504      7502      7505      7505      7508      7509      7505      7508      7510
      7505      7508      7511      7506      7505      7507      7506      7505      7508
      7507      7505      7508      7508      7511      7512      7508      7511      7513
      7508      7511      7514      7509      7508      7510      7509      7508      7511
      7510      7508      7511      7511      7514      7515      7511      7514      7516
      7511      7514      7517      7512      7511      7513      7512      7511      7514
      7513      7511      7514      7514      7517      7518      7514      7517      7519
      7514      7517      7520      7515      7514      7516      7515      7514      7517
      7516      7514      7517      7518      7517      7519      7518      7517      7520
      7519      7517      7520      7521      7522      7523      7521      7522      7524
      7521      7522      7537      7521      7525      7526      7521      7525      7527
      7521      7525      7528      7521      7529      7530      7521      7529      7531
      7521      7529      7532      7521      7533      7534      7521      7533      7535
      7521      7533      7536      7522      7521      7525      7522      7521      7529
      7522      7521      7533      7522      7537      7538      7522      7537      7539
      7522      7537      7543      7523      7522      7524      7523      7522      7537
      7524      7522      7537      7525      7521      7529      7525      7521      7533
      7526      7525      7527      7526      7525      7528      7527      7525      7528
      7529      7521      7533      7530      7529      7531      7530      7529      7532
      7531      7529      7532      7534      7533      7535      7534      7533      7536
      7535      7533      7536      7537      7543      7540      7538      7537      7539
      7538      7537      7543      7539      7537      7543      7540      7544      7545
      7541      7540      7542      7541      7540      7543      7541      7540      7544
      7542      7540      7543      7542      7540      7544      7543      7540      7544
      7544      7545      7546      7544      7545      7547      7544      7545      7548
      7545      7548      7549      7545      7548      7550      7545      7548      7556
      7546      7545      7547      7546      7545      7548      7547      7545      7548
      7548      7550      7551      7548      7556      7557      7548      7556      7558
      7548      7556      7559      7549      7548      7550      7549      7548      7556
      7550      7548      7556      7550      7551      7552      7550      7551      7553
      7551      7553      7554      7551      7553      7555      7551      7553      7565
      7552      7551      7553      7553      7565      7566      7553      7565      7567
      7553      7565      7568      7554      7553      7555      7554      7553      7565
      7555      7553      7565      7556      7559      7560      7557      7556      7558
      7557      7556      7559      7558      7556      7559      7559      7560      7561
      7559      7560      7562      7560      7562      7563      7560      7562      7564
      7560      7562      7612      7561      7560      7562      7562      7612      7613
      7562      7612      7614      7562      7612      7615      7563      7562      7564
      7563      7562      7612      7564      7562      7612      7565      7568      7569
      7565      7568      7570      7565      7568      7571      7566      7565      7567
      7566      7565      7568      7567      7565      7568      7568      7571      7572
      7568      7571      7573      7568      7571      7574      7569      7568      7570
      7569      7568      7571      7570      7568      7571      7571      7574      7575
      7571      7574      7576      7571      7574      7577      7572      7571      7573
      7572      7571      7574      7573      7571      7574      7574      7577      7578
      7574      7577      7579      7574      7577      7580      7575      7574      7576
      7575      7574      7577      7576      7574      7577      7577      7580      7581
      7577      7580      7582      7577      7580      7583      7578      7577      7579
      7578      7577      7580      7579      7577      7580      7580      7583      7584
      7580      7583      7585      7581      7580      7582      7581      7580      7583
      7582      7580      7583      7583      7585      7586      7583      7585      7587
      7584      7583      7585      7585      7587      7588      7585      7587      7589
      7585      7587      7590      7586      7585      7587      7587      7590      7591
      7587      7590      7592      7587      7590      7593      7588      7587      7589
      7588      7587      7590      7589      7587      7590      7590      7593      7594
      7590      7593      7595      7590      7593      7596      7591      7590      7592
      7591      7590      7593      7592      7590      7593      7593      7596      7597
      7593      7596      7598      7593      7596      7599      7594      7593      7595
      7594      7593      7596      7595      7593      7596      7596      7599      7600
      7596      7599      7601      7596      7599      7602      7597      7596      7598
      7597      7596      7599      7598      7596      7599      7599      7602      7603
      7599      7602      7604      7599      7602      7605      7600      7599      7601
      7600      7599      7602      7601      7599      7602      7602      7605      7606
      7602      7605      7607      7602      7605      7608      7603      7602      7604
      7603      7602      7605      7604      7602      7605      7605      7608      7609
      7605      7608      7610      7605      7608      7611      7606      7605      7607
      7606      7605      7608      7607      7605      7608      7609      7608      7610
      7609      7608      7611      7610      7608      7611      7612      7615      7616
      7612      7615      7617      7612      7615      7618      7613      7612      7614
      7613      7612      7615      7614      7612      7615      7615      7618      7619
      7615      7618      7620      7615      7618      7621      7616      7615      7617
      7616      7615      7618      7617      7615      7618      7618      7621      7622
      7618      7621      7623      7618      7621      7624      7619      7618      7620
      7619      7618      7621      7620      7618      7621      7621      7624      7625
      7621      7624      7626      7621      7624      7627      7622      7621      7623
      7622      7621      7624      7623      7621      7624      7624      7627      7628
      7624      7627      7629      7624      7627      7630      7625      7624      7626
      7625      7624      7627      7626      7624      7627      7627      7630      7631
      7627      7630      7632      7627      7630      7633      7628      7627      7629
      7628      7627      7630      7629      7627      7630      7630      7633      7634
      7630      7633      7635      7630      7633      7636      7631      7630      7632
      7631      7630      7633      7632      7630      7633      7633      7636      7637
      7633      7636      7638      7633      7636      7639      7634      7633      7635
      7634      7633      7636      7635      7633      7636      7636      7639      7640
      7636      7639      7641      7636      7639      7642      7637      7636      7638
      7637      7636      7639      7638      7636      7639      7639      7642      7643
      7639      7642      7644      7639      7642      7645      7640      7639      7641
      7640      7639      7642      7641      7639      7642      7642      7645      7646
      7642      7645      7647      7642      7645      7648      7643      7642      7644
      7643      7642      7645      7644      7642      7645      7645      7648      7649
      7645      7648      7650      7645      7648      7651      7646      7645      7647
      7646      7645      7648      7647      7645      7648      7648      7651      7652
      7648      7651      7653      7648      7651      7654      7649      7648      7650
      7649      7648      7651      7650      7648      7651      7652      7651      7653
      7652      7651      7654      7653      7651      7654      7655      7656      7657
      7655      7656      7658      7655      7656      7671      7655      7659      7660
      7655      7659      7661      7655      7659      7662      7655      7663      7664
      7655      7663      7665      7655      7663      7666      7655      7667      7668
      7655      7667      7669      7655      7667      7670      7656      7655      7659
      7656      7655      7663      7656      7655      7667      7656      7671      7672
      7656      7671      7673      7656      7671      7677      7657      7656      7658
      7657      7656      7671      7658      7656      7671      7659      7655      7663
      7659      7655      7667      7660      7659      7661      7660      7659      7662
      7661      7659      7662      7663      7655      7667      7664      7663      7665
      7664      7663      7666      7665      7663      7666      7668      7667      7669
      7668      7667      7670      7669      7667      7670      7671      7677      7674
      7672      7671      7673      7672      7671      7677      7673      7671      7677
      7674      7678      7679      7675      7674      7676      7675      7674      7677
      7675      7674      7678      7676      7674      7677      7676      7674      7678
      7677      7674      7678      7678      7679      7680      7678      7679      7681
      7678      7679      7682      7679      7682      7683      7679      7682      7684
      7679      7682      7690      7680      7679      7681      7680      7679      7682
      7681      7679      7682      7682      7684      7685      7682      7690      7691
      7682      7690      7692      7682      7690      7693      7683      7682      7684
      7683      7682      7690      7684      7682      7690      7684      7685      7686
      7684      7685      7687      7685      7687      7688      7685      7687      7689
      7685      7687      7699      7686      7685      7687      7687      7699      7700
      7687      7699      7701      7687      7699      7702      7688      7687      7689
      7688      7687      7699      7689      7687      7699      7690      7693      7694
      7691      7690      7692      7691      7690      7693      7692      7690      7693
      7693      7694      7695      7693      7694      7696      7694      7696      7697
      7694      7696      7698      7694      7696      7746      7695      7694      7696
      7696      7746      7747      7696      7746      7748      7696      7746      7749
      7697      7696      7698      7697      7696      7746      7698      7696      7746
      7699      7702      7703      7699      7702      7704      7699      7702      7705
      7700      7699      7701      7700      7699      7702      7701      7699      7702
      7702      7705      7706      7702      7705      7707      7702      7705      7708
      7703      7702      7704      7703      7702      7705      7704      7702      7705
      7705      7708      7709      7705      7708      7710      7705      7708      7711
      7706      7705      7707      7706      7705      7708      7707      7705      7708
      7708      7711      7712      7708      7711      7713      7708      7711      7714
      7709      7708      7710      7709      7708      7711      7710      7708      7711
      7711      7714      7715      7711      7714      7716      7711      7714      7717
      7712      7711      7713      7712      7711      7714      7713      7711      7714
      7714      7717      7718      7714      7717      7719      7715      7714      7716
      7715      7714      7717      7716      7714      7717      7717      7719      7720
      7717      7719      7721      7718      7717      7719      7719      7721      7722
      7719      7721      7723      7719      7721      7724      7720      7719      7721
      7721      7724      7725      7721      7724      7726      7721      7724      7727
      7722      7721      7723      7722      7721      7724      7723      7721      7724
      7724      7727      7728      7724      7727      7729      7724      7727      7730
      7725      7724      7726      7725      7724      7727      7726      7724      7727
      7727      7730      7731      7727      7730      7732      7727      7730      7733
      7728      7727      7729      7728      7727      7730      7729      7727      7730
      7730      7733      7734      7730      7733      7735      7730      7733      7736
      7731      7730      7732      7731      7730      7733      7732      7730      7733
      7733      7736      7737      7733      7736      7738      7733      7736      7739
      7734      7733      7735      7734      7733      7736      7735      7733      7736
      7736      7739      7740      7736      7739      7741      7736      7739      7742
      7737      7736      7738      7737      7736      7739      7738      7736      7739
      7739      7742      7743      7739      7742      7744      7739      7742      7745
      7740      7739      7741      7740      7739      7742      7741      7739      7742
      7743      7742      7744      7743      7742      7745      7744      7742      7745
      7746      7749      7750      7746      7749      7751      7746      7749      7752
      7747      7746      7748      7747      7746      7749      7748      7746      7749
      7749      7752      7753      7749      7752      7754      7749      7752      7755
      7750      7749      7751      7750      7749      7752      7751      7749      7752
      7752      7755      7756      7752      7755      7757      7752      7755      7758
      7753      7752      7754      7753      7752      7755      7754      7752      7755
      7755      7758      7759      7755      7758      7760      7755      7758      7761
      7756      7755      7757      7756      7755      7758      7757      7755      7758
      7758      7761      7762      7758      7761      7763      7758      7761      7764
      7759      7758      7760      7759      7758      7761      7760      7758      7761
      7761      7764      7765      7761      7764      7766      7761      7764      7767
      7762      7761      7763      7762      7761      7764      7763      7761      7764
      7764      7767      7768      7764      7767      7769      7764      7767      7770
      7765      7764      7766      7765      7764      7767      7766      7764      7767
      7767      7770      7771      7767      7770      7772      7767      7770      7773
      7768      7767      7769      7768      7767      7770      7769      7767      7770
      7770      7773      7774      7770      7773      7775      7770      7773      7776
      7771      7770      7772      7771      7770      7773      7772      7770      7773
      7773      7776      7777      7773      7776      7778      7773      7776      7779
      7774      7773      7775      7774      7773      7776      7775      7773      7776
      7776      7779      7780      7776      7779      7781      7776      7779      7782
      7777      7776      7778      7777      7776      7779      7778      7776      7779
      7779      7782      7783      7779      7782      7784      7779      7782      7785
      7780      7779      7781      7780      7779      7782      7781      7779      7782
      7782      7785      7786      7782      7785      7787      7782      7785      7788
      7783      7782      7784      7783      7782      7785      7784      7782      7785
      7786      7785      7787      7786      7785      7788      7787      7785      7788
      7789      7790      7791      7789      7790      7792      7789      7790      7805
      7789      7793      7794      7789      7793      7795      7789      7793      7796
      7789      7797      7798      7789      7797      7799      7789      7797      7800
      7789      7801      7802      7789      7801      7803      7789      7801      7804
      7790      7789      7793      7790      7789      7797      7790      7789      7801
      7790      7805      7806      7790      7805      7807      7790      7805      7811
      7791      7790      7792      7791      7790      7805      7792      7790      7805
      7793      7789      7797      7793      7789      7801      7794      7793      7795
      7794      7793      7796      7795      7793      7796      7797      7789      7801
      7798      7797      7799      7798      7797      7800      7799      7797      7800
      7802      7801      7803      7802      7801      7804      7803      7801      7804
      7805      7811      7808      7806      7805      7807      7806      7805      7811
      7807      7805      7811      7808      7812      7813      7809      7808      7810
      7809      7808      7811      7809      7808      7812      7810      7808      7811
      7810      7808      7812      7811      7808      7812      7812      7813      7814
      7812      7813      7815      7812      7813      7816      7813      7816      7817
      7813      7816      7818      7813      7816      7824      7814      7813      7815
      7814      7813      7816      7815      7813      7816      7816      7818      7819
      7816      7824      7825      7816      7824      7826      7816      7824      7827
      7817      7816      7818      7817      7816      7824      7818      7816      7824
      7818      7819      7820      7818      7819      7821      7819      7821      7822
      7819      7821      7823      7819      7821      7833      7820      7819      7821
      7821      7833      7834      7821      7833      7835      7821      7833      7836
      7822      7821      7823      7822      7821      7833      7823      7821      7833
      7824      7827      7828      7825      7824      7826      7825      7824      7827
      7826      7824      7827      7827      7828      7829      7827      7828      7830
      7828      7830      7831      7828      7830      7832      7828      7830      7880
      7829      7828      7830      7830      7880      7881      7830      7880      7882
      7830      7880      7883      7831      7830      7832      7831      7830      7880
      7832      7830      7880      7833      7836      7837      7833      7836      7838
      7833      7836      7839      7834      7833      7835      7834      7833      7836
      7835      7833      7836      7836      7839      7840      7836      7839      7841
      7836      7839      7842      7837      7836      7838      7837      7836      7839
      7838      7836      7839      7839      7842      7843      7839      7842      7844
      7839      7842      7845      7840      7839      7841      7840      7839      7842
      7841      7839      7842      7842      7845      7846      7842      7845      7847
      7842      7845      7848      7843      7842      7844      7843      7842      7845
      7844      7842      7845      7845      7848      7849      7845      7848      7850
      7845      7848      7851      7846      7845      7847      7846      7845      7848
      7847      7845      7848      7848      7851      7852      7848      7851      7853
      7849      7848      7850      7849      7848      7851      7850      7848      7851
      7851      7853      7854      7851      7853      7855      7852      7851      7853
      7853      7855      7856      7853      7855      7857      7853      7855      7858
      7854      7853      7855      7855      7858      7859      7855      7858      7860
      7855      7858      7861      7856      7855      7857      7856      7855      7858
      7857      7855      7858      7858      7861      7862      7858      7861      7863
      7858      7861      7864      7859      7858      7860      7859      7858      7861
      7860      7858      7861      7861      7864      7865      7861      7864      7866
      7861      7864      7867      7862      7861      7863      7862      7861      7864
      7863      7861      7864      7864      7867      7868      7864      7867      7869
      7864      7867      7870      7865      7864      7866      7865      7864      7867
      7866      7864      7867      7867      7870      7871      7867      7870      7872
      7867      7870      7873      7868      7867      7869      7868      7867      7870
      7869      7867      7870      7870      7873      7874      7870      7873      7875
      7870      7873      7876      7871      7870      7872      7871      7870      7873
      7872      7870      7873      7873      7876      7877      7873      7876      7878
      7873      7876      7879      7874      7873      7875      7874      7873      7876
      7875      7873      7876      7877      7876      7878      7877      7876      7879
      7878      7876      7879      7880      7883      7884      7880      7883      7885
      7880      7883      7886      7881      7880      7882      7881      7880      7883
      7882      7880      7883      7883      7886      7887      7883      7886      7888
      7883      7886      7889      7884      7883      7885      7884      7883      7886
      7885      7883      7886      7886      7889      7890      7886      7889      7891
      7886      7889      7892      7887      7886      7888      7887      7886      7889
      7888      7886      7889      7889      7892      7893      7889      7892      7894
      7889      7892      7895      7890      7889      7891      7890      7889      7892
      7891      7889      7892      7892      7895      7896      7892      7895      7897
      7892      7895      7898      7893      7892      7894      7893      7892      7895
      7894      7892      7895      7895      7898      7899      7895      7898      7900
      7895      7898      7901      7896      7895      7897      7896      7895      7898
      7897      7895      7898      7898      7901      7902      7898      7901      7903
      7898      7901      7904      7899      7898      7900      7899      7898      7901
      7900      7898      7901      7901      7904      7905      7901      7904      7906
      7901      7904      7907      7902      7901      7903      7902      7901      7904
      7903      7901      7904      7904      7907      7908      7904      7907      7909
      7904      7907      7910      7905      7904      7906      7905      7904      7907
      7906      7904      7907      7907      7910      7911      7907      7910      7912
      7907      7910      7913      7908      7907      7909      7908      7907      7910
      7909      7907      7910      7910      7913      7914      7910      7913      7915
      7910      7913      7916      7911      7910      7912      7911      7910      7913
      7912      7910      7913      7913      7916      7917      7913      7916      7918
      7913      7916      7919      7914      7913      7915      7914      7913      7916
      7915      7913      7916      7916      7919      7920      7916      7919      7921
      7916      7919      7922      7917      7916      7918      7917      7916      7919
      7918      7916      7919      7920      7919      7921      7920      7919      7922
      7921      7919      7922      7923      7924      7925      7923      7924      7926
      7923      7924      7939      7923      7927      7928      7923      7927      7929
      7923      7927      7930      7923      7931      7932      7923      7931      7933
      7923      7931      7934      7923      7935      7936      7923      7935      7937
      7923      7935      7938      7924      7923      7927      7924      7923      7931
      7924      7923      7935      7924      7939      7940      7924      7939      7941
      7924      7939      7945      7925      7924      7926      7925      7924      7939
      7926      7924      7939      7927      7923      7931      7927      7923      7935
      7928      7927      7929      7928      7927      7930      7929      7927      7930
      7931      7923      7935      7932      7931      7933      7932      7931      7934
      7933      7931      7934      7936      7935      7937      7936      7935      7938
      7937      7935      7938      7939      7945      7942      7940      7939      7941
      7940      7939      7945      7941      7939      7945      7942      7946      7947
      7943      7942      7944      7943      7942      7945      7943      7942      7946
      7944      7942      7945      7944      7942      7946      7945      7942      7946
      7946      7947      7948      7946      7947      7949      7946      7947      7950
      7947      7950      7951      7947      7950      7952      7947      7950      7958
      7948      7947      7949      7948      7947      7950      7949      7947      7950
      7950      7952      7953      7950      7958      7959      7950      7958      7960
      7950      7958      7961      7951      7950      7952      7951      7950      7958
      7952      7950      7958      7952      7953      7954      7952      7953      7955
      7953      7955      7956      7953      7955      7957      7953      7955      7967
      7954      7953      7955      7955      7967      7968      7955      7967      7969
      7955      7967      7970      7956      7955      7957      7956      7955      7967
      7957      7955      7967      7958      7961      7962      7959      7958      7960
      7959      7958      7961      7960      7958      7961      7961      7962      7963
      7961      7962      7964      7962      7964      7965      7962      7964      7966
      7962      7964      8014      7963      7962      7964      7964      8014      8015
      7964      8014      8016      7964      8014      8017      7965      7964      7966
      7965      7964      8014      7966      7964      8014      7967      7970      7971
      7967      7970      7972      7967      7970      7973      7968      7967      7969
      7968      7967      7970      7969      7967      7970      7970      7973      7974
      7970      7973      7975      7970      7973      7976      7971      7970      7972
      7971      7970      7973      7972      7970      7973      7973      7976      7977
      7973      7976      7978      7973      7976      7979      7974      7973      7975
      7974      7973      7976      7975      7973      7976      7976      7979      7980
      7976      7979      7981      7976      7979      7982      7977      7976      7978
      7977      7976      7979      7978      7976      7979      7979      7982      7983
      7979      7982      7984      7979      7982      7985      7980      7979      7981
      7980      7979      7982      7981      7979      7982      7982      7985      7986
      7982      7985      7987      7983      7982      7984      7983      7982      7985
      7984      7982      7985      7985      7987      7988      7985      7987      7989
      7986      7985      7987      7987      7989      7990      7987      7989      7991
      7987      7989      7992      7988      7987      7989      7989      7992      7993
      7989      7992      7994      7989      7992      7995      7990      7989      7991
      7990      7989      7992      7991      7989      7992      7992      7995      7996
      7992      7995      7997      7992      7995      7998      7993      7992      7994
      7993      7992      7995      7994      7992      7995      7995      7998      7999
      7995      7998      8000      7995      7998      8001      7996      7995      7997
      7996      7995      7998      7997      7995      7998      7998      8001      8002
      7998      8001      8003      7998      8001      8004      7999      7998      8000
      7999      7998      8001      8000      7998      8001      8001      8004      8005
      8001      8004      8006      8001      8004      8007      8002      8001      8003
      8002      8001      8004      8003      8001      8004      8004      8007      8008
      8004      8007      8009      8004      8007      8010      8005      8004      8006
      8005      8004      8007      8006      8004      8007      8007      8010      8011
      8007      8010      8012      8007      8010      8013      8008      8007      8009
      8008      8007      8010      8009      8007      8010      8011      8010      8012
      8011      8010      8013      8012      8010      8013      8014      8017      8018
      8014      8017      8019      8014      8017      8020      8015      8014      8016
      8015      8014      8017      8016      8014      8017      8017      8020      8021
      8017      8020      8022      8017      8020      8023      8018      8017      8019
      8018      8017      8020      8019      8017      8020      8020      8023      8024
      8020      8023      8025      8020      8023      8026      8021      8020      8022
      8021      8020      8023      8022      8020      8023      8023      8026      8027
      8023      8026      8028      8023      8026      8029      8024      8023      8025
      8024      8023      8026      8025      8023      8026      8026      8029      8030
      8026      8029      8031      8026      8029      8032      8027      8026      8028
      8027      8026      8029      8028      8026      8029      8029      8032      8033
      8029      8032      8034      8029      8032      8035      8030      8029      8031
      8030      8029      8032      8031      8029      8032      8032      8035      8036
      8032      8035      8037      8032      8035      8038      8033      8032      8034
      8033      8032      8035      8034      8032      8035      8035      8038      8039
      8035      8038      8040      8035      8038      8041      8036      8035      8037
      8036      8035      8038      8037      8035      8038      8038      8041      8042
      8038      8041      8043      8038      8041      8044      8039      8038      8040
      8039      8038      8041      8040      8038      8041      8041      8044      8045
      8041      8044      8046      8041      8044      8047      8042      8041      8043
      8042      8041      8044      8043      8041      8044      8044      8047      8048
      8044      8047      8049      8044      8047      8050      8045      8044      8046
      8045      8044      8047      8046      8044      8047      8047      8050      8051
      8047      8050      8052      8047      8050      8053      8048      8047      8049
      8048      8047      8050      8049      8047      8050      8050      8053      8054
      8050      8053      8055      8050      8053      8056      8051      8050      8052
      8051      8050      8053      8052      8050      8053      8054      8053      8055
      8054      8053      8056      8055      8053      8056      8057      8058      8059
      8057      8058      8060      8057      8058      8073      8057      8061      8062
      8057      8061      8063      8057      8061      8064      8057      8065      8066
      8057      8065      8067      8057      8065      8068      8057      8069      8070
      8057      8069      8071      8057      8069      8072      8058      8057      8061
      8058      8057      8065      8058      8057      8069      8058      8073      8074
      8058      8073      8075      8058      8073      8079      8059      8058      8060
      8059      8058      8073      8060      8058      8073      8061      8057      8065
      8061      8057      8069      8062      8061      8063      8062      8061      8064
      8063      8061      8064      8065      8057      8069      8066      8065      8067
      8066      8065      8068      8067      8065      8068      8070      8069      8071
      8070      8069      8072      8071      8069      8072      8073      8079      8076
      8074      8073      8075      8074      8073      8079      8075      8073      8079
      8076      8080      8081      8077      8076      8078      8077      8076      8079
      8077      8076      8080      8078      8076      8079      8078      8076      8080
      8079      8076      8080      8080      8081      8082      8080      8081      8083
      8080      8081      8084      8081      8084      8085      8081      8084      8086
      8081      8084      8092      8082      8081      8083      8082      8081      8084
      8083      8081      8084      8084      8086      8087      8084      8092      8093
      8084      8092      8094      8084      8092      8095      8085      8084      8086
      8085      8084      8092      8086      8084      8092      8086      8087      8088
      8086      8087      8089      8087      8089      8090      8087      8089      8091
      8087      8089      8101      8088      8087      8089      8089      8101      8102
      8089      8101      8103      8089      8101      8104      8090      8089      8091
      8090      8089      8101      8091      8089      8101      8092      8095      8096
      8093      8092      8094      8093      8092      8095      8094      8092      8095
      8095      8096      8097      8095      8096      8098      8096      8098      8099
      8096      8098      8100      8096      8098      8148      8097      8096      8098
      8098      8148      8149      8098      8148      8150      8098      8148      8151
      8099      8098      8100      8099      8098      8148      8100      8098      8148
      8101      8104      8105      8101      8104      8106      8101      8104      8107
      8102      8101      8103      8102      8101      8104      8103      8101      8104
      8104      8107      8108      8104      8107      8109      8104      8107      8110
      8105      8104      8106      8105      8104      8107      8106      8104      8107
      8107      8110      8111      8107      8110      8112      8107      8110      8113
      8108      8107      8109      8108      8107      8110      8109      8107      8110
      8110      8113      8114      8110      8113      8115      8110      8113      8116
      8111      8110      8112      8111      8110      8113      8112      8110      8113
      8113      8116      8117      8113      8116      8118      8113      8116      8119
      8114      8113      8115      8114      8113      8116      8115      8113      8116
      8116      8119      8120      8116      8119      8121      8117      8116      8118
      8117      8116      8119      8118      8116      8119      8119      8121      8122
      8119      8121      8123      8120      8119      8121      8121      8123      8124
      8121      8123      8125      8121      8123      8126      8122      8121      8123
      8123      8126      8127      8123      8126      8128      8123      8126      8129
      8124      8123      8125      8124      8123      8126      8125      8123      8126
      8126      8129      8130      8126      8129      8131      8126      8129      8132
      8127      8126      8128      8127      8126      8129      8128      8126      8129
      8129      8132      8133      8129      8132      8134      8129      8132      8135
      8130      8129      8131      8130      8129      8132      8131      8129      8132
      8132      8135      8136      8132      8135      8137      8132      8135      8138
      8133      8132      8134      8133      8132      8135      8134      8132      8135
      8135      8138      8139      8135      8138      8140      8135      8138      8141
      8136      8135      8137      8136      8135      8138      8137      8135      8138
      8138      8141      8142      8138      8141      8143      8138      8141      8144
      8139      8138      8140      8139      8138      8141      8140      8138      8141
      8141      8144      8145      8141      8144      8146      8141      8144      8147
      8142      8141      8143      8142      8141      8144      8143      8141      8144
      8145      8144      8146      8145      8144      8147      8146      8144      8147
      8148      8151      8152      8148      8151      8153      8148      8151      8154
      8149      8148      8150      8149      8148      8151      8150      8148      8151
      8151      8154      8155      8151      8154      8156      8151      8154      8157
      8152      8151      8153      8152      8151      8154      8153      8151      8154
      8154      8157      8158      8154      8157      8159      8154      8157      8160
      8155      8154      8156      8155      8154      8157      8156      8154      8157
      8157      8160      8161      8157      8160      8162      8157      8160      8163
      8158      8157      8159      8158      8157      8160      8159      8157      8160
      8160      8163      8164      8160      8163      8165      8160      8163      8166
      8161      8160      8162      8161      8160      8163      8162      8160      8163
      8163      8166      8167      8163      8166      8168      8163      8166      8169
      8164      8163      8165      8164      8163      8166      8165      8163      8166
      8166      8169      8170      8166      8169      8171      8166      8169      8172
      8167      8166      8168      8167      8166      8169      8168      8166      8169
      8169      8172      8173      8169      8172      8174      8169      8172      8175
      8170      8169      8171      8170      8169      8172      8171      8169      8172
      8172      8175      8176      8172      8175      8177      8172      8175      8178
      8173      8172      8174      8173      8172      8175      8174      8172      8175
      8175      8178      8179      8175      8178      8180      8175      8178      8181
      8176      8175      8177      8176      8175      8178      8177      8175      8178
      8178      8181      8182      8178      8181      8183      8178      8181      8184
      8179      8178      8180      8179      8178      8181      8180      8178      8181
      8181      8184      8185      8181      8184      8186      8181      8184      8187
      8182      8181      8183      8182      8181      8184      8183      8181      8184
      8184      8187      8188      8184      8187      8189      8184      8187      8190
      8185      8184      8186      8185      8184      8187      8186      8184      8187
      8188      8187      8189      8188      8187      8190      8189      8187      8190
      8191      8192      8193      8191      8192      8194      8191      8192      8207
      8191      8195      8196      8191      8195      8197      8191      8195      8198
      8191      8199      8200      8191      8199      8201      8191      8199      8202
      8191      8203      8204      8191      8203      8205      8191      8203      8206
      8192      8191      8195      8192      8191      8199      8192      8191      8203
      8192      8207      8208      8192      8207      8209      8192      8207      8213
      8193      8192      8194      8193      8192      8207      8194      8192      8207
      8195      8191      8199      8195      8191      8203      8196      8195      8197
      8196      8195      8198      8197      8195      8198      8199      8191      8203
      8200      8199      8201      8200      8199      8202      8201      8199      8202
      8204      8203      8205      8204      8203      8206      8205      8203      8206
      8207      8213      8210      8208      8207      8209      8208      8207      8213
      8209      8207      8213      8210      8214      8215      8211      8210      8212
      8211      8210      8213      8211      8210      8214      8212      8210      8213
      8212      8210      8214      8213      8210      8214      8214      8215      8216
      8214      8215      8217      8214      8215      8218      8215      8218      8219
      8215      8218      8220      8215      8218      8226      8216      8215      8217
      8216      8215      8218      8217      8215      8218      8218      8220      8221
      8218      8226      8227      8218      8226      8228      8218      8226      8229
      8219      8218      8220      8219      8218      8226      8220      8218      8226
      8220      8221      8222      8220      8221      8223      8221      8223      8224
      8221      8223      8225      8221      8223      8235      8222      8221      8223
      8223      8235      8236      8223      8235      8237      8223      8235      8238
      8224      8223      8225      8224      8223      8235      8225      8223      8235
      8226      8229      8230      8227      8226      8228      8227      8226      8229
      8228      8226      8229      8229      8230      8231      8229      8230      8232
      8230      8232      8233      8230      8232      8234      8230      8232      8282
      8231      8230      8232      8232      8282      8283      8232      8282      8284
      8232      8282      8285      8233      8232      8234      8233      8232      8282
      8234      8232      8282      8235      8238      8239      8235      8238      8240
      8235      8238      8241      8236      8235      8237      8236      8235      8238
      8237      8235      8238      8238      8241      8242      8238      8241      8243
      8238      8241      8244      8239      8238      8240      8239      8238      8241
      8240      8238      8241      8241      8244      8245      8241      8244      8246
      8241      8244      8247      8242      8241      8243      8242      8241      8244
      8243      8241      8244      8244      8247      8248      8244      8247      8249
      8244      8247      8250      8245      8244      8246      8245      8244      8247
      8246      8244      8247      8247      8250      8251      8247      8250      8252
      8247      8250      8253      8248      8247      8249      8248      8247      8250
      8249      8247      8250      8250      8253      8254      8250      8253      8255
      8251      8250      8252      8251      8250      8253      8252      8250      8253
      8253      8255      8256      8253      8255      8257      8254      8253      8255
      8255      8257      8258      8255      8257      8259      8255      8257      8260
      8256      8255      8257      8257      8260      8261      8257      8260      8262
      8257      8260      8263      8258      8257      8259      8258      8257      8260
      8259      8257      8260      8260      8263      8264      8260      8263      8265
      8260      8263      8266      8261      8260      8262      8261      8260      8263
      8262      8260      8263      8263      8266      8267      8263      8266      8268
      8263      8266      8269      8264      8263      8265      8264      8263      8266
      8265      8263      8266      8266      8269      8270      8266      8269      8271
      8266      8269      8272      8267      8266      8268      8267      8266      8269
      8268      8266      8269      8269      8272      8273      8269      8272      8274
      8269      8272      8275      8270      8269      8271      8270      8269      8272
      8271      8269      8272      8272      8275      8276      8272      8275      8277
      8272      8275      8278      8273      8272      8274      8273      8272      8275
      8274      8272      8275      8275      8278      8279      8275      8278      8280
      8275      8278      8281      8276      8275      8277      8276      8275      8278
      8277      8275      8278      8279      8278      8280      8279      8278      8281
      8280      8278      8281      8282      8285      8286      8282      8285      8287
      8282      8285      8288      8283      8282      8284      8283      8282      8285
      8284      8282      8285      8285      8288      8289      8285      8288      8290
      8285      8288      8291      8286      8285      8287      8286      8285      8288
      8287      8285      8288      8288      8291      8292      8288      8291      8293
      8288      8291      8294      8289      8288      8290      8289      8288      8291
      8290      8288      8291      8291      8294      8295      8291      8294      8296
      8291      8294      8297      8292      8291      8293      8292      8291      8294
      8293      8291      8294      8294      8297      8298      8294      8297      8299
      8294      8297      8300      8295      8294      8296      8295      8294      8297
      8296      8294      8297      8297      8300      8301      8297      8300      8302
      8297      8300      8303      8298      8297      8299      8298      8297      8300
      8299      8297      8300      8300      8303      8304      8300      8303      8305
      8300      8303      8306      8301      8300      8302      8301      8300      8303
      8302      8300      8303      8303      8306      8307      8303      8306      8308
      8303      8306      8309      8304      8303      8305      8304      8303      8306
      8305      8303      8306      8306      8309      8310      8306      8309      8311
      8306      8309      8312      8307      8306      8308      8307      8306      8309
      8308      8306      8309      8309      8312      8313      8309      8312      8314
      8309      8312      8315      8310      8309      8311      8310      8309      8312
      8311      8309      8312      8312      8315      8316      8312      8315      8317
      8312      8315      8318      8313      8312      8314      8313      8312      8315
      8314      8312      8315      8315      8318      8319      8315      8318      8320
      8315      8318      8321      8316      8315      8317      8316      8315      8318
      8317      8315      8318      8318      8321      8322      8318      8321      8323
      8318      8321      8324      8319      8318      8320      8319      8318      8321
      8320      8318      8321      8322      8321      8323      8322      8321      8324
      8323      8321      8324      8325      8326      8327      8325      8326      8328
      8325      8326      8341      8325      8329      8330      8325      8329      8331
      8325      8329      8332      8325      8333      8334      8325      8333      8335
      8325      8333      8336      8325      8337      8338      8325      8337      8339
      8325      8337      8340      8326      8325      8329      8326      8325      8333
      8326      8325      8337      8326      8341      8342      8326      8341      8343
      8326      8341      8347      8327      8326      8328      8327      8326      8341
      8328      8326      8341      8329      8325      8333      8329      8325      8337
      8330      8329      8331      8330      8329      8332      8331      8329      8332
      8333      8325      8337      8334      8333      8335      8334      8333      8336
      8335      8333      8336      8338      8337      8339      8338      8337      8340
      8339      8337      8340      8341      8347      8344      8342      8341      8343
      8342      8341      8347      8343      8341      8347      8344      8348      8349
      8345      8344      8346      8345      8344      8347      8345      8344      8348
      8346      8344      8347      8346      8344      8348      8347      8344      8348
      8348      8349      8350      8348      8349      8351      8348      8349      8352
      8349      8352      8353      8349      8352      8354      8349      8352      8360
      8350      8349      8351      8350      8349      8352      8351      8349      8352
      8352      8354      8355      8352      8360      8361      8352      8360      8362
      8352      8360      8363      8353      8352      8354      8353      8352      8360
      8354      8352      8360      8354      8355      8356      8354      8355      8357
      8355      8357      8358      8355      8357      8359      8355      8357      8369
      8356      8355      8357      8357      8369      8370      8357      8369      8371
      8357      8369      8372      8358      8357      8359      8358      8357      8369
      8359      8357      8369      8360      8363      8364      8361      8360      8362
      8361      8360      8363      8362      8360      8363      8363      8364      8365
      8363      8364      8366      8364      8366      8367      8364      8366      8368
      8364      8366      8416      8365      8364      8366      8366      8416      8417
      8366      8416      8418      8366      8416      8419      8367      8366      8368
      8367      8366      8416      8368      8366      8416      8369      8372      8373
      8369      8372      8374      8369      8372      8375      8370      8369      8371
      8370      8369      8372      8371      8369      8372      8372      8375      8376
      8372      8375      8377      8372      8375      8378      8373      8372      8374
      8373      8372      8375      8374      8372      8375      8375      8378      8379
      8375      8378      8380      8375      8378      8381      8376      8375      8377
      8376      8375      8378      8377      8375      8378      8378      8381      8382
      8378      8381      8383      8378      8381      8384      8379      8378      8380
      8379      8378      8381      8380      8378      8381      8381      8384      8385
      8381      8384      8386      8381      8384      8387      8382      8381      8383
      8382      8381      8384      8383      8381      8384      8384      8387      8388
      8384      8387      8389      8385      8384      8386      8385      8384      8387
      8386      8384      8387      8387      8389      8390      8387      8389      8391
      8388      8387      8389      8389      8391      8392      8389      8391      8393
      8389      8391      8394      8390      8389      8391      8391      8394      8395
      8391      8394      8396      8391      8394      8397      8392      8391      8393
      8392      8391      8394      8393      8391      8394      8394      8397      8398
      8394      8397      8399      8394      8397      8400      8395      8394      8396
      8395      8394      8397      8396      8394      8397      8397      8400      8401
      8397      8400      8402      8397      8400      8403      8398      8397      8399
      8398      8397      8400      8399      8397      8400      8400      8403      8404
      8400      8403      8405      8400      8403      8406      8401      8400      8402
      8401      8400      8403      8402      8400      8403      8403      8406      8407
      8403      8406      8408      8403      8406      8409      8404      8403      8405
      8404      8403      8406      8405      8403      8406      8406      8409      8410
      8406      8409      8411      8406      8409      8412      8407      8406      8408
      8407      8406      8409      8408      8406      8409      8409      8412      8413
      8409      8412      8414      8409      8412      8415      8410      8409      8411
      8410      8409      8412      8411      8409      8412      8413      8412      8414
      8413      8412      8415      8414      8412      8415      8416      8419      8420
      8416      8419      8421      8416      8419      8422      8417      8416      8418
      8417      8416      8419      8418      8416      8419      8419      8422      8423
      8419      8422      8424      8419      8422      8425      8420      8419      8421
      8420      8419      8422      8421      8419      8422      8422      8425      8426
      8422      8425      8427      8422      8425      8428      8423      8422      8424
      8423      8422      8425      8424      8422      8425      8425      8428      8429
      8425      8428      8430      8425      8428      8431      8426      8425      8427
      8426      8425      8428      8427      8425      8428      8428      8431      8432
      8428      8431      8433      8428      8431      8434      8429      8428      8430
      8429      8428      8431      8430      8428      8431      8431      8434      8435
      8431      8434      8436      8431      8434      8437      8432      8431      8433
      8432      8431      8434      8433      8431      8434      8434      8437      8438
      8434      8437      8439      8434      8437      8440      8435      8434      8436
      8435      8434      8437      8436      8434      8437      8437      8440      8441
      8437      8440      8442      8437      8440      8443      8438      8437      8439
      8438      8437      8440      8439      8437      8440      8440      8443      8444
      8440      8443      8445      8440      8443      8446      8441      8440      8442
      8441      8440      8443      8442      8440      8443      8443      8446      8447
      8443      8446      8448      8443      8446      8449      8444      8443      8445
      8444      8443      8446      8445      8443      8446      8446      8449      8450
      8446      8449      8451      8446      8449      8452      8447      8446      8448
      8447      8446      8449      8448      8446      8449      8449      8452      8453
      8449      8452      8454      8449      8452      8455      8450      8449      8451
      8450      8449      8452      8451      8449      8452      8452      8455      8456
      8452      8455      8457      8452      8455      8458      8453      8452      8454
      8453      8452      8455      8454      8452      8455      8456      8455      8457
      8456      8455      8458      8457      8455      8458      8459      8460      8461
      8459      8460      8462      8459      8460      8475      8459      8463      8464
      8459      8463      8465      8459      8463      8466      8459      8467      8468
      8459      8467      8469      8459      8467      8470      8459      8471      8472
      8459      8471      8473      8459      8471      8474      8460      8459      8463
      8460      8459      8467      8460      8459      8471      8460      8475      8476
      8460      8475      8477      8460      8475      8481      8461      8460      8462
      8461      8460      8475      8462      8460      8475      8463      8459      8467
      8463      8459      8471      8464      8463      8465      8464      8463      8466
      8465      8463      8466      8467      8459      8471      8468      8467      8469
      8468      8467      8470      8469      8467      8470      8472      8471      8473
      8472      8471      8474      8473      8471      8474      8475      8481      8478
      8476      8475      8477      8476      8475      8481      8477      8475      8481
      8478      8482      8483      8479      8478      8480      8479      8478      8481
      8479      8478      8482      8480      8478      8481      8480      8478      8482
      8481      8478      8482      8482      8483      8484      8482      8483      8485
      8482      8483      8486      8483      8486      8487      8483      8486      8488
      8483      8486      8494      8484      8483      8485      8484      8483      8486
      8485      8483      8486      8486      8488      8489      8486      8494      8495
      8486      8494      8496      8486      8494      8497      8487      8486      8488
      8487      8486      8494      8488      8486      8494      8488      8489      8490
      8488      8489      8491      8489      8491      8492      8489      8491      8493
      8489      8491      8503      8490      8489      8491      8491      8503      8504
      8491      8503      8505      8491      8503      8506      8492      8491      8493
      8492      8491      8503      8493      8491      8503      8494      8497      8498
      8495      8494      8496      8495      8494      8497      8496      8494      8497
      8497      8498      8499      8497      8498      8500      8498      8500      8501
      8498      8500      8502      8498      8500      8550      8499      8498      8500
      8500      8550      8551      8500      8550      8552      8500      8550      8553
      8501      8500      8502      8501      8500      8550      8502      8500      8550
      8503      8506      8507      8503      8506      8508      8503      8506      8509
      8504      8503      8505      8504      8503      8506      8505      8503      8506
      8506      8509      8510      8506      8509      8511      8506      8509      8512
      8507      8506      8508      8507      8506      8509      8508      8506      8509
      8509      8512      8513      8509      8512      8514      8509      8512      8515
      8510      8509      8511      8510      8509      8512      8511      8509      8512
      8512      8515      8516      8512      8515      8517      8512      8515      8518
      8513      8512      8514      8513      8512      8515      8514      8512      8515
      8515      8518      8519      8515      8518      8520      8515      8518      8521
      8516      8515      8517      8516      8515      8518      8517      8515      8518
      8518      8521      8522      8518      8521      8523      8519      8518      8520
      8519      8518      8521      8520      8518      8521      8521      8523      8524
      8521      8523      8525      8522      8521      8523      8523      8525      8526
      8523      8525      8527      8523      8525      8528      8524      8523      8525
      8525      8528      8529      8525      8528      8530      8525      8528      8531
      8526      8525      8527      8526      8525      8528      8527      8525      8528
      8528      8531      8532      8528      8531      8533      8528      8531      8534
      8529      8528      8530      8529      8528      8531      8530      8528      8531
      8531      8534      8535      8531      8534      8536      8531      8534      8537
      8532      8531      8533      8532      8531      8534      8533      8531      8534
      8534      8537      8538      8534      8537      8539      8534      8537      8540
      8535      8534      8536      8535      8534      8537      8536      8534      8537
      8537      8540      8541      8537      8540      8542      8537      8540      8543
      8538      8537      8539      8538      8537      8540      8539      8537      8540
      8540      8543      8544      8540      8543      8545      8540      8543      8546
      8541      8540      8542      8541      8540      8543      8542      8540      8543
      8543      8546      8547      8543      8546      8548      8543      8546      8549
      8544      8543      8545      8544      8543      8546      8545      8543      8546
      8547      8546      8548      8547      8546      8549      8548      8546      8549
      8550      8553      8554      8550      8553      8555      8550      8553      8556
      8551      8550      8552      8551      8550      8553      8552      8550      8553
      8553      8556      8557      8553      8556      8558      8553      8556      8559
      8554      8553      8555      8554      8553      8556      8555      8553      8556
      8556      8559      8560      8556      8559      8561      8556      8559      8562
      8557      8556      8558      8557      8556      8559      8558      8556      8559
      8559      8562      8563      8559      8562      8564      8559      8562      8565
      8560      8559      8561      8560      8559      8562      8561      8559      8562
      8562      8565      8566      8562      8565      8567      8562      8565      8568
      8563      8562      8564      8563      8562      8565      8564      8562      8565
      8565      8568      8569      8565      8568      8570      8565      8568      8571
      8566      8565      8567      8566      8565      8568      8567      8565      8568
      8568      8571      8572      8568      8571      8573      8568      8571      8574
      8569      8568      8570      8569      8568      8571      8570      8568      8571
      8571      8574      8575      8571      8574      8576      8571      8574      8577
      8572      8571      8573      8572      8571      8574      8573      8571      8574
      8574      8577      8578      8574      8577      8579      8574      8577      8580
      8575      8574      8576      8575      8574      8577      8576      8574      8577
      8577      8580      8581      8577      8580      8582      8577      8580      8583
      8578      8577      8579      8578      8577      8580      8579      8577      8580
      8580      8583      8584      8580      8583      8585      8580      8583      8586
      8581      8580      8582      8581      8580      8583      8582      8580      8583
      8583      8586      8587      8583      8586      8588      8583      8586      8589
      8584      8583      8585      8584      8583      8586      8585      8583      8586
      8586      8589      8590      8586      8589      8591      8586      8589      8592
      8587      8586      8588      8587      8586      8589      8588      8586      8589
      8590      8589      8591      8590      8589      8592      8591      8589      8592
      8593      8594      8595      8593      8594      8596      8593      8594      8609
      8593      8597      8598      8593      8597      8599      8593      8597      8600
      8593      8601      8602      8593      8601      8603      8593      8601      8604
      8593      8605      8606      8593      8605      8607      8593      8605      8608
      8594      8593      8597      8594      8593      8601      8594      8593      8605
      8594      8609      8610      8594      8609      8611      8594      8609      8615
      8595      8594      8596      8595      8594      8609      8596      8594      8609
      8597      8593      8601      8597      8593      8605      8598      8597      8599
      8598      8597      8600      8599      8597      8600      8601      8593      8605
      8602      8601      8603      8602      8601      8604      8603      8601      8604
      8606      8605      8607      8606      8605      8608      8607      8605      8608
      8609      8615      8612      8610      8609      8611      8610      8609      8615
      8611      8609      8615      8612      8616      8617      8613      8612      8614
      8613      8612      8615      8613      8612      8616      8614      8612      8615
      8614      8612      8616      8615      8612      8616      8616      8617      8618
      8616      8617      8619      8616      8617      8620      8617      8620      8621
      8617      8620      8622      8617      8620      8628      8618      8617      8619
      8618      8617      8620      8619      8617      8620      8620      8622      8623
      8620      8628      8629      8620      8628      8630      8620      8628      8631
      8621      8620      8622      8621      8620      8628      8622      8620      8628
      8622      8623      8624      8622      8623      8625      8623      8625      8626
      8623      8625      8627      8623      8625      8637      8624      8623      8625
      8625      8637      8638      8625      8637      8639      8625      8637      8640
      8626      8625      8627      8626      8625      8637      8627      8625      8637
      8628      8631      8632      8629      8628      8630      8629      8628      8631
      8630      8628      8631      8631      8632      8633      8631      8632      8634
      8632      8634      8635      8632      8634      8636      8632      8634      8684
      8633      8632      8634      8634      8684      8685      8634      8684      8686
      8634      8684      8687      8635      8634      8636      8635      8634      8684
      8636      8634      8684      8637      8640      8641      8637      8640      8642
      8637      8640      8643      8638      8637      8639      8638      8637      8640
      8639      8637      8640      8640      8643      8644      8640      8643      8645
      8640      8643      8646      8641      8640      8642      8641      8640      8643
      8642      8640      8643      8643      8646      8647      8643      8646      8648
      8643      8646      8649      8644      8643      8645      8644      8643      8646
      8645      8643      8646      8646      8649      8650      8646      8649      8651
      8646      8649      8652      8647      8646      8648      8647      8646      8649
      8648      8646      8649      8649      8652      8653      8649      8652      8654
      8649      8652      8655      8650      8649      8651      8650      8649      8652
      8651      8649      8652      8652      8655      8656      8652      8655      8657
      8653      8652      8654      8653      8652      8655      8654      8652      8655
      8655      8657      8658      8655      8657      8659      8656      8655      8657
      8657      8659      8660      8657      8659      8661      8657      8659      8662
      8658      8657      8659      8659      8662      8663      8659      8662      8664
      8659      8662      8665      8660      8659      8661      8660      8659      8662
      8661      8659      8662      8662      8665      8666      8662      8665      8667
      8662      8665      8668      8663      8662      8664      8663      8662      8665
      8664      8662      8665      8665      8668      8669      8665      8668      8670
      8665      8668      8671      8666      8665      8667      8666      8665      8668
      8667      8665      8668      8668      8671      8672      8668      8671      8673
      8668      8671      8674      8669      8668      8670      8669      8668      8671
      8670      8668      8671      8671      8674      8675      8671      8674      8676
      8671      8674      8677      8672      8671      8673      8672      8671      8674
      8673      8671      8674      8674      8677      8678      8674      8677      8679
      8674      8677      8680      8675      8674      8676      8675      8674      8677
      8676      8674      8677      8677      8680      8681      8677      8680      8682
      8677      8680      8683      8678      8677      8679      8678      8677      8680
      8679      8677      8680      8681      8680      8682      8681      8680      8683
      8682      8680      8683      8684      8687      8688      8684      8687      8689
      8684      8687      8690      8685      8684      8686      8685      8684      8687
      8686      8684      8687      8687      8690      8691      8687      8690      8692
      8687      8690      8693      8688      8687      8689      8688      8687      8690
      8689      8687      8690      8690      8693      8694      8690      8693      8695
      8690      8693      8696      8691      8690      8692      8691      8690      8693
      8692      8690      8693      8693      8696      8697      8693      8696      8698
      8693      8696      8699      8694      8693      8695      8694      8693      8696
      8695      8693      8696      8696      8699      8700      8696      8699      8701
      8696      8699      8702      8697      8696      8698      8697      8696      8699
      8698      8696      8699      8699      8702      8703      8699      8702      8704
      8699      8702      8705      8700      8699      8701      8700      8699      8702
      8701      8699      8702      8702      8705      8706      8702      8705      8707
      8702      8705      8708      8703      8702      8704      8703      8702      8705
      8704      8702      8705      8705      8708      8709      8705      8708      8710
      8705      8708      8711      8706      8705      8707      8706      8705      8708
      8707      8705      8708      8708      8711      8712      8708      8711      8713
      8708      8711      8714      8709      8708      8710      8709      8708      8711
      8710      8708      8711      8711      8714      8715      8711      8714      8716
      8711      8714      8717      8712      8711      8713      8712      8711      8714
      8713      8711      8714      8714      8717      8718      8714      8717      8719
      8714      8717      8720      8715      8714      8716      8715      8714      8717
      8716      8714      8717      8717      8720      8721      8717      8720      8722
      8717      8720      8723      8718      8717      8719      8718      8717      8720
      8719      8717      8720      8720      8723      8724      8720      8723      8725
      8720      8723      8726      8721      8720      8722      8721      8720      8723
      8722      8720      8723      8724      8723      8725      8724      8723      8726
      8725      8723      8726      8727      8728      8729      8727      8728      8730
      8727      8728      8743      8727      8731      8732      8727      8731      8733
      8727      8731      8734      8727      8735      8736      8727      8735      8737
      8727      8735      8738      8727      8739      8740      8727      8739      8741
      8727      8739      8742      8728      8727      8731      8728      8727      8735
      8728      8727      8739      8728      8743      8744      8728      8743      8745
      8728      8743      8749      8729      8728      8730      8729      8728      8743
      8730      8728      8743      8731      8727      8735      8731      8727      8739
      8732      8731      8733      8732      8731      8734      8733      8731      8734
      8735      8727      8739      8736      8735      8737      8736      8735      8738
      8737      8735      8738      8740      8739      8741      8740      8739      8742
      8741      8739      8742      8743      8749      8746      8744      8743      8745
      8744      8743      8749      8745      8743      8749      8746      8750      8751
      8747      8746      8748      8747      8746      8749      8747      8746      8750
      8748      8746      8749      8748      8746      8750      8749      8746      8750
      8750      8751      8752      8750      8751      8753      8750      8751      8754
      8751      8754      8755      8751      8754      8756      8751      8754      8762
      8752      8751      8753      8752      8751      8754      8753      8751      8754
      8754      8756      8757      8754      8762      8763      8754      8762      8764
      8754      8762      8765      8755      8754      8756      8755      8754      8762
      8756      8754      8762      8756      8757      8758      8756      8757      8759
      8757      8759      8760      8757      8759      8761      8757      8759      8771
      8758      8757      8759      8759      8771      8772      8759      8771      8773
      8759      8771      8774      8760      8759      8761      8760      8759      8771
      8761      8759      8771      8762      8765      8766      8763      8762      8764
      8763      8762      8765      8764      8762      8765      8765      8766      8767
      8765      8766      8768      8766      8768      8769      8766      8768      8770
      8766      8768      8818      8767      8766      8768      8768      8818      8819
      8768      8818      8820      8768      8818      8821      8769      8768      8770
      8769      8768      8818      8770      8768      8818      8771      8774      8775
      8771      8774      8776      8771      8774      8777      8772      8771      8773
      8772      8771      8774      8773      8771      8774      8774      8777      8778
      8774      8777      8779      8774      8777      8780      8775      8774      8776
      8775      8774      8777      8776      8774      8777      8777      8780      8781
      8777      8780      8782      8777      8780      8783      8778      8777      8779
      8778      8777      8780      8779      8777      8780      8780      8783      8784
      8780      8783      8785      8780      8783      8786      8781      8780      8782
      8781      8780      8783      8782      8780      8783      8783      8786      8787
      8783      8786      8788      8783      8786      8789      8784      8783      8785
      8784      8783      8786      8785      8783      8786      8786      8789      8790
      8786      8789      8791      8787      8786      8788      8787      8786      8789
      8788      8786      8789      8789      8791      8792      8789      8791      8793
      8790      8789      8791      8791      8793      8794      8791      8793      8795
      8791      8793      8796      8792      8791      8793      8793      8796      8797
      8793      8796      8798      8793      8796      8799      8794      8793      8795
      8794      8793      8796      8795      8793      8796      8796      8799      8800
      8796      8799      8801      8796      8799      8802      8797      8796      8798
      8797      8796      8799      8798      8796      8799      8799      8802      8803
      8799      8802      8804      8799      8802      8805      8800      8799      8801
      8800      8799      8802      8801      8799      8802      8802      8805      8806
      8802      8805      8807      8802      8805      8808      8803      8802      8804
      8803      8802      8805      8804      8802      8805      8805      8808      8809
      8805      8808      8810      8805      8808      8811      8806      8805      8807
      8806      8805      8808      8807      8805      8808      8808      8811      8812
      8808      8811      8813      8808      8811      8814      8809      8808      8810
      8809      8808      8811      8810      8808      8811      8811      8814      8815
      8811      8814      8816      8811      8814      8817      8812      8811      8813
      8812      8811      8814      8813      8811      8814      8815      8814      8816
      8815      8814      8817      8816      8814      8817      8818      8821      8822
      8818      8821      8823      8818      8821      8824      8819      8818      8820
      8819      8818      8821      8820      8818      8821      8821      8824      8825
      8821      8824      8826      8821      8824      8827      8822      8821      8823
      8822      8821      8824      8823      8821      8824      8824      8827      8828
      8824      8827      8829      8824      8827      8830      8825      8824      8826
      8825      8824      8827      8826      8824      8827      8827      8830      8831
      8827      8830      8832      8827      8830      8833      8828      8827      8829
      8828      8827      8830      8829      8827      8830      8830      8833      8834
      8830      8833      8835      8830      8833      8836      8831      8830      8832
      8831      8830      8833      8832      8830      8833      8833      8836      8837
      8833      8836      8838      8833      8836      8839      8834      8833      8835
      8834      8833      8836      8835      8833      8836      8836      8839      8840
      8836      8839      8841      8836      8839      8842      8837      8836      8838
      8837      8836      8839      8838      8836      8839      8839      8842      8843
      8839      8842      8844      8839      8842      8845      8840      8839      8841
      8840      8839      8842      8841      8839      8842      8842      8845      8846
      8842      8845      8847      8842      8845      8848      8843      8842      8844
      8843      8842      8845      8844      8842      8845      8845      8848      8849
      8845      8848      8850      8845      8848      8851      8846      8845      8847
      8846      8845      8848      8847      8845      8848      8848      8851      8852
      8848      8851      8853      8848      8851      8854      8849      8848      8850
      8849      8848      8851      8850      8848      8851      8851      8854      8855
      8851      8854      8856      8851      8854      8857      8852      8851      8853
      8852      8851      8854      8853      8851      8854      8854      8857      8858
      8854      8857      8859      8854      8857      8860      8855      8854      8856
      8855      8854      8857      8856      8854      8857      8858      8857      8859
      8858      8857      8860      8859      8857      8860      8861      8862      8863
      8861      8862      8864      8861      8862      8877      8861      8865      8866
      8861      8865      8867      8861      8865      8868      8861      8869      8870
      8861      8869      8871      8861      8869      8872      8861      8873      8874
      8861      8873      8875      8861      8873      8876      8862      8861      8865
      8862      8861      8869      8862      8861      8873      8862      8877      8878
      8862      8877      8879      8862      8877      8883      8863      8862      8864
      8863      8862      8877      8864      8862      8877      8865      8861      8869
      8865      8861      8873      8866      8865      8867      8866      8865      8868
      8867      8865      8868      8869      8861      8873      8870      8869      8871
      8870      8869      8872      8871      8869      8872      8874      8873      8875
      8874      8873      8876      8875      8873      8876      8877      8883      8880
      8878      8877      8879      8878      8877      8883      8879      8877      8883
      8880      8884      8885      8881      8880      8882      8881      8880      8883
      8881      8880      8884      8882      8880      8883      8882      8880      8884
      8883      8880      8884      8884      8885      8886      8884      8885      8887
      8884      8885      8888      8885      8888      8889      8885      8888      8890
      8885      8888      8896      8886      8885      8887      8886      8885      8888
      8887      8885      8888      8888      8890      8891      8888      8896      8897
      8888      8896      8898      8888      8896      8899      8889      8888      8890
      8889      8888      8896      8890      8888      8896      8890      8891      8892
      8890      8891      8893      8891      8893      8894      8891      8893      8895
      8891      8893      8905      8892      8891      8893      8893      8905      8906
      8893      8905      8907      8893      8905      8908      8894      8893      8895
      8894      8893      8905      8895      8893      8905      8896      8899      8900
      8897      8896      8898      8897      8896      8899      8898      8896      8899
      8899      8900      8901      8899      8900      8902      8900      8902      8903
      8900      8902      8904      8900      8902      8952      8901      8900      8902
      8902      8952      8953      8902      8952      8954      8902      8952      8955
      8903      8902      8904      8903      8902      8952      8904      8902      8952
      8905      8908      8909      8905      8908      8910      8905      8908      8911
      8906      8905      8907      8906      8905      8908      8907      8905      8908
      8908      8911      8912      8908      8911      8913      8908      8911      8914
      8909      8908      8910      8909      8908      8911      8910      8908      8911
      8911      8914      8915      8911      8914      8916      8911      8914      8917
      8912      8911      8913      8912      8911      8914      8913      8911      8914
      8914      8917      8918      8914      8917      8919      8914      8917      8920
      8915      8914      8916      8915      8914      8917      8916      8914      8917
      8917      8920      8921      8917      8920      8922      8917      8920      8923
      8918      8917      8919      8918      8917      8920      8919      8917      8920
      8920      8923      8924      8920      8923      8925      8921      8920      8922
      8921      8920      8923      8922      8920      8923      8923      8925      8926
      8923      8925      8927      8924      8923      8925      8925      8927      8928
      8925      8927      8929      8925      8927      8930      8926      8925      8927
      8927      8930      8931      8927      8930      8932      8927      8930      8933
      8928      8927      8929      8928      8927      8930      8929      8927      8930
      8930      8933      8934      8930      8933      8935      8930      8933      8936
      8931      8930      8932      8931      8930      8933      8932      8930      8933
      8933      8936      8937      8933      8936      8938      8933      8936      8939
      8934      8933      8935      8934      8933      8936      8935      8933      8936
      8936      8939      8940      8936      8939      8941      8936      8939      8942
      8937      8936      8938      8937      8936      8939      8938      8936      8939
      8939      8942      8943      8939      8942      8944      8939      8942      8945
      8940      8939      8941      8940      8939      8942      8941      8939      8942
      8942      8945      8946      8942      8945      8947      8942      8945      8948
      8943      8942      8944      8943      8942      8945      8944      8942      8945
      8945      8948      8949      8945      8948      8950      8945      8948      8951
      8946      8945      8947      8946      8945      8948      8947      8945      8948
      8949      8948      8950      8949      8948      8951      8950      8948      8951
      8952      8955      8956      8952      8955      8957      8952      8955      8958
      8953      8952      8954      8953      8952      8955      8954      8952      8955
      8955      8958      8959      8955      8958      8960      8955      8958      8961
      8956      8955      8957      8956      8955      8958      8957      8955      8958
      8958      8961      8962      8958      8961      8963      8958      8961      8964
      8959      8958      8960      8959      8958      8961      8960      8958      8961
      8961      8964      8965      8961      8964      8966      8961      8964      8967
      8962      8961      8963      8962      8961      8964      8963      8961      8964
      8964      8967      8968      8964      8967      8969      8964      8967      8970
      8965      8964      8966      8965      8964      8967      8966      8964      8967
      8967      8970      8971      8967      8970      8972      8967      8970      8973
      8968      8967      8969      8968      8967      8970      8969      8967      8970
      8970      8973      8974      8970      8973      8975      8970      8973      8976
      8971      8970      8972      8971      8970      8973      8972      8970      8973
      8973      8976      8977      8973      8976      8978      8973      8976      8979
      8974      8973      8975      8974      8973      8976      8975      8973      8976
      8976      8979      8980      8976      8979      8981      8976      8979      8982
      8977      8976      8978      8977      8976      8979      8978      8976      8979
      8979      8982      8983      8979      8982      8984      8979      8982      8985
      8980      8979      8981      8980      8979      8982      8981      8979      8982
      8982      8985      8986      8982      8985      8987      8982      8985      8988
      8983      8982      8984      8983      8982      8985      8984      8982      8985
      8985      8988      8989      8985      8988      8990      8985      8988      8991
      8986      8985      8987      8986      8985      8988      8987      8985      8988
      8988      8991      8992      8988      8991      8993      8988      8991      8994
      8989      8988      8990      8989      8988      8991      8990      8988      8991
      8992      8991      8993      8992      8991      8994      8993      8991      8994
      8995      8996      8997      8995      8996      8998      8995      8996      9011
      8995      8999      9000      8995      8999      9001      8995      8999      9002
      8995      9003      9004      8995      9003      9005      8995      9003      9006
      8995      9007      9008      8995      9007      9009      8995      9007      9010
      8996      8995      8999      8996      8995      9003      8996      8995      9007
      8996      9011      9012      8996      9011      9013      8996      9011      9017
      8997      8996      8998      8997      8996      9011      8998      8996      9011
      8999      8995      9003      8999      8995      9007      9000      8999      9001
      9000      8999      9002      9001      8999      9002      9003      8995      9007
      9004      9003      9005      9004      9003      9006      9005      9003      9006
      9008      9007      9009      9008      9007      9010      9009      9007      9010
      9011      9017      9014      9012      9011      9013      9012      9011      9017
      9013      9011      9017      9014      9018      9019      9015      9014      9016
      9015      9014      9017      9015      9014      9018      9016      9014      9017
      9016      9014      9018      9017      9014      9018      9018      9019      9020
      9018      9019      9021      9018      9019      9022      9019      9022      9023
      9019      9022      9024      9019      9022      9030      9020      9019      9021
      9020      9019      9022      9021      9019      9022      9022      9024      9025
      9022      9030      9031      9022      9030      9032      9022      9030      9033
      9023      9022      9024      9023      9022      9030      9024      9022      9030
      9024      9025      9026      9024      9025      9027      9025      9027      9028
      9025      9027      9029      9025      9027      9039      9026      9025      9027
      9027      9039      9040      9027      9039      9041      9027      9039      9042
      9028      9027      9029      9028      9027      9039      9029      9027      9039
      9030      9033      9034      9031      9030      9032      9031      9030      9033
      9032      9030      9033      9033      9034      9035      9033      9034      9036
      9034      9036      9037      9034      9036      9038      9034      9036      9086
      9035      9034      9036      9036      9086      9087      9036      9086      9088
      9036      9086      9089      9037      9036      9038      9037      9036      9086
      9038      9036      9086      9039      9042      9043      9039      9042      9044
      9039      9042      9045      9040      9039      9041      9040      9039      9042
      9041      9039      9042      9042      9045      9046      9042      9045      9047
      9042      9045      9048      9043      9042      9044      9043      9042      9045
      9044      9042      9045      9045      9048      9049      9045      9048      9050
      9045      9048      9051      9046      9045      9047      9046      9045      9048
      9047      9045      9048      9048      9051      9052      9048      9051      9053
      9048      9051      9054      9049      9048      9050      9049      9048      9051
      9050      9048      9051      9051      9054      9055      9051      9054      9056
      9051      9054      9057      9052      9051      9053      9052      9051      9054
      9053      9051      9054      9054      9057      9058      9054      9057      9059
      9055      9054      9056      9055      9054      9057      9056      9054      9057
      9057      9059      9060      9057      9059      9061      9058      9057      9059
      9059      9061      9062      9059      9061      9063      9059      9061      9064
      9060      9059      9061      9061      9064      9065      9061      9064      9066
      9061      9064      9067      9062      9061      9063      9062      9061      9064
      9063      9061      9064      9064      9067      9068      9064      9067      9069
      9064      9067      9070      9065      9064      9066      9065      9064      9067
      9066      9064      9067      9067      9070      9071      9067      9070      9072
      9067      9070      9073      9068      9067      9069      9068      9067      9070
      9069      9067      9070      9070      9073      9074      9070      9073      9075
      9070      9073      9076      9071      9070      9072      9071      9070      9073
      9072      9070      9073      9073      9076      9077      9073      9076      9078
      9073      9076      9079      9074      9073      9075      9074      9073      9076
      9075      9073      9076      9076      9079      9080      9076      9079      9081
      9076      9079      9082      9077      9076      9078      9077      9076      9079
      9078      9076      9079      9079      9082      9083      9079      9082      9084
      9079      9082      9085      9080      9079      9081      9080      9079      9082
      9081      9079      9082      9083      9082      9084      9083      9082      9085
      9084      9082      9085      9086      9089      9090      9086      9089      9091
      9086      9089      9092      9087      9086      9088      9087      9086      9089
      9088      9086      9089      9089      9092      9093      9089      9092      9094
      9089      9092      9095      9090      9089      9091      9090      9089      9092
      9091      9089      9092      9092      9095      9096      9092      9095      9097
      9092      9095      9098      9093      9092      9094      9093      9092      9095
      9094      9092      9095      9095      9098      9099      9095      9098      9100
      9095      9098      9101      9096      9095      9097      9096      9095      9098
      9097      9095      9098      9098      9101      9102      9098      9101      9103
      9098      9101      9104      9099      9098      9100      9099      9098      9101
      9100      9098      9101      9101      9104      9105      9101      9104      9106
      9101      9104      9107      9102      9101      9103      9102      9101      9104
      9103      9101      9104      9104      9107      9108      9104      9107      9109
      9104      9107      9110      9105      9104      9106      9105      9104      9107
      9106      9104      9107      9107      9110      9111      9107      9110      9112
      9107      9110      9113      9108      9107      9109      9108      9107      9110
      9109      9107      9110      9110      9113      9114      9110      9113      9115
      9110      9113      9116      9111      9110      9112      9111      9110      9113
      9112      9110      9113      9113      9116      9117      9113      9116      9118
      9113      9116      9119      9114      9113      9115      9114      9113      9116
      9115      9113      9116      9116      9119      9120      9116      9119      9121
      9116      9119      9122      9117      9116      9118      9117      9116      9119
      9118      9116      9119      9119      9122      9123      9119      9122      9124
      9119      9122      9125      9120      9119      9121      9120      9119      9122
      9121      9119      9122      9122      9125      9126      9122      9125      9127
      9122      9125      9128      9123      9122      9124      9123      9122      9125
      9124      9122      9125      9126      9125      9127      9126      9125      9128
      9127      9125      9128      9129      9130      9131      9129      9130      9132
      9129      9130      9145      9129      9133      9134      9129      9133      9135
      9129      9133      9136      9129      9137      9138      9129      9137      9139
      9129      9137      9140      9129      9141      9142      9129      9141      9143
      9129      9141      9144      9130      9129      9133      9130      9129      9137
      9130      9129      9141      9130      9145      9146      9130      9145      9147
      9130      9145      9151      9131      9130      9132      9131      9130      9145
      9132      9130      9145      9133      9129      9137      9133      9129      9141
      9134      9133      9135      9134      9133      9136      9135      9133      9136
      9137      9129      9141      9138      9137      9139      9138      9137      9140
      9139      9137      9140      9142      9141      9143      9142      9141      9144
      9143      9141      9144      9145      9151      9148      9146      9145      9147
      9146      9145      9151      9147      9145      9151      9148      9152      9153
      9149      9148      9150      9149      9148      9151      9149      9148      9152
      9150      9148      9151      9150      9148      9152      9151      9148      9152
      9152      9153      9154      9152      9153      9155      9152      9153      9156
      9153      9156      9157      9153      9156      9158      9153      9156      9164
      9154      9153      9155      9154      9153      9156      9155      9153      9156
      9156      9158      9159      9156      9164      9165      9156      9164      9166
      9156      9164      9167      9157      9156      9158      9157      9156      9164
      9158      9156      9164      9158      9159      9160      9158      9159      9161
      9159      9161      9162      9159      9161      9163      9159      9161      9173
      9160      9159      9161      9161      9173      9174      9161      9173      9175
      9161      9173      9176      9162      9161      9163      9162      9161      9173
      9163      9161      9173      9164      9167      9168      9165      9164      9166
      9165      9164      9167      9166      9164      9167      9167      9168      9169
      9167      9168      9170      9168      9170      9171      9168      9170      9172
      9168      9170      9220      9169      9168      9170      9170      9220      9221
      9170      9220      9222      9170      9220      9223      9171      9170      9172
      9171      9170      9220      9172      9170      9220      9173      9176      9177
      9173      9176      9178      9173      9176      9179      9174      9173      9175
      9174      9173      9176      9175      9173      9176      9176      9179      9180
      9176      9179      9181      9176      9179      9182      9177      9176      9178
      9177      9176      9179      9178      9176      9179      9179      9182      9183
      9179      9182      9184      9179      9182      9185      9180      9179      9181
      9180      9179      9182      9181      9179      9182      9182      9185      9186
      9182      9185      9187      9182      9185      9188      9183      9182      9184
      9183      9182      9185      9184      9182      9185      9185      9188      9189
      9185      9188      9190      9185      9188      9191      9186      9185      9187
      9186      9185      9188      9187      9185      9188      9188      9191      9192
      9188      9191      9193      9189      9188      9190      9189      9188      9191
      9190      9188      9191      9191      9193      9194      9191      9193      9195
      9192      9191      9193      9193      9195      9196      9193      9195      9197
      9193      9195      9198      9194      9193      9195      9195      9198      9199
      9195      9198      9200      9195      9198      9201      9196      9195      9197
      9196      9195      9198      9197      9195      9198      9198      9201      9202
      9198      9201      9203      9198      9201      9204      9199      9198      9200
      9199      9198      9201      9200      9198      9201      9201      9204      9205
      9201      9204      9206      9201      9204      9207      9202      9201      9203
      9202      9201      9204      9203      9201      9204      9204      9207      9208
      9204      9207      9209      9204      9207      9210      9205      9204      9206
      9205      9204      9207      9206      9204      9207      9207      9210      9211
      9207      9210      9212      9207      9210      9213      9208      9207      9209
      9208      9207      9210      9209      9207      9210      9210      9213      9214
      9210      9213      9215      9210      9213      9216      9211      9210      9212
      9211      9210      9213      9212      9210      9213      9213      9216      9217
      9213      9216      9218      9213      9216      9219      9214      9213      9215
      9214      9213      9216      9215      9213      9216      9217      9216      9218
      9217      9216      9219      9218      9216      9219      9220      9223      9224
      9220      9223      9225      9220      9223      9226      9221      9220      9222
      9221      9220      9223      9222      9220      9223      9223      9226      9227
      9223      9226      9228      9223      9226      9229      9224      9223      9225
      9224      9223      9226      9225      9223      9226      9226      9229      9230
      9226      9229      9231      9226      9229      9232      9227      9226      9228
      9227      9226      9229      9228      9226      9229      9229      9232      9233
      9229      9232      9234      9229      9232      9235      9230      9229      9231
      9230      9229      9232      9231      9229      9232      9232      9235      9236
      9232      9235      9237      9232      9235      9238      9233      9232      9234
      9233      9232      9235      9234      9232      9235      9235      9238      9239
      9235      9238      9240      9235      9238      9241      9236      9235      9237
      9236      9235      9238      9237      9235      9238      9238      9241      9242
      9238      9241      9243      9238      9241      9244      9239      9238      9240
      9239      9238      9241      9240      9238      9241      9241      9244      9245
      9241      9244      9246      9241      9244      9247      9242      9241      9243
      9242      9241      9244      9243      9241      9244      9244      9247      9248
      9244      9247      9249      9244      9247      9250      9245      9244      9246
      9245      9244      9247      9246      9244      9247      9247      9250      9251
      9247      9250      9252      9247      9250      9253      9248      9247      9249
      9248      9247      9250      9249      9247      9250      9250      9253      9254
      9250      9253      9255      9250      9253      9256      9251      9250      9252
      9251      9250      9253      9252      9250      9253      9253      9256      9257
      9253      9256      9258      9253      9256      9259      9254      9253      9255
      9254      9253      9256      9255      9253      9256      9256      9259      9260
      9256      9259      9261      9256      9259      9262      9257      9256      9258
      9257      9256      9259      9258      9256      9259      9260      9259      9261
      9260      9259      9262      9261      9259      9262      9263      9264      9265
      9263      9264      9266      9263      9264      9279      9263      9267      9268
      9263      9267      9269      9263      9267      9270      9263      9271      9272
      9263      9271      9273      9263      9271      9274      9263      9275      9276
      9263      9275      9277      9263      9275      9278      9264      9263      9267
      9264      9263      9271      9264      9263      9275      9264      9279      9280
      9264      9279      9281      9264      9279      9285      9265      9264      9266
      9265      9264      9279      9266      9264      9279      9267      9263      9271
      9267      9263      9275      9268      9267      9269      9268      9267      9270
      9269      9267      9270      9271      9263      9275      9272      9271      9273
      9272      9271      9274      9273      9271      9274      9276      9275      9277
      9276      9275      9278      9277      9275      9278      9279      9285      9282
      9280      9279      9281      9280      9279      9285      9281      9279      9285
      9282      9286      9287      9283      9282      9284      9283      9282      9285
      9283      9282      9286      9284      9282      9285      9284      9282      9286
      9285      9282      9286      9286      9287      9288      9286      9287      9289
      9286      9287      9290      9287      9290      9291      9287      9290      9292
      9287      9290      9298      9288      9287      9289      9288      9287      9290
      9289      9287      9290      9290      9292      9293      9290      9298      9299
      9290      9298      9300      9290      9298      9301      9291      9290      9292
      9291      9290      9298      9292      9290      9298      9292      9293      9294
      9292      9293      9295      9293      9295      9296      9293      9295      9297
      9293      9295      9307      9294      9293      9295      9295      9307      9308
      9295      9307      9309      9295      9307      9310      9296      9295      9297
      9296      9295      9307      9297      9295      9307      9298      9301      9302
      9299      9298      9300      9299      9298      9301      9300      9298      9301
      9301      9302      9303      9301      9302      9304      9302      9304      9305
      9302      9304      9306      9302      9304      9354      9303      9302      9304
      9304      9354      9355      9304      9354      9356      9304      9354      9357
      9305      9304      9306      9305      9304      9354      9306      9304      9354
      9307      9310      9311      9307      9310      9312      9307      9310      9313
      9308      9307      9309      9308      9307      9310      9309      9307      9310
      9310      9313      9314      9310      9313      9315      9310      9313      9316
      9311      9310      9312      9311      9310      9313      9312      9310      9313
      9313      9316      9317      9313      9316      9318      9313      9316      9319
      9314      9313      9315      9314      9313      9316      9315      9313      9316
      9316      9319      9320      9316      9319      9321      9316      9319      9322
      9317      9316      9318      9317      9316      9319      9318      9316      9319
      9319      9322      9323      9319      9322      9324      9319      9322      9325
      9320      9319      9321      9320      9319      9322      9321      9319      9322
      9322      9325      9326      9322      9325      9327      9323      9322      9324
      9323      9322      9325      9324      9322      9325      9325      9327      9328
      9325      9327      9329      9326      9325      9327      9327      9329      9330
      9327      9329      9331      9327      9329      9332      9328      9327      9329
      9329      9332      9333      9329      9332      9334      9329      9332      9335
      9330      9329      9331      9330      9329      9332      9331      9329      9332
      9332      9335      9336      9332      9335      9337      9332      9335      9338
      9333      9332      9334      9333      9332      9335      9334      9332      9335
      9335      9338      9339      9335      9338      9340      9335      9338      9341
      9336      9335      9337      9336      9335      9338      9337      9335      9338
      9338      9341      9342      9338      9341      9343      9338      9341      9344
      9339      9338      9340      9339      9338      9341      9340      9338      9341
      9341      9344      9345      9341      9344      9346      9341      9344      9347
      9342      9341      9343      9342      9341      9344      9343      9341      9344
      9344      9347      9348      9344      9347      9349      9344      9347      9350
      9345      9344      9346      9345      9344      9347      9346      9344      9347
      9347      9350      9351      9347      9350      9352      9347      9350      9353
      9348      9347      9349      9348      9347      9350      9349      9347      9350
      9351      9350      9352      9351      9350      9353      9352      9350      9353
      9354      9357      9358      9354      9357      9359      9354      9357      9360
      9355      9354      9356      9355      9354      9357      9356      9354      9357
      9357      9360      9361      9357      9360      9362      9357      9360      9363
      9358      9357      9359      9358      9357      9360      9359      9357      9360
      9360      9363      9364      9360      9363      9365      9360      9363      9366
      9361      9360      9362      9361      9360      9363      9362      9360      9363
      9363      9366      9367      9363      9366      9368      9363      9366      9369
      9364      9363      9365      9364      9363      9366      9365      9363      9366
      9366      9369      9370      9366      9369      9371      9366      9369      9372
      9367      9366      9368      9367      9366      9369      9368      9366      9369
      9369      9372      9373      9369      9372      9374      9369      9372      9375
      9370      9369      9371      9370      9369      9372      9371      9369      9372
      9372      9375      9376      9372      9375      9377      9372      9375      9378
      9373      9372      9374      9373      9372      9375      9374      9372      9375
      9375      9378      9379      9375      9378      9380      9375      9378      9381
      9376      9375      9377      9376      9375      9378      9377      9375      9378
      9378      9381      9382      9378      9381      9383      9378      9381      9384
      9379      9378      9380      9379      9378      9381      9380      9378      9381
      9381      9384      9385      9381      9384      9386      9381      9384      9387
      9382      9381      9383      9382      9381      9384      9383      9381      9384
      9384      9387      9388      9384      9387      9389      9384      9387      9390
      9385      9384      9386      9385      9384      9387      9386      9384      9387
      9387      9390      9391      9387      9390      9392      9387      9390      9393
      9388      9387      9389      9388      9387      9390      9389      9387      9390
      9390      9393      9394      9390      9393      9395      9390      9393      9396
      9391      9390      9392      9391      9390      9393      9392      9390      9393
      9394      9393      9395      9394      9393      9396      9395      9393      9396
      9397      9398      9399      9397      9398      9400      9397      9398      9413
      9397      9401      9402      9397      9401      9403      9397      9401      9404
      9397      9405      9406      9397      9405      9407      9397      9405      9408
      9397      9409      9410      9397      9409      9411      9397      9409      9412
      9398      9397      9401      9398      9397      9405      9398      9397      9409
      9398      9413      9414      9398      9413      9415      9398      9413      9419
      9399      9398      9400      9399      9398      9413      9400      9398      9413
      9401      9397      9405      9401      9397      9409      9402      9401      9403
      9402      9401      9404      9403      9401      9404      9405      9397      9409
      9406      9405      9407      9406      9405      9408      9407      9405      9408
      9410      9409      9411      9410      9409      9412      9411      9409      9412
      9413      9419      9416      9414      9413      9415      9414      9413      9419
      9415      9413      9419      9416      9420      9421      9417      9416      9418
      9417      9416      9419      9417      9416      9420      9418      9416      9419
      9418      9416      9420      9419      9416      9420      9420      9421      9422
      9420      9421      9423      9420      9421      9424      9421      9424      9425
      9421      9424      9426      9421      9424      9432      9422      9421      9423
      9422      9421      9424      9423      9421      9424      9424      9426      9427
      9424      9432      9433      9424      9432      9434      9424      9432      9435
      9425      9424      9426      9425      9424      9432      9426      9424      9432
      9426      9427      9428      9426      9427      9429      9427      9429      9430
      9427      9429      9431      9427      9429      9441      9428      9427      9429
      9429      9441      9442      9429      9441      9443      9429      9441      9444
      9430      9429      9431      9430      9429      9441      9431      9429      9441
      9432      9435      9436      9433      9432      9434      9433      9432      9435
      9434      9432      9435      9435      9436      9437      9435      9436      9438
      9436      9438      9439      9436      9438      9440      9436      9438      9488
      9437      9436      9438      9438      9488      9489      9438      9488      9490
      9438      9488      9491      9439      9438      9440      9439      9438      9488
      9440      9438      9488      9441      9444      9445      9441      9444      9446
      9441      9444      9447      9442      9441      9443      9442      9441      9444
      9443      9441      9444      9444      9447      9448      9444      9447      9449
      9444      9447      9450      9445      9444      9446      9445      9444      9447
      9446      9444      9447      9447      9450      9451      9447      9450      9452
      9447      9450      9453      9448      9447      9449      9448      9447      9450
      9449      9447      9450      9450      9453      9454      9450      9453      9455
      9450      9453      9456      9451      9450      9452      9451      9450      9453
      9452      9450      9453      9453      9456      9457      9453      9456      9458
      9453      9456      9459      9454      9453      9455      9454      9453      9456
      9455      9453      9456      9456      9459      9460      9456      9459      9461
      9457      9456      9458      9457      9456      9459      9458      9456      9459
      9459      9461      9462      9459      9461      9463      9460      9459      9461
      9461      9463      9464      9461      9463      9465      9461      9463      9466
      9462      9461      9463      9463      9466      9467      9463      9466      9468
      9463      9466      9469      9464      9463      9465      9464      9463      9466
      9465      9463      9466      9466      9469      9470      9466      9469      9471
      9466      9469      9472      9467      9466      9468      9467      9466      9469
      9468      9466      9469      9469      9472      9473      9469      9472      9474
      9469      9472      9475      9470      9469      9471      9470      9469      9472
      9471      9469      9472      9472      9475      9476      9472      9475      9477
      9472      9475      9478      9473      9472      9474      9473      9472      9475
      9474      9472      9475      9475      9478      9479      9475      9478      9480
      9475      9478      9481      9476      9475      9477      9476      9475      9478
      9477      9475      9478      9478      9481      9482      9478      9481      9483
      9478      9481      9484      9479      9478      9480      9479      9478      9481
      9480      9478      9481      9481      9484      9485      9481      9484      9486
      9481      9484      9487      9482      9481      9483      9482      9481      9484
      9483      9481      9484      9485      9484      9486      9485      9484      9487
      9486      9484      9487      9488      9491      9492      9488      9491      9493
      9488      9491      9494      9489      9488      9490      9489      9488      9491
      9490      9488      9491      9491      9494      9495      9491      9494      9496
      9491      9494      9497      9492      9491      9493      9492      9491      9494
      9493      9491      9494      9494      9497      9498      9494      9497      9499
      9494      9497      9500      9495      9494      9496      9495      9494      9497
      9496      9494      9497      9497      9500      9501      9497      9500      9502
      9497      9500      9503      9498      9497      9499      9498      9497      9500
      9499      9497      9500      9500      9503      9504      9500      9503      9505
      9500      9503      9506      9501      9500      9502      9501      9500      9503
      9502      9500      9503      9503      9506      9507      9503      9506      9508
      9503      9506      9509      9504      9503      9505      9504      9503      9506
      9505      9503      9506      9506      9509      9510      9506      9509      9511
      9506      9509      9512      9507      9506      9508      9507      9506      9509
      9508      9506      9509      9509      9512      9513      9509      9512      9514
      9509      9512      9515      9510      9509      9511      9510      9509      9512
      9511      9509      9512      9512      9515      9516      9512      9515      9517
      9512      9515      9518      9513      9512      9514      9513      9512      9515
      9514      9512      9515      9515      9518      9519      9515      9518      9520
      9515      9518      9521      9516      9515      9517      9516      9515      9518
      9517      9515      9518      9518      9521      9522      9518      9521      9523
      9518      9521      9524      9519      9518      9520      9519      9518      9521
      9520      9518      9521      9521      9524      9525      9521      9524      9526
      9521      9524      9527      9522      9521      9523      9522      9521      9524
      9523      9521      9524      9524      9527      9528      9524      9527      9529
      9524      9527      9530      9525      9524      9526      9525      9524      9527
      9526      9524      9527      9528      9527      9529      9528      9527      9530
      9529      9527      9530      9531      9532      9533      9531      9532      9534
      9531      9532      9547      9531      9535      9536      9531      9535      9537
      9531      9535      9538      9531      9539      9540      9531      9539      9541
      9531      9539      9542      9531      9543      9544      9531      9543      9545
      9531      9543      9546      9532      9531      9535      9532      9531      9539
      9532      9531      9543      9532      9547      9548      9532      9547      9549
      9532      9547      9553      9533      9532      9534      9533      9532      9547
      9534      9532      9547      9535      9531      9539      9535      9531      9543
      9536      9535      9537      9536      9535      9538      9537      9535      9538
      9539      9531      9543      9540      9539      9541      9540      9539      9542
      9541      9539      9542      9544      9543      9545      9544      9543      9546
      9545      9543      9546      9547      9553      9550      9548      9547      9549
      9548      9547      9553      9549      9547      9553      9550      9554      9555
      9551      9550      9552      9551      9550      9553      9551      9550      9554
      9552      9550      9553      9552      9550      9554      9553      9550      9554
      9554      9555      9556      9554      9555      9557      9554      9555      9558
      9555      9558      9559      9555      9558      9560      9555      9558      9566
      9556      9555      9557      9556      9555      9558      9557      9555      9558
      9558      9560      9561      9558      9566      9567      9558      9566      9568
      9558      9566      9569      9559      9558      9560      9559      9558      9566
      9560      9558      9566      9560      9561      9562      9560      9561      9563
      9561      9563      9564      9561      9563      9565      9561      9563      9575
      9562      9561      9563      9563      9575      9576      9563      9575      9577
      9563      9575      9578      9564      9563      9565      9564      9563      9575
      9565      9563      9575      9566      9569      9570      9567      9566      9568
      9567      9566      9569      9568      9566      9569      9569      9570      9571
      9569      9570      9572      9570      9572      9573      9570      9572      9574
      9570      9572      9622      9571      9570      9572      9572      9622      9623
      9572      9622      9624      9572      9622      9625      9573      9572      9574
      9573      9572      9622      9574      9572      9622      9575      9578      9579
      9575      9578      9580      9575      9578      9581      9576      9575      9577
      9576      9575      9578      9577      9575      9578      9578      9581      9582
      9578      9581      9583      9578      9581      9584      9579      9578      9580
      9579      9578      9581      9580      9578      9581      9581      9584      9585
      9581      9584      9586      9581      9584      9587      9582      9581      9583
      9582      9581      9584      9583      9581      9584      9584      9587      9588
      9584      9587      9589      9584      9587      9590      9585      9584      9586
      9585      9584      9587      9586      9584      9587      9587      9590      9591
      9587      9590      9592      9587      9590      9593      9588      9587      9589
      9588      9587      9590      9589      9587      9590      9590      9593      9594
      9590      9593      9595      9591      9590      9592      9591      9590      9593
      9592      9590      9593      9593      9595      9596      9593      9595      9597
      9594      9593      9595      9595      9597      9598      9595      9597      9599
      9595      9597      9600      9596      9595      9597      9597      9600      9601
      9597      9600      9602      9597      9600      9603      9598      9597      9599
      9598      9597      9600      9599      9597      9600      9600      9603      9604
      9600      9603      9605      9600      9603      9606      9601      9600      9602
      9601      9600      9603      9602      9600      9603      9603      9606      9607
      9603      9606      9608      9603      9606      9609      9604      9603      9605
      9604      9603      9606      9605      9603      9606      9606      9609      9610
      9606      9609      9611      9606      9609      9612      9607      9606      9608
      9607      9606      9609      9608      9606      9609      9609      9612      9613
      9609      9612      9614      9609      9612      9615      9610      9609      9611
      9610      9609      9612      9611      9609      9612      9612      9615      9616
      9612      9615      9617      9612      9615      9618      9613      9612      9614
      9613      9612      9615      9614      9612      9615      9615      9618      9619
      9615      9618      9620      9615      9618      9621      9616      9615      9617
      9616      9615      9618      9617      9615      9618      9619      9618      9620
      9619      9618      9621      9620      9618      9621      9622      9625      9626
      9622      9625      9627      9622      9625      9628      9623      9622      9624
      9623      9622      9625      9624      9622      9625      9625      9628      9629
      9625      9628      9630      9625      9628      9631      9626      9625      9627
      9626      9625      9628      9627      9625      9628      9628      9631      9632
      9628      9631      9633      9628      9631      9634      9629      9628      9630
      9629      9628      9631      9630      9628      9631      9631      9634      9635
      9631      9634      9636      9631      9634      9637      9632      9631      9633
      9632      9631      9634      9633      9631      9634      9634      9637      9638
      9634      9637      9639      9634      9637      9640      9635      9634      9636
      9635      9634      9637      9636      9634      9637      9637      9640      9641
      9637      9640      9642      9637      9640      9643      9638      9637      9639
      9638      9637      9640      9639      9637      9640      9640      9643      9644
      9640      9643      9645      9640      9643      9646      9641      9640      9642
      9641      9640      9643      9642      9640      9643      9643      9646      9647
      9643      9646      9648      9643      9646      9649      9644      9643      9645
      9644      9643      9646      9645      9643      9646      9646      9649      9650
      9646      9649      9651      9646      9649      9652      9647      9646      9648
      9647      9646      9649      9648      9646      9649      9649      9652      9653
      9649      9652      9654      9649      9652      9655      9650      9649      9651
      9650      9649      9652      9651      9649      9652      9652      9655      9656
      9652      9655      9657      9652      9655      9658      9653      9652      9654
      9653      9652      9655      9654      9652      9655      9655      9658      9659
      9655      9658      9660      9655      9658      9661      9656      9655      9657
      9656      9655      9658      9657      9655      9658      9658      9661      9662
      9658      9661      9663      9658      9661      9664      9659      9658      9660
      9659      9658      9661      9660      9658      9661      9662      9661      9663
      9662      9661      9664      9663      9661      9664      9665      9666      9667
      9665      9666      9668      9665      9666      9681      9665      9669      9670
      9665      9669      9671      9665      9669      9672      9665      9673      9674
      9665      9673      9675      9665      9673      9676      9665      9677      9678
      9665      9677      9679      9665      9677      9680      9666      9665      9669
      9666      9665      9673      9666      9665      9677      9666      9681      9682
      9666      9681      9683      9666      9681      9687      9667      9666      9668
      9667      9666      9681      9668      9666      9681      9669      9665      9673
      9669      9665      9677      9670      9669      9671      9670      9669      9672
      9671      9669      9672      9673      9665      9677      9674      9673      9675
      9674      9673      9676      9675      9673      9676      9678      9677      9679
      9678      9677      9680      9679      9677      9680      9681      9687      9684
      9682      9681      9683      9682      9681      9687      9683      9681      9687
      9684      9688      9689      9685      9684      9686      9685      9684      9687
      9685      9684      9688      9686      9684      9687      9686      9684      9688
      9687      9684      9688      9688      9689      9690      9688      9689      9691
      9688      9689      9692      9689      9692      9693      9689      9692      9694
      9689      9692      9700      9690      9689      9691      9690      9689      9692
      9691      9689      9692      9692      9694      9695      9692      9700      9701
      9692      9700      9702      9692      9700      9703      9693      9692      9694
      9693      9692      9700      9694      9692      9700      9694      9695      9696
      9694      9695      9697      9695      9697      9698      9695      9697      9699
      9695      9697      9709      9696      9695      9697      9697      9709      9710
      9697      9709      9711      9697      9709      9712      9698      9697      9699
      9698      9697      9709      9699      9697      9709      9700      9703      9704
      9701      9700      9702      9701      9700      9703      9702      9700      9703
      9703      9704      9705      9703      9704      9706      9704      9706      9707
      9704      9706      9708      9704      9706      9756      9705      9704      9706
      9706      9756      9757      9706      9756      9758      9706      9756      9759
      9707      9706      9708      9707      9706      9756      9708      9706      9756
      9709      9712      9713      9709      9712      9714      9709      9712      9715
      9710      9709      9711      9710      9709      9712      9711      9709      9712
      9712      9715      9716      9712      9715      9717      9712      9715      9718
      9713      9712      9714      9713      9712      9715      9714      9712      9715
      9715      9718      9719      9715      9718      9720      9715      9718      9721
      9716      9715      9717      9716      9715      9718      9717      9715      9718
      9718      9721      9722      9718      9721      9723      9718      9721      9724
      9719      9718      9720      9719      9718      9721      9720      9718      9721
      9721      9724      9725      9721      9724      9726      9721      9724      9727
      9722      9721      9723      9722      9721      9724      9723      9721      9724
      9724      9727      9728      9724      9727      9729      9725      9724      9726
      9725      9724      9727      9726      9724      9727      9727      9729      9730
      9727      9729      9731      9728      9727      9729      9729      9731      9732
      9729      9731      9733      9729      9731      9734      9730      9729      9731
      9731      9734      9735      9731      9734      9736      9731      9734      9737
      9732      9731      9733      9732      9731      9734      9733      9731      9734
      9734      9737      9738      9734      9737      9739      9734      9737      9740
      9735      9734      9736      9735      9734      9737      9736      9734      9737
      9737      9740      9741      9737      9740      9742      9737      9740      9743
      9738      9737      9739      9738      9737      9740      9739      9737      9740
      9740      9743      9744      9740      9743      9745      9740      9743      9746
      9741      9740      9742      9741      9740      9743      9742      9740      9743
      9743      9746      9747      9743      9746      9748      9743      9746      9749
      9744      9743      9745      9744      9743      9746      9745      9743      9746
      9746      9749      9750      9746      9749      9751      9746      9749      9752
      9747      9746      9748      9747      9746      9749      9748      9746      9749
      9749      9752      9753      9749      9752      9754      9749      9752      9755
      9750      9749      9751      9750      9749      9752      9751      9749      9752
      9753      9752      9754      9753      9752      9755      9754      9752      9755
      9756      9759      9760      9756      9759      9761      9756      9759      9762
      9757      9756      9758      9757      9756      9759      9758      9756      9759
      9759      9762      9763      9759      9762      9764      9759      9762      9765
      9760      9759      9761      9760      9759      9762      9761      9759      9762
      9762      9765      9766      9762      9765      9767      9762      9765      9768
      9763      9762      9764      9763      9762      9765      9764      9762      9765
      9765      9768      9769      9765      9768      9770      9765      9768      9771
      9766      9765      9767      9766      9765      9768      9767      9765      9768
      9768      9771      9772      9768      9771      9773      9768      9771      9774
      9769      9768      9770      9769      9768      9771      9770      9768      9771
      9771      9774      9775      9771      9774      9776      9771      9774      9777
      9772      9771      9773      9772      9771      9774      9773      9771      9774
      9774      9777      9778      9774      9777      9779      9774      9777      9780
      9775      9774      9776      9775      9774      9777      9776      9774      9777
      9777      9780      9781      9777      9780      9782      9777      9780      9783
      9778      9777      9779      9778      9777      9780      9779      9777      9780
      9780      9783      9784      9780      9783      9785      9780      9783      9786
      9781      9780      9782      9781      9780      9783      9782      9780      9783
      9783      9786      9787      9783      9786      9788      9783      9786      9789
      9784      9783      9785      9784      9783      9786      9785      9783      9786
      9786      9789      9790      9786      9789      9791      9786      9789      9792
      9787      9786      9788      9787      9786      9789      9788      9786      9789
      9789      9792      9793      9789      9792      9794      9789      9792      9795
      9790      9789      9791      9790      9789      9792      9791      9789      9792
      9792      9795      9796      9792      9795      9797      9792      9795      9798
      9793      9792      9794      9793      9792      9795      9794      9792      9795
      9796      9795      9797      9796      9795      9798      9797      9795      9798
      9799      9800      9801      9799      9800      9802      9799      9800      9815
      9799      9803      9804      9799      9803      9805      9799      9803      9806
      9799      9807      9808      9799      9807      9809      9799      9807      9810
      9799      9811      9812      9799      9811      9813      9799      9811      9814
      9800      9799      9803      9800      9799      9807      9800      9799      9811
      9800      9815      9816      9800      9815      9817      9800      9815      9821
      9801      9800      9802      9801      9800      9815      9802      9800      9815
      9803      9799      9807      9803      9799      9811      9804      9803      9805
      9804      9803      9806      9805      9803      9806      9807      9799      9811
      9808      9807      9809      9808      9807      9810      9809      9807      9810
      9812      9811      9813      9812      9811      9814      9813      9811      9814
      9815      9821      9818      9816      9815      9817      9816      9815      9821
      9817      9815      9821      9818      9822      9823      9819      9818      9820
      9819      9818      9821      9819      9818      9822      9820      9818      9821
      9820      9818      9822      9821      9818      9822      9822      9823      9824
      9822      9823      9825      9822      9823      9826      9823      9826      9827
      9823      9826      9828      9823      9826      9834      9824      9823      9825
      9824      9823      9826      9825      9823      9826      9826      9828      9829
      9826      9834      9835      9826      9834      9836      9826      9834      9837
      9827      9826      9828      9827      9826      9834      9828      9826      9834
      9828      9829      9830      9828      9829      9831      9829      9831      9832
      9829      9831      9833      9829      9831      9843      9830      9829      9831
      9831      9843      9844      9831      9843      9845      9831      9843      9846
      9832      9831      9833      9832      9831      9843      9833      9831      9843
      9834      9837      9838      9835      9834      9836      9835      9834      9837
      9836      9834      9837      9837      9838      9839      9837      9838      9840
      9838      9840      9841      9838      9840      9842      9838      9840      9890
      9839      9838      9840      9840      9890      9891      9840      9890      9892
      9840      9890      9893      9841      9840      9842      9841      9840      9890
      9842      9840      9890      9843      9846      9847      9843      9846      9848
      9843      9846      9849      9844      9843      9845      9844      9843      9846
      9845      9843      9846      9846      9849      9850      9846      9849      9851
      9846      9849      9852      9847      9846      9848      9847      9846      9849
      9848      9846      9849      9849      9852      9853      9849      9852      9854
      9849      9852      9855      9850      9849      9851      9850      9849      9852
      9851      9849      9852      9852      9855      9856      9852      9855      9857
      9852      9855      9858      9853      9852      9854      9853      9852      9855
      9854      9852      9855      9855      9858      9859      9855      9858      9860
      9855      9858      9861      9856      9855      9857      9856      9855      9858
      9857      9855      9858      9858      9861      9862      9858      9861      9863
      9859      9858      9860      9859      9858      9861      9860      9858      9861
      9861      9863      9864      9861      9863      9865      9862      9861      9863
      9863      9865      9866      9863      9865      9867      9863      9865      9868
      9864      9863      9865      9865      9868      9869      9865      9868      9870
      9865      9868      9871      9866      9865      9867      9866      9865      9868
      9867      9865      9868      9868      9871      9872      9868      9871      9873
      9868      9871      9874      9869      9868      9870      9869      9868      9871
      9870      9868      9871      9871      9874      9875      9871      9874      9876
      9871      9874      9877      9872      9871      9873      9872      9871      9874
      9873      9871      9874      9874      9877      9878      9874      9877      9879
      9874      9877      9880      9875      9874      9876      9875      9874      9877
      9876      9874      9877      9877      9880      9881      9877      9880      9882
      9877      9880      9883      9878      9877      9879      9878      9877      9880
      9879      9877      9880      9880      9883      9884      9880      9883      9885
      9880      9883      9886      9881      9880      9882      9881      9880      9883
      9882      9880      9883      9883      9886      9887      9883      9886      9888
      9883      9886      9889      9884      9883      9885      9884      9883      9886
      9885      9883      9886      9887      9886      9888      9887      9886      9889
      9888      9886      9889      9890      9893      9894      9890      9893      9895
      9890      9893      9896      9891      9890      9892      9891      9890      9893
      9892      9890      9893      9893      9896      9897      9893      9896      9898
      9893      9896      9899      9894      9893      9895      9894      9893      9896
      9895      9893      9896      9896      9899      9900      9896      9899      9901
      9896      9899      9902      9897      9896      9898      9897      9896      9899
      9898      9896      9899      9899      9902      9903      9899      9902      9904
      9899      9902      9905      9900      9899      9901      9900      9899      9902
      9901      9899      9902      9902      9905      9906      9902      9905      9907
      9902      9905      9908      9903      9902      9904      9903      9902      9905
      9904      9902      9905      9905      9908      9909      9905      9908      9910
      9905      9908      9911      9906      9905      9907      9906      9905      9908
      9907      9905      9908      9908      9911      9912      9908      9911      9913
      9908      9911      9914      9909      9908      9910      9909      9908      9911
      9910      9908      9911      9911      9914      9915      9911      9914      9916
      9911      9914      9917      9912      9911      9913      9912      9911      9914
      9913      9911      9914      9914      9917      9918      9914      9917      9919
      9914      9917      9920      9915      9914      9916      9915      9914      9917
      9916      9914      9917      9917      9920      9921      9917      9920      9922
      9917      9920      9923      9918      9917      9919      9918      9917      9920
      9919      9917      9920      9920      9923      9924      9920      9923      9925
      9920      9923      9926      9921      9920      9922      9921      9920      9923
      9922      9920      9923      9923      9926      9927      9923      9926      9928
      9923      9926      9929      9924      9923      9925      9924      9923      9926
      9925      9923      9926      9926      9929      9930      9926      9929      9931
      9926      9929      9932      9927      9926      9928      9927      9926      9929
      9928      9926      9929      9930      9929      9931      9930      9929      9932
      9931      9929      9932      9933      9934      9935      9933      9934      9936
      9933      9934      9949      9933      9937      9938      9933      9937      9939
      9933      9937      9940      9933      9941      9942      9933      9941      9943
      9933      9941      9944      9933      9945      9946      9933      9945      9947
      9933      9945      9948      9934      9933      9937      9934      9933      9941
      9934      9933      9945      9934      9949      9950      9934      9949      9951
      9934      9949      9955      9935      9934      9936      9935      9934      9949
      9936      9934      9949      9937      9933      9941      9937      9933      9945
      9938      9937      9939      9938      9937      9940      9939      9937      9940
      9941      9933      9945      9942      9941      9943      9942      9941      9944
      9943      9941      9944      9946      9945      9947      9946      9945      9948
      9947      9945      9948      9949      9955      9952      9950      9949      9951
      9950      9949      9955      9951      9949      9955      9952      9956      9957
      9953      9952      9954      9953      9952      9955      9953      9952      9956
      9954      9952      9955      9954      9952      9956      9955      9952      9956
      9956      9957      9958      9956      9957      9959      9956      9957      9960
      9957      9960      9961      9957      9960      9962      9957      9960      9968
      9958      9957      9959      9958      9957      9960      9959      9957      9960
      9960      9962      9963      9960      9968      9969      9960      9968      9970
      9960      9968      9971      9961      9960      9962      9961      9960      9968
      9962      9960      9968      9962      9963      9964      9962      9963      9965
      9963      9965      9966      9963      9965      9967      9963      9965      9977
      9964      9963      9965      9965      9977      9978      9965      9977      9979
      9965      9977      9980      9966      9965      9967      9966      9965      9977
      9967      9965      9977      9968      9971      9972      9969      9968      9970
      9969      9968      9971      9970      9968      9971      9971      9972      9973
      9971      9972      9974      9972      9974      9975      9972      9974      9976
      9972      9974     10024      9973      9972      9974      9974     10024     10025
      9974     10024     10026      9974     10024     10027      9975      9974      9976
      9975      9974     10024      9976      9974     10024      9977      9980      9981
      9977      9980      9982      9977      9980      9983      9978      9977      9979
      9978      9977      9980      9979      9977      9980      9980      9983      9984
      9980      9983      9985      9980      9983      9986      9981      9980      9982
      9981      9980      9983      9982      9980      9983      9983      9986      9987
      9983      9986      9988      9983      9986      9989      9984      9983      9985
      9984      9983      9986      9985      9983      9986      9986      9989      9990
      9986      9989      9991      9986      9989      9992      9987      9986      9988
      9987      9986      9989      9988      9986      9989      9989      9992      9993
      9989      9992      9994      9989      9992      9995      9990      9989      9991
      9990      9989      9992      9991      9989      9992      9992      9995      9996
      9992      9995      9997      9993      9992      9994      9993      9992      9995
      9994      9992      9995      9995      9997      9998      9995      9997      9999
      9996      9995      9997      9997      9999     10000      9997      9999     10001
      9997      9999     10002      9998      9997      9999      9999     10002     10003
      9999     10002     10004      9999     10002     10005     10000      9999     10001
     10000      9999     10002     10001      9999     10002     10002     10005     10006
     10002     10005     10007     10002     10005     10008     10003     10002     10004
     10003     10002     10005     10004     10002     10005     10005     10008     10009
     10005     10008     10010     10005     10008     10011     10006     10005     10007
     10006     10005     10008     10007     10005     10008     10008     10011     10012
     10008     10011     10013     10008     10011     10014     10009     10008     10010
     10009     10008     10011     10010     10008     10011     10011     10014     10015
     10011     10014     10016     10011     10014     10017     10012     10011     10013
     10012     10011     10014     10013     10011     10014     10014     10017     10018
     10014     10017     10019     10014     10017     10020     10015     10014     10016
     10015     10014     10017     10016     10014     10017     10017     10020     10021
     10017     10020     10022     10017     10020     10023     10018     10017     10019
     10018     10017     10020     10019     10017     10020     10021     10020     10022
     10021     10020     10023     10022     10020     10023     10024     10027     10028
     10024     10027     10029     10024     10027     10030     10025     10024     10026
     10025     10024     10027     10026     10024     10027     10027     10030     10031
     10027     10030     10032     10027     10030     10033     10028     10027     10029
     10028     10027     10030     10029     10027     10030     10030     10033     10034
     10030     10033     10035     10030     10033     10036     10031     10030     10032
     10031     10030     10033     10032     10030     10033     10033     10036     10037
     10033     10036     10038     10033     10036     10039     10034     10033     10035
     10034     10033     10036     10035     10033     10036     10036     10039     10040
     10036     10039     10041     10036     10039     10042     10037     10036     10038
     10037     10036     10039     10038     10036     10039     10039     10042     10043
     10039     10042     10044     10039     10042     10045     10040     10039     10041
     10040     10039     10042     10041     10039     10042     10042     10045     10046
     10042     10045     10047     10042     10045     10048     10043     10042     10044
     10043     10042     10045     10044     10042     10045     10045     10048     10049
     10045     10048     10050     10045     10048     10051     10046     10045     10047
     10046     10045     10048     10047     10045     10048     10048     10051     10052
     10048     10051     10053     10048     10051     10054     10049     10048     10050
     10049     10048     10051     10050     10048     10051     10051     10054     10055
     10051     10054     10056     10051     10054     10057     10052     10051     10053
     10052     10051     10054     10053     10051     10054     10054     10057     10058
     10054     10057     10059     10054     10057     10060     10055     10054     10056
     10055     10054     10057     10056     10054     10057     10057     10060     10061
     10057     10060     10062     10057     10060     10063     10058     10057     10059
     10058     10057     10060     10059     10057     10060     10060     10063     10064
     10060     10063     10065     10060     10063     10066     10061     10060     10062
     10061     10060     10063     10062     10060     10063     10064     10063     10065
     10064     10063     10066     10065     10063     10066     10067     10068     10069
     10067     10068     10070     10067     10068     10083     10067     10071     10072
     10067     10071     10073     10067     10071     10074     10067     10075     10076
     10067     10075     10077     10067     10075     10078     10067     10079     10080
     10067     10079     10081     10067     10079     10082     10068     10067     10071
     10068     10067     10075     10068     10067     10079     10068     10083     10084
     10068     10083     10085     10068     10083     10089     10069     10068     10070
     10069     10068     10083     10070     10068     10083     10071     10067     10075
     10071     10067     10079     10072     10071     10073     10072     10071     10074
     10073     10071     10074     10075     10067     10079     10076     10075     10077
     10076     10075     10078     10077     10075     10078     10080     10079     10081
     10080     10079     10082     10081     10079     10082     10083     10089     10086
     10084     10083     10085     10084     10083     10089     10085     10083     10089
     10086     10090     10091     10087     10086     10088     10087     10086     10089
     10087     10086     10090     10088     10086     10089     10088     10086     10090
     10089     10086     10090     10090     10091     10092     10090     10091     10093
     10090     10091     10094     10091     10094     10095     10091     10094     10096
     10091     10094     10102     10092     10091     10093     10092     10091     10094
     10093     10091     10094     10094     10096     10097     10094     10102     10103
     10094     10102     10104     10094     10102     10105     10095     10094     10096
     10095     10094     10102     10096     10094     10102     10096     10097     10098
     10096     10097     10099     10097     10099     10100     10097     10099     10101
     10097     10099     10111     10098     10097     10099     10099     10111     10112
     10099     10111     10113     10099     10111     10114     10100     10099     10101
     10100     10099     10111     10101     10099     10111     10102     10105     10106
     10103     10102     10104     10103     10102     10105     10104     10102     10105
     10105     10106     10107     10105     10106     10108     10106     10108     10109
     10106     10108     10110     10106     10108     10158     10107     10106     10108
     10108     10158     10159     10108     10158     10160     10108     10158     10161
     10109     10108     10110     10109     10108     10158     10110     10108     10158
     10111     10114     10115     10111     10114     10116     10111     10114     10117
     10112     10111     10113     10112     10111     10114     10113     10111     10114
     10114     10117     10118     10114     10117     10119     10114     10117     10120
     10115     10114     10116     10115     10114     10117     10116     10114     10117
     10117     10120     10121     10117     10120     10122     10117     10120     10123
     10118     10117     10119     10118     10117     10120     10119     10117     10120
     10120     10123     10124     10120     10123     10125     10120     10123     10126
     10121     10120     10122     10121     10120     10123     10122     10120     10123
     10123     10126     10127     10123     10126     10128     10123     10126     10129
     10124     10123     10125     10124     10123     10126     10125     10123     10126
     10126     10129     10130     10126     10129     10131     10127     10126     10128
     10127     10126     10129     10128     10126     10129     10129     10131     10132
     10129     10131     10133     10130     10129     10131     10131     10133     10134
     10131     10133     10135     10131     10133     10136     10132     10131     10133
     10133     10136     10137     10133     10136     10138     10133     10136     10139
     10134     10133     10135     10134     10133     10136     10135     10133     10136
     10136     10139     10140     10136     10139     10141     10136     10139     10142
     10137     10136     10138     10137     10136     10139     10138     10136     10139
     10139     10142     10143     10139     10142     10144     10139     10142     10145
     10140     10139     10141     10140     10139     10142     10141     10139     10142
     10142     10145     10146     10142     10145     10147     10142     10145     10148
     10143     10142     10144     10143     10142     10145     10144     10142     10145
     10145     10148     10149     10145     10148     10150     10145     10148     10151
     10146     10145     10147     10146     10145     10148     10147     10145     10148
     10148     10151     10152     10148     10151     10153     10148     10151     10154
     10149     10148     10150     10149     10148     10151     10150     10148     10151
     10151     10154     10155     10151     10154     10156     10151     10154     10157
     10152     10151     10153     10152     10151     10154     10153     10151     10154
     10155     10154     10156     10155     10154     10157     10156     10154     10157
     10158     10161     10162     10158     10161     10163     10158     10161     10164
     10159     10158     10160     10159     10158     10161     10160     10158     10161
     10161     10164     10165     10161     10164     10166     10161     10164     10167
     10162     10161     10163     10162     10161     10164     10163     10161     10164
     10164     10167     10168     10164     10167     10169     10164     10167     10170
     10165     10164     10166     10165     10164     10167     10166     10164     10167
     10167     10170     10171     10167     10170     10172     10167     10170     10173
     10168     10167     10169     10168     10167     10170     10169     10167     10170
     10170     10173     10174     10170     10173     10175     10170     10173     10176
     10171     10170     10172     10171     10170     10173     10172     10170     10173
     10173     10176     10177     10173     10176     10178     10173     10176     10179
     10174     10173     10175     10174     10173     10176     10175     10173     10176
     10176     10179     10180     10176     10179     10181     10176     10179     10182
     10177     10176     10178     10177     10176     10179     10178     10176     10179
     10179     10182     10183     10179     10182     10184     10179     10182     10185
     10180     10179     10181     10180     10179     10182     10181     10179     10182
     10182     10185     10186     10182     10185     10187     10182     10185     10188
     10183     10182     10184     10183     10182     10185     10184     10182     10185
     10185     10188     10189     10185     10188     10190     10185     10188     10191
     10186     10185     10187     10186     10185     10188     10187     10185     10188
     10188     10191     10192     10188     10191     10193     10188     10191     10194
     10189     10188     10190     10189     10188     10191     10190     10188     10191
     10191     10194     10195     10191     10194     10196     10191     10194     10197
     10192     10191     10193     10192     10191     10194     10193     10191     10194
     10194     10197     10198     10194     10197     10199     10194     10197     10200
     10195     10194     10196     10195     10194     10197     10196     10194     10197
     10198     10197     10199     10198     10197     10200     10199     10197     10200
     10201     10202     10203     10201     10202     10204     10201     10202     10217
     10201     10205     10206     10201     10205     10207     10201     10205     10208
     10201     10209     10210     10201     10209     10211     10201     10209     10212
     10201     10213     10214     10201     10213     10215     10201     10213     10216
     10202     10201     10205     10202     10201     10209     10202     10201     10213
     10202     10217     10218     10202     10217     10219     10202     10217     10223
     10203     10202     10204     10203     10202     10217     10204     10202     10217
     10205     10201     10209     10205     10201     10213     10206     10205     10207
     10206     10205     10208     10207     10205     10208     10209     10201     10213
     10210     10209     10211     10210     10209     10212     10211     10209     10212
     10214     10213     10215     10214     10213     10216     10215     10213     10216
     10217     10223     10220     10218     10217     10219     10218     10217     10223
     10219     10217     10223     10220     10224     10225     10221     10220     10222
     10221     10220     10223     10221     10220     10224     10222     10220     10223
     10222     10220     10224     10223     10220     10224     10224     10225     10226
     10224     10225     10227     10224     10225     10228     10225     10228     10229
     10225     10228     10230     10225     10228     10236     10226     10225     10227
     10226     10225     10228     10227     10225     10228     10228     10230     10231
     10228     10236     10237     10228     10236     10238     10228     10236     10239
     10229     10228     10230     10229     10228     10236     10230     10228     10236
     10230     10231     10232     10230     10231     10233     10231     10233     10234
     10231     10233     10235     10231     10233     10245     10232     10231     10233
     10233     10245     10246     10233     10245     10247     10233     10245     10248
     10234     10233     10235     10234     10233     10245     10235     10233     10245
     10236     10239     10240     10237     10236     10238     10237     10236     10239
     10238     10236     10239     10239     10240     10241     10239     10240     10242
     10240     10242     10243     10240     10242     10244     10240     10242     10292
     10241     10240     10242     10242     10292     10293     10242     10292     10294
     10242     10292     10295     10243     10242     10244     10243     10242     10292
     10244     10242     10292     10245     10248     10249     10245     10248     10250
     10245     10248     10251     10246     10245     10247     10246     10245     10248
     10247     10245     10248     10248     10251     10252     10248     10251     10253
     10248     10251     10254     10249     10248     10250     10249     10248     10251
     10250     10248     10251     10251     10254     10255     10251     10254     10256
     10251     10254     10257     10252     10251     10253     10252     10251     10254
     10253     10251     10254     10254     10257     10258     10254     10257     10259
     10254     10257     10260     10255     10254     10256     10255     10254     10257
     10256     10254     10257     10257     10260     10261     10257     10260     10262
     10257     10260     10263     10258     10257     10259     10258     10257     10260
     10259     10257     10260     10260     10263     10264     10260     10263     10265
     10261     10260     10262     10261     10260     10263     10262     10260     10263
     10263     10265     10266     10263     10265     10267     10264     10263     10265
     10265     10267     10268     10265     10267     10269     10265     10267     10270
     10266     10265     10267     10267     10270     10271     10267     10270     10272
     10267     10270     10273     10268     10267     10269     10268     10267     10270
     10269     10267     10270     10270     10273     10274     10270     10273     10275
     10270     10273     10276     10271     10270     10272     10271     10270     10273
     10272     10270     10273     10273     10276     10277     10273     10276     10278
     10273     10276     10279     10274     10273     10275     10274     10273     10276
     10275     10273     10276     10276     10279     10280     10276     10279     10281
     10276     10279     10282     10277     10276     10278     10277     10276     10279
     10278     10276     10279     10279     10282     10283     10279     10282     10284
     10279     10282     10285     10280     10279     10281     10280     10279     10282
     10281     10279     10282     10282     10285     10286     10282     10285     10287
     10282     10285     10288     10283     10282     10284     10283     10282     10285
     10284     10282     10285     10285     10288     10289     10285     10288     10290
     10285     10288     10291     10286     10285     10287     10286     10285     10288
     10287     10285     10288     10289     10288     10290     10289     10288     10291
     10290     10288     10291     10292     10295     10296     10292     10295     10297
     10292     10295     10298     10293     10292     10294     10293     10292     10295
     10294     10292     10295     10295     10298     10299     10295     10298     10300
     10295     10298     10301     10296     10295     10297     10296     10295     10298
     10297     10295     10298     10298     10301     10302     10298     10301     10303
     10298     10301     10304     10299     10298     10300     10299     10298     10301
     10300     10298     10301     10301     10304     10305     10301     10304     10306
     10301     10304     10307     10302     10301     10303     10302     10301     10304
     10303     10301     10304     10304     10307     10308     10304     10307     10309
     10304     10307     10310     10305     10304     10306     10305     10304     10307
     10306     10304     10307     10307     10310     10311     10307     10310     10312
     10307     10310     10313     10308     10307     10309     10308     10307     10310
     10309     10307     10310     10310     10313     10314     10310     10313     10315
     10310     10313     10316     10311     10310     10312     10311     10310     10313
     10312     10310     10313     10313     10316     10317     10313     10316     10318
     10313     10316     10319     10314     10313     10315     10314     10313     10316
     10315     10313     10316     10316     10319     10320     10316     10319     10321
     10316     10319     10322     10317     10316     10318     10317     10316     10319
     10318     10316     10319     10319     10322     10323     10319     10322     10324
     10319     10322     10325     10320     10319     10321     10320     10319     10322
     10321     10319     10322     10322     10325     10326     10322     10325     10327
     10322     10325     10328     10323     10322     10324     10323     10322     10325
     10324     10322     10325     10325     10328     10329     10325     10328     10330
     10325     10328     10331     10326     10325     10327     10326     10325     10328
     10327     10325     10328     10328     10331     10332     10328     10331     10333
     10328     10331     10334     10329     10328     10330     10329     10328     10331
     10330     10328     10331     10332     10331     10333     10332     10331     10334
     10333     10331     10334     10335     10336     10337     10335     10336     10338
     10335     10336     10351     10335     10339     10340     10335     10339     10341
     10335     10339     10342     10335     10343     10344     10335     10343     10345
     10335     10343     10346     10335     10347     10348     10335     10347     10349
     10335     10347     10350     10336     10335     10339     10336     10335     10343
     10336     10335     10347     10336     10351     10352     10336     10351     10353
     10336     10351     10357     10337     10336     10338     10337     10336     10351
     10338     10336     10351     10339     10335     10343     10339     10335     10347
     10340     10339     10341     10340     10339     10342     10341     10339     10342
     10343     10335     10347     10344     10343     10345     10344     10343     10346
     10345     10343     10346     10348     10347     10349     10348     10347     10350
     10349     10347     10350     10351     10357     10354     10352     10351     10353
     10352     10351     10357     10353     10351     10357     10354     10358     10359
     10355     10354     10356     10355     10354     10357     10355     10354     10358
     10356     10354     10357     10356     10354     10358     10357     10354     10358
     10358     10359     10360     10358     10359     10361     10358     10359     10362
     10359     10362     10363     10359     10362     10364     10359     10362     10370
     10360     10359     10361     10360     10359     10362     10361     10359     10362
     10362     10364     10365     10362     10370     10371     10362     10370     10372
     10362     10370     10373     10363     10362     10364     10363     10362     10370
     10364     10362     10370     10364     10365     10366     10364     10365     10367
     10365     10367     10368     10365     10367     10369     10365     10367     10379
     10366     10365     10367     10367     10379     10380     10367     10379     10381
     10367     10379     10382     10368     10367     10369     10368     10367     10379
     10369     10367     10379     10370     10373     10374     10371     10370     10372
     10371     10370     10373     10372     10370     10373     10373     10374     10375
     10373     10374     10376     10374     10376     10377     10374     10376     10378
     10374     10376     10426     10375     10374     10376     10376     10426     10427
     10376     10426     10428     10376     10426     10429     10377     10376     10378
     10377     10376     10426     10378     10376     10426     10379     10382     10383
     10379     10382     10384     10379     10382     10385     10380     10379     10381
     10380     10379     10382     10381     10379     10382     10382     10385     10386
     10382     10385     10387     10382     10385     10388     10383     10382     10384
     10383     10382     10385     10384     10382     10385     10385     10388     10389
     10385     10388     10390     10385     10388     10391     10386     10385     10387
     10386     10385     10388     10387     10385     10388     10388     10391     10392
     10388     10391     10393     10388     10391     10394     10389     10388     10390
     10389     10388     10391     10390     10388     10391     10391     10394     10395
     10391     10394     10396     10391     10394     10397     10392     10391     10393
     10392     10391     10394     10393     10391     10394     10394     10397     10398
     10394     10397     10399     10395     10394     10396     10395     10394     10397
     10396     10394     10397     10397     10399     10400     10397     10399     10401
     10398     10397     10399     10399     10401     10402     10399     10401     10403
     10399     10401     10404     10400     10399     10401     10401     10404     10405
     10401     10404     10406     10401     10404     10407     10402     10401     10403
     10402     10401     10404     10403     10401     10404     10404     10407     10408
     10404     10407     10409     10404     10407     10410     10405     10404     10406
     10405     10404     10407     10406     10404     10407     10407     10410     10411
     10407     10410     10412     10407     10410     10413     10408     10407     10409
     10408     10407     10410     10409     10407     10410     10410     10413     10414
     10410     10413     10415     10410     10413     10416     10411     10410     10412
     10411     10410     10413     10412     10410     10413     10413     10416     10417
     10413     10416     10418     10413     10416     10419     10414     10413     10415
     10414     10413     10416     10415     10413     10416     10416     10419     10420
     10416     10419     10421     10416     10419     10422     10417     10416     10418
     10417     10416     10419     10418     10416     10419     10419     10422     10423
     10419     10422     10424     10419     10422     10425     10420     10419     10421
     10420     10419     10422     10421     10419     10422     10423     10422     10424
     10423     10422     10425     10424     10422     10425     10426     10429     10430
     10426     10429     10431     10426     10429     10432     10427     10426     10428
     10427     10426     10429     10428     10426     10429     10429     10432     10433
     10429     10432     10434     10429     10432     10435     10430     10429     10431
     10430     10429     10432     10431     10429     10432     10432     10435     10436
     10432     10435     10437     10432     10435     10438     10433     10432     10434
     10433     10432     10435     10434     10432     10435     10435     10438     10439
     10435     10438     10440     10435     10438     10441     10436     10435     10437
     10436     10435     10438     10437     10435     10438     10438     10441     10442
     10438     10441     10443     10438     10441     10444     10439     10438     10440
     10439     10438     10441     10440     10438     10441     10441     10444     10445
     10441     10444     10446     10441     10444     10447     10442     10441     10443
     10442     10441     10444     10443     10441     10444     10444     10447     10448
     10444     10447     10449     10444     10447     10450     10445     10444     10446
     10445     10444     10447     10446     10444     10447     10447     10450     10451
     10447     10450     10452     10447     10450     10453     10448     10447     10449
     10448     10447     10450     10449     10447     10450     10450     10453     10454
     10450     10453     10455     10450     10453     10456     10451     10450     10452
     10451     10450     10453     10452     10450     10453     10453     10456     10457
     10453     10456     10458     10453     10456     10459     10454     10453     10455
     10454     10453     10456     10455     10453     10456     10456     10459     10460
     10456     10459     10461     10456     10459     10462     10457     10456     10458
     10457     10456     10459     10458     10456     10459     10459     10462     10463
     10459     10462     10464     10459     10462     10465     10460     10459     10461
     10460     10459     10462     10461     10459     10462     10462     10465     10466
     10462     10465     10467     10462     10465     10468     10463     10462     10464
     10463     10462     10465     10464     10462     10465     10466     10465     10467
     10466     10465     10468     10467     10465     10468     10469     10470     10471
     10469     10470     10472     10469     10470     10485     10469     10473     10474
     10469     10473     10475     10469     10473     10476     10469     10477     10478
     10469     10477     10479     10469     10477     10480     10469     10481     10482
     10469     10481     10483     10469     10481     10484     10470     10469     10473
     10470     10469     10477     10470     10469     10481     10470     10485     10486
     10470     10485     10487     10470     10485     10491     10471     10470     10472
     10471     10470     10485     10472     10470     10485     10473     10469     10477
     10473     10469     10481     10474     10473     10475     10474     10473     10476
     10475     10473     10476     10477     10469     10481     10478     10477     10479
     10478     10477     10480     10479     10477     10480     10482     10481     10483
     10482     10481     10484     10483     10481     10484     10485     10491     10488
     10486     10485     10487     10486     10485     10491     10487     10485     10491
     10488     10492     10493     10489     10488     10490     10489     10488     10491
     10489     10488     10492     10490     10488     10491     10490     10488     10492
     10491     10488     10492     10492     10493     10494     10492     10493     10495
     10492     10493     10496     10493     10496     10497     10493     10496     10498
     10493     10496     10504     10494     10493     10495     10494     10493     10496
     10495     10493     10496     10496     10498     10499     10496     10504     10505
     10496     10504     10506     10496     10504     10507     10497     10496     10498
     10497     10496     10504     10498     10496     10504     10498     10499     10500
     10498     10499     10501     10499     10501     10502     10499     10501     10503
     10499     10501     10513     10500     10499     10501     10501     10513     10514
     10501     10513     10515     10501     10513     10516     10502     10501     10503
     10502     10501     10513     10503     10501     10513     10504     10507     10508
     10505     10504     10506     10505     10504     10507     10506     10504     10507
     10507     10508     10509     10507     10508     10510     10508     10510     10511
     10508     10510     10512     10508     10510     10560     10509     10508     10510
     10510     10560     10561     10510     10560     10562     10510     10560     10563
     10511     10510     10512     10511     10510     10560     10512     10510     10560
     10513     10516     10517     10513     10516     10518     10513     10516     10519
     10514     10513     10515     10514     10513     10516     10515     10513     10516
     10516     10519     10520     10516     10519     10521     10516     10519     10522
     10517     10516     10518     10517     10516     10519     10518     10516     10519
     10519     10522     10523     10519     10522     10524     10519     10522     10525
     10520     10519     10521     10520     10519     10522     10521     10519     10522
     10522     10525     10526     10522     10525     10527     10522     10525     10528
     10523     10522     10524     10523     10522     10525     10524     10522     10525
     10525     10528     10529     10525     10528     10530     10525     10528     10531
     10526     10525     10527     10526     10525     10528     10527     10525     10528
     10528     10531     10532     10528     10531     10533     10529     10528     10530
     10529     10528     10531     10530     10528     10531     10531     10533     10534
     10531     10533     10535     10532     10531     10533     10533     10535     10536
     10533     10535     10537     10533     10535     10538     10534     10533     10535
     10535     10538     10539     10535     10538     10540     10535     10538     10541
     10536     10535     10537     10536     10535     10538     10537     10535     10538
     10538     10541     10542     10538     10541     10543     10538     10541     10544
     10539     10538     10540     10539     10538     10541     10540     10538     10541
     10541     10544     10545     10541     10544     10546     10541     10544     10547
     10542     10541     10543     10542     10541     10544     10543     10541     10544
     10544     10547     10548     10544     10547     10549     10544     10547     10550
     10545     10544     10546     10545     10544     10547     10546     10544     10547
     10547     10550     10551     10547     10550     10552     10547     10550     10553
     10548     10547     10549     10548     10547     10550     10549     10547     10550
     10550     10553     10554     10550     10553     10555     10550     10553     10556
     10551     10550     10552     10551     10550     10553     10552     10550     10553
     10553     10556     10557     10553     10556     10558     10553     10556     10559
     10554     10553     10555     10554     10553     10556     10555     10553     10556
     10557     10556     10558     10557     10556     10559     10558     10556     10559
     10560     10563     10564     10560     10563     10565     10560     10563     10566
     10561     10560     10562     10561     10560     10563     10562     10560     10563
     10563     10566     10567     10563     10566     10568     10563     10566     10569
     10564     10563     10565     10564     10563     10566     10565     10563     10566
     10566     10569     10570     10566     10569     10571     10566     10569     10572
     10567     10566     10568     10567     10566     10569     10568     10566     10569
     10569     10572     10573     10569     10572     10574     10569     10572     10575
     10570     10569     10571     10570     10569     10572     10571     10569     10572
     10572     10575     10576     10572     10575     10577     10572     10575     10578
     10573     10572     10574     10573     10572     10575     10574     10572     10575
     10575     10578     10579     10575     10578     10580     10575     10578     10581
     10576     10575     10577     10576     10575     10578     10577     10575     10578
     10578     10581     10582     10578     10581     10583     10578     10581     10584
     10579     10578     10580     10579     10578     10581     10580     10578     10581
     10581     10584     10585     10581     10584     10586     10581     10584     10587
     10582     10581     10583     10582     10581     10584     10583     10581     10584
     10584     10587     10588     10584     10587     10589     10584     10587     10590
     10585     10584     10586     10585     10584     10587     10586     10584     10587
     10587     10590     10591     10587     10590     10592     10587     10590     10593
     10588     10587     10589     10588     10587     10590     10589     10587     10590
     10590     10593     10594     10590     10593     10595     10590     10593     10596
     10591     10590     10592     10591     10590     10593     10592     10590     10593
     10593     10596     10597     10593     10596     10598     10593     10596     10599
     10594     10593     10595     10594     10593     10596     10595     10593     10596
     10596     10599     10600     10596     10599     10601     10596     10599     10602
     10597     10596     10598     10597     10596     10599     10598     10596     10599
     10600     10599     10601     10600     10599     10602     10601     10599     10602
     10603     10604     10605     10603     10604     10606     10603     10604     10619
     10603     10607     10608     10603     10607     10609     10603     10607     10610
     10603     10611     10612     10603     10611     10613     10603     10611     10614
     10603     10615     10616     10603     10615     10617     10603     10615     10618
     10604     10603     10607     10604     10603     10611     10604     10603     10615
     10604     10619     10620     10604     10619     10621     10604     10619     10625
     10605     10604     10606     10605     10604     10619     10606     10604     10619
     10607     10603     10611     10607     10603     10615     10608     10607     10609
     10608     10607     10610     10609     10607     10610     10611     10603     10615
     10612     10611     10613     10612     10611     10614     10613     10611     10614
     10616     10615     10617     10616     10615     10618     10617     10615     10618
     10619     10625     10622     10620     10619     10621     10620     10619     10625
     10621     10619     10625     10622     10626     10627     10623     10622     10624
     10623     10622     10625     10623     10622     10626     10624     10622     10625
     10624     10622     10626     10625     10622     10626     10626     10627     10628
     10626     10627     10629     10626     10627     10630     10627     10630     10631
     10627     10630     10632     10627     10630     10638     10628     10627     10629
     10628     10627     10630     10629     10627     10630     10630     10632     10633
     10630     10638     10639     10630     10638     10640     10630     10638     10641
     10631     10630     10632     10631     10630     10638     10632     10630     10638
     10632     10633     10634     10632     10633     10635     10633     10635     10636
     10633     10635     10637     10633     10635     10647     10634     10633     10635
     10635     10647     10648     10635     10647     10649     10635     10647     10650
     10636     10635     10637     10636     10635     10647     10637     10635     10647
     10638     10641     10642     10639     10638     10640     10639     10638     10641
     10640     10638     10641     10641     10642     10643     10641     10642     10644
     10642     10644     10645     10642     10644     10646     10642     10644     10694
     10643     10642     10644     10644     10694     10695     10644     10694     10696
     10644     10694     10697     10645     10644     10646     10645     10644     10694
     10646     10644     10694     10647     10650     10651     10647     10650     10652
     10647     10650     10653     10648     10647     10649     10648     10647     10650
     10649     10647     10650     10650     10653     10654     10650     10653     10655
     10650     10653     10656     10651     10650     10652     10651     10650     10653
     10652     10650     10653     10653     10656     10657     10653     10656     10658
     10653     10656     10659     10654     10653     10655     10654     10653     10656
     10655     10653     10656     10656     10659     10660     10656     10659     10661
     10656     10659     10662     10657     10656     10658     10657     10656     10659
     10658     10656     10659     10659     10662     10663     10659     10662     10664
     10659     10662     10665     10660     10659     10661     10660     10659     10662
     10661     10659     10662     10662     10665     10666     10662     10665     10667
     10663     10662     10664     10663     10662     10665     10664     10662     10665
     10665     10667     10668     10665     10667     10669     10666     10665     10667
     10667     10669     10670     10667     10669     10671     10667     10669     10672
     10668     10667     10669     10669     10672     10673     10669     10672     10674
     10669     10672     10675     10670     10669     10671     10670     10669     10672
     10671     10669     10672     10672     10675     10676     10672     10675     10677
     10672     10675     10678     10673     10672     10674     10673     10672     10675
     10674     10672     10675     10675     10678     10679     10675     10678     10680
     10675     10678     10681     10676     10675     10677     10676     10675     10678
     10677     10675     10678     10678     10681     10682     10678     10681     10683
     10678     10681     10684     10679     10678     10680     10679     10678     10681
     10680     10678     10681     10681     10684     10685     10681     10684     10686
     10681     10684     10687     10682     10681     10683     10682     10681     10684
     10683     10681     10684     10684     10687     10688     10684     10687     10689
     10684     10687     10690     10685     10684     10686     10685     10684     10687
     10686     10684     10687     10687     10690     10691     10687     10690     10692
     10687     10690     10693     10688     10687     10689     10688     10687     10690
     10689     10687     10690     10691     10690     10692     10691     10690     10693
     10692     10690     10693     10694     10697     10698     10694     10697     10699
     10694     10697     10700     10695     10694     10696     10695     10694     10697
     10696     10694     10697     10697     10700     10701     10697     10700     10702
     10697     10700     10703     10698     10697     10699     10698     10697     10700
     10699     10697     10700     10700     10703     10704     10700     10703     10705
     10700     10703     10706     10701     10700     10702     10701     10700     10703
     10702     10700     10703     10703     10706     10707     10703     10706     10708
     10703     10706     10709     10704     10703     10705     10704     10703     10706
     10705     10703     10706     10706     10709     10710     10706     10709     10711
     10706     10709     10712     10707     10706     10708     10707     10706     10709
     10708     10706     10709     10709     10712     10713     10709     10712     10714
     10709     10712     10715     10710     10709     10711     10710     10709     10712
     10711     10709     10712     10712     10715     10716     10712     10715     10717
     10712     10715     10718     10713     10712     10714     10713     10712     10715
     10714     10712     10715     10715     10718     10719     10715     10718     10720
     10715     10718     10721     10716     10715     10717     10716     10715     10718
     10717     10715     10718     10718     10721     10722     10718     10721     10723
     10718     10721     10724     10719     10718     10720     10719     10718     10721
     10720     10718     10721     10721     10724     10725     10721     10724     10726
     10721     10724     10727     10722     10721     10723     10722     10721     10724
     10723     10721     10724     10724     10727     10728     10724     10727     10729
     10724     10727     10730     10725     10724     10726     10725     10724     10727
     10726     10724     10727     10727     10730     10731     10727     10730     10732
     10727     10730     10733     10728     10727     10729     10728     10727     10730
     10729     10727     10730     10730     10733     10734     10730     10733     10735
     10730     10733     10736     10731     10730     10732     10731     10730     10733
     10732     10730     10733     10734     10733     10735     10734     10733     10736
     10735     10733     10736     10737     10738     10739     10737     10738     10740
     10737     10738     10753     10737     10741     10742     10737     10741     10743
     10737     10741     10744     10737     10745     10746     10737     10745     10747
     10737     10745     10748     10737     10749     10750     10737     10749     10751
     10737     10749     10752     10738     10737     10741     10738     10737     10745
     10738     10737     10749     10738     10753     10754     10738     10753     10755
     10738     10753     10759     10739     10738     10740     10739     10738     10753
     10740     10738     10753     10741     10737     10745     10741     10737     10749
     10742     10741     10743     10742     10741     10744     10743     10741     10744
     10745     10737     10749     10746     10745     10747     10746     10745     10748
     10747     10745     10748     10750     10749     10751     10750     10749     10752
     10751     10749     10752     10753     10759     10756     10754     10753     10755
     10754     10753     10759     10755     10753     10759     10756     10760     10761
     10757     10756     10758     10757     10756     10759     10757     10756     10760
     10758     10756     10759     10758     10756     10760     10759     10756     10760
     10760     10761     10762     10760     10761     10763     10760     10761     10764
     10761     10764     10765     10761     10764     10766     10761     10764     10772
     10762     10761     10763     10762     10761     10764     10763     10761     10764
     10764     10766     10767     10764     10772     10773     10764     10772     10774
     10764     10772     10775     10765     10764     10766     10765     10764     10772
     10766     10764     10772     10766     10767     10768     10766     10767     10769
     10767     10769     10770     10767     10769     10771     10767     10769     10781
     10768     10767     10769     10769     10781     10782     10769     10781     10783
     10769     10781     10784     10770     10769     10771     10770     10769     10781
     10771     10769     10781     10772     10775     10776     10773     10772     10774
     10773     10772     10775     10774     10772     10775     10775     10776     10777
     10775     10776     10778     10776     10778     10779     10776     10778     10780
     10776     10778     10828     10777     10776     10778     10778     10828     10829
     10778     10828     10830     10778     10828     10831     10779     10778     10780
     10779     10778     10828     10780     10778     10828     10781     10784     10785
     10781     10784     10786     10781     10784     10787     10782     10781     10783
     10782     10781     10784     10783     10781     10784     10784     10787     10788
     10784     10787     10789     10784     10787     10790     10785     10784     10786
     10785     10784     10787     10786     10784     10787     10787     10790     10791
     10787     10790     10792     10787     10790     10793     10788     10787     10789
     10788     10787     10790     10789     10787     10790     10790     10793     10794
     10790     10793     10795     10790     10793     10796     10791     10790     10792
     10791     10790     10793     10792     10790     10793     10793     10796     10797
     10793     10796     10798     10793     10796     10799     10794     10793     10795
     10794     10793     10796     10795     10793     10796     10796     10799     10800
     10796     10799     10801     10797     10796     10798     10797     10796     10799
     10798     10796     10799     10799     10801     10802     10799     10801     10803
     10800     10799     10801     10801     10803     10804     10801     10803     10805
     10801     10803     10806     10802     10801     10803     10803     10806     10807
     10803     10806     10808     10803     10806     10809     10804     10803     10805
     10804     10803     10806     10805     10803     10806     10806     10809     10810
     10806     10809     10811     10806     10809     10812     10807     10806     10808
     10807     10806     10809     10808     10806     10809     10809     10812     10813
     10809     10812     10814     10809     10812     10815     10810     10809     10811
     10810     10809     10812     10811     10809     10812     10812     10815     10816
     10812     10815     10817     10812     10815     10818     10813     10812     10814
     10813     10812     10815     10814     10812     10815     10815     10818     10819
     10815     10818     10820     10815     10818     10821     10816     10815     10817
     10816     10815     10818     10817     10815     10818     10818     10821     10822
     10818     10821     10823     10818     10821     10824     10819     10818     10820
     10819     10818     10821     10820     10818     10821     10821     10824     10825
     10821     10824     10826     10821     10824     10827     10822     10821     10823
     10822     10821     10824     10823     10821     10824     10825     10824     10826
     10825     10824     10827     10826     10824     10827     10828     10831     10832
     10828     10831     10833     10828     10831     10834     10829     10828     10830
     10829     10828     10831     10830     10828     10831     10831     10834     10835
     10831     10834     10836     10831     10834     10837     10832     10831     10833
     10832     10831     10834     10833     10831     10834     10834     10837     10838
     10834     10837     10839     10834     10837     10840     10835     10834     10836
     10835     10834     10837     10836     10834     10837     10837     10840     10841
     10837     10840     10842     10837     10840     10843     10838     10837     10839
     10838     10837     10840     10839     10837     10840     10840     10843     10844
     10840     10843     10845     10840     10843     10846     10841     10840     10842
     10841     10840     10843     10842     10840     10843     10843     10846     10847
     10843     10846     10848     10843     10846     10849     10844     10843     10845
     10844     10843     10846     10845     10843     10846     10846     10849     10850
     10846     10849     10851     10846     10849     10852     10847     10846     10848
     10847     10846     10849     10848     10846     10849     10849     10852     10853
     10849     10852     10854     10849     10852     10855     10850     10849     10851
     10850     10849     10852     10851     10849     10852     10852     10855     10856
     10852     10855     10857     10852     10855     10858     10853     10852     10854
     10853     10852     10855     10854     10852     10855     10855     10858     10859
     10855     10858     10860     10855     10858     10861     10856     10855     10857
     10856     10855     10858     10857     10855     10858     10858     10861     10862
     10858     10861     10863     10858     10861     10864     10859     10858     10860
     10859     10858     10861     10860     10858     10861     10861     10864     10865
     10861     10864     10866     10861     10864     10867     10862     10861     10863
     10862     10861     10864     10863     10861     10864     10864     10867     10868
     10864     10867     10869     10864     10867     10870     10865     10864     10866
     10865     10864     10867     10866     10864     10867     10868     10867     10869
     10868     10867     10870     10869     10867     10870     10871     10872     10873
     10871     10872     10874     10871     10872     10887     10871     10875     10876
     10871     10875     10877     10871     10875     10878     10871     10879     10880
     10871     10879     10881     10871     10879     10882     10871     10883     10884
     10871     10883     10885     10871     10883     10886     10872     10871     10875
     10872     10871     10879     10872     10871     10883     10872     10887     10888
     10872     10887     10889     10872     10887     10893     10873     10872     10874
     10873     10872     10887     10874     10872     10887     10875     10871     10879
     10875     10871     10883     10876     10875     10877     10876     10875     10878
     10877     10875     10878     10879     10871     10883     10880     10879     10881
     10880     10879     10882     10881     10879     10882     10884     10883     10885
     10884     10883     10886     10885     10883     10886     10887     10893     10890
     10888     10887     10889     10888     10887     10893     10889     10887     10893
     10890     10894     10895     10891     10890     10892     10891     10890     10893
     10891     10890     10894     10892     10890     10893     10892     10890     10894
     10893     10890     10894     10894     10895     10896     10894     10895     10897
     10894     10895     10898     10895     10898     10899     10895     10898     10900
     10895     10898     10906     10896     10895     10897     10896     10895     10898
     10897     10895     10898     10898     10900     10901     10898     10906     10907
     10898     10906     10908     10898     10906     10909     10899     10898     10900
     10899     10898     10906     10900     10898     10906     10900     10901     10902
     10900     10901     10903     10901     10903     10904     10901     10903     10905
     10901     10903     10915     10902     10901     10903     10903     10915     10916
     10903     10915     10917     10903     10915     10918     10904     10903     10905
     10904     10903     10915     10905     10903     10915     10906     10909     10910
     10907     10906     10908     10907     10906     10909     10908     10906     10909
     10909     10910     10911     10909     10910     10912     10910     10912     10913
     10910     10912     10914     10910     10912     10962     10911     10910     10912
     10912     10962     10963     10912     10962     10964     10912     10962     10965
     10913     10912     10914     10913     10912     10962     10914     10912     10962
     10915     10918     10919     10915     10918     10920     10915     10918     10921
     10916     10915     10917     10916     10915     10918     10917     10915     10918
     10918     10921     10922     10918     10921     10923     10918     10921     10924
     10919     10918     10920     10919     10918     10921     10920     10918     10921
     10921     10924     10925     10921     10924     10926     10921     10924     10927
     10922     10921     10923     10922     10921     10924     10923     10921     10924
     10924     10927     10928     10924     10927     10929     10924     10927     10930
     10925     10924     10926     10925     10924     10927     10926     10924     10927
     10927     10930     10931     10927     10930     10932     10927     10930     10933
     10928     10927     10929     10928     10927     10930     10929     10927     10930
     10930     10933     10934     10930     10933     10935     10931     10930     10932
     10931     10930     10933     10932     10930     10933     10933     10935     10936
     10933     10935     10937     10934     10933     10935     10935     10937     10938
     10935     10937     10939     10935     10937     10940     10936     10935     10937
     10937     10940     10941     10937     10940     10942     10937     10940     10943
     10938     10937     10939     10938     10937     10940     10939     10937     10940
     10940     10943     10944     10940     10943     10945     10940     10943     10946
     10941     10940     10942     10941     10940     10943     10942     10940     10943
     10943     10946     10947     10943     10946     10948     10943     10946     10949
     10944     10943     10945     10944     10943     10946     10945     10943     10946
     10946     10949     10950     10946     10949     10951     10946     10949     10952
     10947     10946     10948     10947     10946     10949     10948     10946     10949
     10949     10952     10953     10949     10952     10954     10949     10952     10955
     10950     10949     10951     10950     10949     10952     10951     10949     10952
     10952     10955     10956     10952     10955     10957     10952     10955     10958
     10953     10952     10954     10953     10952     10955     10954     10952     10955
     10955     10958     10959     10955     10958     10960     10955     10958     10961
     10956     10955     10957     10956     10955     10958     10957     10955     10958
     10959     10958     10960     10959     10958     10961     10960     10958     10961
     10962     10965     10966     10962     10965     10967     10962     10965     10968
     10963     10962     10964     10963     10962     10965     10964     10962     10965
     10965     10968     10969     10965     10968     10970     10965     10968     10971
     10966     10965     10967     10966     10965     10968     10967     10965     10968
     10968     10971     10972     10968     10971     10973     10968     10971     10974
     10969     10968     10970     10969     10968     10971     10970     10968     10971
     10971     10974     10975     10971     10974     10976     10971     10974     10977
     10972     10971     10973     10972     10971     10974     10973     10971     10974
     10974     10977     10978     10974     10977     10979     10974     10977     10980
     10975     10974     10976     10975     10974     10977     10976     10974     10977
     10977     10980     10981     10977     10980     10982     10977     10980     10983
     10978     10977     10979     10978     10977     10980     10979     10977     10980
     10980     10983     10984     10980     10983     10985     10980     10983     10986
     10981     10980     10982     10981     10980     10983     10982     10980     10983
     10983     10986     10987     10983     10986     10988     10983     10986     10989
     10984     10983     10985     10984     10983     10986     10985     10983     10986
     10986     10989     10990     10986     10989     10991     10986     10989     10992
     10987     10986     10988     10987     10986     10989     10988     10986     10989
     10989     10992     10993     10989     10992     10994     10989     10992     10995
     10990     10989     10991     10990     10989     10992     10991     10989     10992
     10992     10995     10996     10992     10995     10997     10992     10995     10998
     10993     10992     10994     10993     10992     10995     10994     10992     10995
     10995     10998     10999     10995     10998     11000     10995     10998     11001
     10996     10995     10997     10996     10995     10998     10997     10995     10998
     10998     11001     11002     10998     11001     11003     10998     11001     11004
     10999     10998     11000     10999     10998     11001     11000     10998     11001
     11002     11001     11003     11002     11001     11004     11003     11001     11004
     11005     11006     11007     11005     11006     11008     11005     11006     11021
     11005     11009     11010     11005     11009     11011     11005     11009     11012
     11005     11013     11014     11005     11013     11015     11005     11013     11016
     11005     11017     11018     11005     11017     11019     11005     11017     11020
     11006     11005     11009     11006     11005     11013     11006     11005     11017
     11006     11021     11022     11006     11021     11023     11006     11021     11027
     11007     11006     11008     11007     11006     11021     11008     11006     11021
     11009     11005     11013     11009     11005     11017     11010     11009     11011
     11010     11009     11012     11011     11009     11012     11013     11005     11017
     11014     11013     11015     11014     11013     11016     11015     11013     11016
     11018     11017     11019     11018     11017     11020     11019     11017     11020
     11021     11027     11024     11022     11021     11023     11022     11021     11027
     11023     11021     11027     11024     11028     11029     11025     11024     11026
     11025     11024     11027     11025     11024     11028     11026     11024     11027
     11026     11024     11028     11027     11024     11028     11028     11029     11030
     11028     11029     11031     11028     11029     11032     11029     11032     11033
     11029     11032     11034     11029     11032     11040     11030     11029     11031
     11030     11029     11032     11031     11029     11032     11032     11034     11035
     11032     11040     11041     11032     11040     11042     11032     11040     11043
     11033     11032     11034     11033     11032     11040     11034     11032     11040
     11034     11035     11036     11034     11035     11037     11035     11037     11038
     11035     11037     11039     11035     11037     11049     11036     11035     11037
     11037     11049     11050     11037     11049     11051     11037     11049     11052
     11038     11037     11039     11038     11037     11049     11039     11037     11049
     11040     11043     11044     11041     11040     11042     11041     11040     11043
     11042     11040     11043     11043     11044     11045     11043     11044     11046
     11044     11046     11047     11044     11046     11048     11044     11046     11096
     11045     11044     11046     11046     11096     11097     11046     11096     11098
     11046     11096     11099     11047     11046     11048     11047     11046     11096
     11048     11046     11096     11049     11052     11053     11049     11052     11054
     11049     11052     11055     11050     11049     11051     11050     11049     11052
     11051     11049     11052     11052     11055     11056     11052     11055     11057
     11052     11055     11058     11053     11052     11054     11053     11052     11055
     11054     11052     11055     11055     11058     11059     11055     11058     11060
     11055     11058     11061     11056     11055     11057     11056     11055     11058
     11057     11055     11058     11058     11061     11062     11058     11061     11063
     11058     11061     11064     11059     11058     11060     11059     11058     11061
     11060     11058     11061     11061     11064     11065     11061     11064     11066
     11061     11064     11067     11062     11061     11063     11062     11061     11064
     11063     11061     11064     11064     11067     11068     11064     11067     11069
     11065     11064     11066     11065     11064     11067     11066     11064     11067
     11067     11069     11070     11067     11069     11071     11068     11067     11069
     11069     11071     11072     11069     11071     11073     11069     11071     11074
     11070     11069     11071     11071     11074     11075     11071     11074     11076
     11071     11074     11077     11072     11071     11073     11072     11071     11074
     11073     11071     11074     11074     11077     11078     11074     11077     11079
     11074     11077     11080     11075     11074     11076     11075     11074     11077
     11076     11074     11077     11077     11080     11081     11077     11080     11082
     11077     11080     11083     11078     11077     11079     11078     11077     11080
     11079     11077     11080     11080     11083     11084     11080     11083     11085
     11080     11083     11086     11081     11080     11082     11081     11080     11083
     11082     11080     11083     11083     11086     11087     11083     11086     11088
     11083     11086     11089     11084     11083     11085     11084     11083     11086
     11085     11083     11086     11086     11089     11090     11086     11089     11091
     11086     11089     11092     11087     11086     11088     11087     11086     11089
     11088     11086     11089     11089     11092     11093     11089     11092     11094
     11089     11092     11095     11090     11089     11091     11090     11089     11092
     11091     11089     11092     11093     11092     11094     11093     11092     11095
     11094     11092     11095     11096     11099     11100     11096     11099     11101
     11096     11099     11102     11097     11096     11098     11097     11096     11099
     11098     11096     11099     11099     11102     11103     11099     11102     11104
     11099     11102     11105     11100     11099     11101     11100     11099     11102
     11101     11099     11102     11102     11105     11106     11102     11105     11107
     11102     11105     11108     11103     11102     11104     11103     11102     11105
     11104     11102     11105     11105     11108     11109     11105     11108     11110
     11105     11108     11111     11106     11105     11107     11106     11105     11108
     11107     11105     11108     11108     11111     11112     11108     11111     11113
     11108     11111     11114     11109     11108     11110     11109     11108     11111
     11110     11108     11111     11111     11114     11115     11111     11114     11116
     11111     11114     11117     11112     11111     11113     11112     11111     11114
     11113     11111     11114     11114     11117     11118     11114     11117     11119
     11114     11117     11120     11115     11114     11116     11115     11114     11117
     11116     11114     11117     11117     11120     11121     11117     11120     11122
     11117     11120     11123     11118     11117     11119     11118     11117     11120
     11119     11117     11120     11120     11123     11124     11120     11123     11125
     11120     11123     11126     11121     11120     11122     11121     11120     11123
     11122     11120     11123     11123     11126     11127     11123     11126     11128
     11123     11126     11129     11124     11123     11125     11124     11123     11126
     11125     11123     11126     11126     11129     11130     11126     11129     11131
     11126     11129     11132     11127     11126     11128     11127     11126     11129
     11128     11126     11129     11129     11132     11133     11129     11132     11134
     11129     11132     11135     11130     11129     11131     11130     11129     11132
     11131     11129     11132     11132     11135     11136     11132     11135     11137
     11132     11135     11138     11133     11132     11134     11133     11132     11135
     11134     11132     11135     11136     11135     11137     11136     11135     11138
     11137     11135     11138     11139     11140     11141     11139     11140     11142
     11139     11140     11155     11139     11143     11144     11139     11143     11145
     11139     11143     11146     11139     11147     11148     11139     11147     11149
     11139     11147     11150     11139     11151     11152     11139     11151     11153
     11139     11151     11154     11140     11139     11143     11140     11139     11147
     11140     11139     11151     11140     11155     11156     11140     11155     11157
     11140     11155     11161     11141     11140     11142     11141     11140     11155
     11142     11140     11155     11143     11139     11147     11143     11139     11151
     11144     11143     11145     11144     11143     11146     11145     11143     11146
     11147     11139     11151     11148     11147     11149     11148     11147     11150
     11149     11147     11150     11152     11151     11153     11152     11151     11154
     11153     11151     11154     11155     11161     11158     11156     11155     11157
     11156     11155     11161     11157     11155     11161     11158     11162     11163
     11159     11158     11160     11159     11158     11161     11159     11158     11162
     11160     11158     11161     11160     11158     11162     11161     11158     11162
     11162     11163     11164     11162     11163     11165     11162     11163     11166
     11163     11166     11167     11163     11166     11168     11163     11166     11174
     11164     11163     11165     11164     11163     11166     11165     11163     11166
     11166     11168     11169     11166     11174     11175     11166     11174     11176
     11166     11174     11177     11167     11166     11168     11167     11166     11174
     11168     11166     11174     11168     11169     11170     11168     11169     11171
     11169     11171     11172     11169     11171     11173     11169     11171     11183
     11170     11169     11171     11171     11183     11184     11171     11183     11185
     11171     11183     11186     11172     11171     11173     11172     11171     11183
     11173     11171     11183     11174     11177     11178     11175     11174     11176
     11175     11174     11177     11176     11174     11177     11177     11178     11179
     11177     11178     11180     11178     11180     11181     11178     11180     11182
     11178     11180     11230     11179     11178     11180     11180     11230     11231
     11180     11230     11232     11180     11230     11233     11181     11180     11182
     11181     11180     11230     11182     11180     11230     11183     11186     11187
     11183     11186     11188     11183     11186     11189     11184     11183     11185
     11184     11183     11186     11185     11183     11186     11186     11189     11190
     11186     11189     11191     11186     11189     11192     11187     11186     11188
     11187     11186     11189     11188     11186     11189     11189     11192     11193
     11189     11192     11194     11189     11192     11195     11190     11189     11191
     11190     11189     11192     11191     11189     11192     11192     11195     11196
     11192     11195     11197     11192     11195     11198     11193     11192     11194
     11193     11192     11195     11194     11192     11195     11195     11198     11199
     11195     11198     11200     11195     11198     11201     11196     11195     11197
     11196     11195     11198     11197     11195     11198     11198     11201     11202
     11198     11201     11203     11199     11198     11200     11199     11198     11201
     11200     11198     11201     11201     11203     11204     11201     11203     11205
     11202     11201     11203     11203     11205     11206     11203     11205     11207
     11203     11205     11208     11204     11203     11205     11205     11208     11209
     11205     11208     11210     11205     11208     11211     11206     11205     11207
     11206     11205     11208     11207     11205     11208     11208     11211     11212
     11208     11211     11213     11208     11211     11214     11209     11208     11210
     11209     11208     11211     11210     11208     11211     11211     11214     11215
     11211     11214     11216     11211     11214     11217     11212     11211     11213
     11212     11211     11214     11213     11211     11214     11214     11217     11218
     11214     11217     11219     11214     11217     11220     11215     11214     11216
     11215     11214     11217     11216     11214     11217     11217     11220     11221
     11217     11220     11222     11217     11220     11223     11218     11217     11219
     11218     11217     11220     11219     11217     11220     11220     11223     11224
     11220     11223     11225     11220     11223     11226     11221     11220     11222
     11221     11220     11223     11222     11220     11223     11223     11226     11227
     11223     11226     11228     11223     11226     11229     11224     11223     11225
     11224     11223     11226     11225     11223     11226     11227     11226     11228
     11227     11226     11229     11228     11226     11229     11230     11233     11234
     11230     11233     11235     11230     11233     11236     11231     11230     11232
     11231     11230     11233     11232     11230     11233     11233     11236     11237
     11233     11236     11238     11233     11236     11239     11234     11233     11235
     11234     11233     11236     11235     11233     11236     11236     11239     11240
     11236     11239     11241     11236     11239     11242     11237     11236     11238
     11237     11236     11239     11238     11236     11239     11239     11242     11243
     11239     11242     11244     11239     11242     11245     11240     11239     11241
     11240     11239     11242     11241     11239     11242     11242     11245     11246
     11242     11245     11247     11242     11245     11248     11243     11242     11244
     11243     11242     11245     11244     11242     11245     11245     11248     11249
     11245     11248     11250     11245     11248     11251     11246     11245     11247
     11246     11245     11248     11247     11245     11248     11248     11251     11252
     11248     11251     11253     11248     11251     11254     11249     11248     11250
     11249     11248     11251     11250     11248     11251     11251     11254     11255
     11251     11254     11256     11251     11254     11257     11252     11251     11253
     11252     11251     11254     11253     11251     11254     11254     11257     11258
     11254     11257     11259     11254     11257     11260     11255     11254     11256
     11255     11254     11257     11256     11254     11257     11257     11260     11261
     11257     11260     11262     11257     11260     11263     11258     11257     11259
     11258     11257     11260     11259     11257     11260     11260     11263     11264
     11260     11263     11265     11260     11263     11266     11261     11260     11262
     11261     11260     11263     11262     11260     11263     11263     11266     11267
     11263     11266     11268     11263     11266     11269     11264     11263     11265
     11264     11263     11266     11265     11263     11266     11266     11269     11270
     11266     11269     11271     11266     11269     11272     11267     11266     11268
     11267     11266     11269     11268     11266     11269     11270     11269     11271
     11270     11269     11272     11271     11269     11272     11273     11274     11275
     11273     11274     11276     11273     11274     11289     11273     11277     11278
     11273     11277     11279     11273     11277     11280     11273     11281     11282
     11273     11281     11283     11273     11281     11284     11273     11285     11286
     11273     11285     11287     11273     11285     11288     11274     11273     11277
     11274     11273     11281     11274     11273     11285     11274     11289     11290
     11274     11289     11291     11274     11289     11295     11275     11274     11276
     11275     11274     11289     11276     11274     11289     11277     11273     11281
     11277     11273     11285     11278     11277     11279     11278     11277     11280
     11279     11277     11280     11281     11273     11285     11282     11281     11283
     11282     11281     11284     11283     11281     11284     11286     11285     11287
     11286     11285     11288     11287     11285     11288     11289     11295     11292
     11290     11289     11291     11290     11289     11295     11291     11289     11295
     11292     11296     11297     11293     11292     11294     11293     11292     11295
     11293     11292     11296     11294     11292     11295     11294     11292     11296
     11295     11292     11296     11296     11297     11298     11296     11297     11299
     11296     11297     11300     11297     11300     11301     11297     11300     11302
     11297     11300     11308     11298     11297     11299     11298     11297     11300
     11299     11297     11300     11300     11302     11303     11300     11308     11309
     11300     11308     11310     11300     11308     11311     11301     11300     11302
     11301     11300     11308     11302     11300     11308     11302     11303     11304
     11302     11303     11305     11303     11305     11306     11303     11305     11307
     11303     11305     11317     11304     11303     11305     11305     11317     11318
     11305     11317     11319     11305     11317     11320     11306     11305     11307
     11306     11305     11317     11307     11305     11317     11308     11311     11312
     11309     11308     11310     11309     11308     11311     11310     11308     11311
     11311     11312     11313     11311     11312     11314     11312     11314     11315
     11312     11314     11316     11312     11314     11364     11313     11312     11314
     11314     11364     11365     11314     11364     11366     11314     11364     11367
     11315     11314     11316     11315     11314     11364     11316     11314     11364
     11317     11320     11321     11317     11320     11322     11317     11320     11323
     11318     11317     11319     11318     11317     11320     11319     11317     11320
     11320     11323     11324     11320     11323     11325     11320     11323     11326
     11321     11320     11322     11321     11320     11323     11322     11320     11323
     11323     11326     11327     11323     11326     11328     11323     11326     11329
     11324     11323     11325     11324     11323     11326     11325     11323     11326
     11326     11329     11330     11326     11329     11331     11326     11329     11332
     11327     11326     11328     11327     11326     11329     11328     11326     11329
     11329     11332     11333     11329     11332     11334     11329     11332     11335
     11330     11329     11331     11330     11329     11332     11331     11329     11332
     11332     11335     11336     11332     11335     11337     11333     11332     11334
     11333     11332     11335     11334     11332     11335     11335     11337     11338
     11335     11337     11339     11336     11335     11337     11337     11339     11340
     11337     11339     11341     11337     11339     11342     11338     11337     11339
     11339     11342     11343     11339     11342     11344     11339     11342     11345
     11340     11339     11341     11340     11339     11342     11341     11339     11342
     11342     11345     11346     11342     11345     11347     11342     11345     11348
     11343     11342     11344     11343     11342     11345     11344     11342     11345
     11345     11348     11349     11345     11348     11350     11345     11348     11351
     11346     11345     11347     11346     11345     11348     11347     11345     11348
     11348     11351     11352     11348     11351     11353     11348     11351     11354
     11349     11348     11350     11349     11348     11351     11350     11348     11351
     11351     11354     11355     11351     11354     11356     11351     11354     11357
     11352     11351     11353     11352     11351     11354     11353     11351     11354
     11354     11357     11358     11354     11357     11359     11354     11357     11360
     11355     11354     11356     11355     11354     11357     11356     11354     11357
     11357     11360     11361     11357     11360     11362     11357     11360     11363
     11358     11357     11359     11358     11357     11360     11359     11357     11360
     11361     11360     11362     11361     11360     11363     11362     11360     11363
     11364     11367     11368     11364     11367     11369     11364     11367     11370
     11365     11364     11366     11365     11364     11367     11366     11364     11367
     11367     11370     11371     11367     11370     11372     11367     11370     11373
     11368     11367     11369     11368     11367     11370     11369     11367     11370
     11370     11373     11374     11370     11373     11375     11370     11373     11376
     11371     11370     11372     11371     11370     11373     11372     11370     11373
     11373     11376     11377     11373     11376     11378     11373     11376     11379
     11374     11373     11375     11374     11373     11376     11375     11373     11376
     11376     11379     11380     11376     11379     11381     11376     11379     11382
     11377     11376     11378     11377     11376     11379     11378     11376     11379
     11379     11382     11383     11379     11382     11384     11379     11382     11385
     11380     11379     11381     11380     11379     11382     11381     11379     11382
     11382     11385     11386     11382     11385     11387     11382     11385     11388
     11383     11382     11384     11383     11382     11385     11384     11382     11385
     11385     11388     11389     11385     11388     11390     11385     11388     11391
     11386     11385     11387     11386     11385     11388     11387     11385     11388
     11388     11391     11392     11388     11391     11393     11388     11391     11394
     11389     11388     11390     11389     11388     11391     11390     11388     11391
     11391     11394     11395     11391     11394     11396     11391     11394     11397
     11392     11391     11393     11392     11391     11394     11393     11391     11394
     11394     11397     11398     11394     11397     11399     11394     11397     11400
     11395     11394     11396     11395     11394     11397     11396     11394     11397
     11397     11400     11401     11397     11400     11402     11397     11400     11403
     11398     11397     11399     11398     11397     11400     11399     11397     11400
     11400     11403     11404     11400     11403     11405     11400     11403     11406
     11401     11400     11402     11401     11400     11403     11402     11400     11403
     11404     11403     11405     11404     11403     11406     11405     11403     11406
     11407     11408     11409     11407     11408     11410     11407     11408     11423
     11407     11411     11412     11407     11411     11413     11407     11411     11414
     11407     11415     11416     11407     11415     11417     11407     11415     11418
     11407     11419     11420     11407     11419     11421     11407     11419     11422
     11408     11407     11411     11408     11407     11415     11408     11407     11419
     11408     11423     11424     11408     11423     11425     11408     11423     11429
     11409     11408     11410     11409     11408     11423     11410     11408     11423
     11411     11407     11415     11411     11407     11419     11412     11411     11413
     11412     11411     11414     11413     11411     11414     11415     11407     11419
     11416     11415     11417     11416     11415     11418     11417     11415     11418
     11420     11419     11421     11420     11419     11422     11421     11419     11422
     11423     11429     11426     11424     11423     11425     11424     11423     11429
     11425     11423     11429     11426     11430     11431     11427     11426     11428
     11427     11426     11429     11427     11426     11430     11428     11426     11429
     11428     11426     11430     11429     11426     11430     11430     11431     11432
     11430     11431     11433     11430     11431     11434     11431     11434     11435
     11431     11434     11436     11431     11434     11442     11432     11431     11433
     11432     11431     11434     11433     11431     11434     11434     11436     11437
     11434     11442     11443     11434     11442     11444     11434     11442     11445
     11435     11434     11436     11435     11434     11442     11436     11434     11442
     11436     11437     11438     11436     11437     11439     11437     11439     11440
     11437     11439     11441     11437     11439     11451     11438     11437     11439
     11439     11451     11452     11439     11451     11453     11439     11451     11454
     11440     11439     11441     11440     11439     11451     11441     11439     11451
     11442     11445     11446     11443     11442     11444     11443     11442     11445
     11444     11442     11445     11445     11446     11447     11445     11446     11448
     11446     11448     11449     11446     11448     11450     11446     11448     11498
     11447     11446     11448     11448     11498     11499     11448     11498     11500
     11448     11498     11501     11449     11448     11450     11449     11448     11498
     11450     11448     11498     11451     11454     11455     11451     11454     11456
     11451     11454     11457     11452     11451     11453     11452     11451     11454
     11453     11451     11454     11454     11457     11458     11454     11457     11459
     11454     11457     11460     11455     11454     11456     11455     11454     11457
     11456     11454     11457     11457     11460     11461     11457     11460     11462
     11457     11460     11463     11458     11457     11459     11458     11457     11460
     11459     11457     11460     11460     11463     11464     11460     11463     11465
     11460     11463     11466     11461     11460     11462     11461     11460     11463
     11462     11460     11463     11463     11466     11467     11463     11466     11468
     11463     11466     11469     11464     11463     11465     11464     11463     11466
     11465     11463     11466     11466     11469     11470     11466     11469     11471
     11467     11466     11468     11467     11466     11469     11468     11466     11469
     11469     11471     11472     11469     11471     11473     11470     11469     11471
     11471     11473     11474     11471     11473     11475     11471     11473     11476
     11472     11471     11473     11473     11476     11477     11473     11476     11478
     11473     11476     11479     11474     11473     11475     11474     11473     11476
     11475     11473     11476     11476     11479     11480     11476     11479     11481
     11476     11479     11482     11477     11476     11478     11477     11476     11479
     11478     11476     11479     11479     11482     11483     11479     11482     11484
     11479     11482     11485     11480     11479     11481     11480     11479     11482
     11481     11479     11482     11482     11485     11486     11482     11485     11487
     11482     11485     11488     11483     11482     11484     11483     11482     11485
     11484     11482     11485     11485     11488     11489     11485     11488     11490
     11485     11488     11491     11486     11485     11487     11486     11485     11488
     11487     11485     11488     11488     11491     11492     11488     11491     11493
     11488     11491     11494     11489     11488     11490     11489     11488     11491
     11490     11488     11491     11491     11494     11495     11491     11494     11496
     11491     11494     11497     11492     11491     11493     11492     11491     11494
     11493     11491     11494     11495     11494     11496     11495     11494     11497
     11496     11494     11497     11498     11501     11502     11498     11501     11503
     11498     11501     11504     11499     11498     11500     11499     11498     11501
     11500     11498     11501     11501     11504     11505     11501     11504     11506
     11501     11504     11507     11502     11501     11503     11502     11501     11504
     11503     11501     11504     11504     11507     11508     11504     11507     11509
     11504     11507     11510     11505     11504     11506     11505     11504     11507
     11506     11504     11507     11507     11510     11511     11507     11510     11512
     11507     11510     11513     11508     11507     11509     11508     11507     11510
     11509     11507     11510     11510     11513     11514     11510     11513     11515
     11510     11513     11516     11511     11510     11512     11511     11510     11513
     11512     11510     11513     11513     11516     11517     11513     11516     11518
     11513     11516     11519     11514     11513     11515     11514     11513     11516
     11515     11513     11516     11516     11519     11520     11516     11519     11521
     11516     11519     11522     11517     11516     11518     11517     11516     11519
     11518     11516     11519     11519     11522     11523     11519     11522     11524
     11519     11522     11525     11520     11519     11521     11520     11519     11522
     11521     11519     11522     11522     11525     11526     11522     11525     11527
     11522     11525     11528     11523     11522     11524     11523     11522     11525
     11524     11522     11525     11525     11528     11529     11525     11528     11530
     11525     11528     11531     11526     11525     11527     11526     11525     11528
     11527     11525     11528     11528     11531     11532     11528     11531     11533
     11528     11531     11534     11529     11528     11530     11529     11528     11531
     11530     11528     11531     11531     11534     11535     11531     11534     11536
     11531     11534     11537     11532     11531     11533     11532     11531     11534
     11533     11531     11534     11534     11537     11538     11534     11537     11539
     11534     11537     11540     11535     11534     11536     11535     11534     11537
     11536     11534     11537     11538     11537     11539     11538     11537     11540
     11539     11537     11540     11541     11542     11543     11541     11542     11544
     11541     11542     11557     11541     11545     11546     11541     11545     11547
     11541     11545     11548     11541     11549     11550     11541     11549     11551
     11541     11549     11552     11541     11553     11554     11541     11553     11555
     11541     11553     11556     11542     11541     11545     11542     11541     11549
     11542     11541     11553     11542     11557     11558     11542     11557     11559
     11542     11557     11563     11543     11542     11544     11543     11542     11557
     11544     11542     11557     11545     11541     11549     11545     11541     11553
     11546     11545     11547     11546     11545     11548     11547     11545     11548
     11549     11541     11553     11550     11549     11551     11550     11549     11552
     11551     11549     11552     11554     11553     11555     11554     11553     11556
     11555     11553     11556     11557     11563     11560     11558     11557     11559
     11558     11557     11563     11559     11557     11563     11560     11564     11565
     11561     11560     11562     11561     11560     11563     11561     11560     11564
     11562     11560     11563     11562     11560     11564     11563     11560     11564
     11564     11565     11566     11564     11565     11567     11564     11565     11568
     11565     11568     11569     11565     11568     11570     11565     11568     11576
     11566     11565     11567     11566     11565     11568     11567     11565     11568
     11568     11570     11571     11568     11576     11577     11568     11576     11578
     11568     11576     11579     11569     11568     11570     11569     11568     11576
     11570     11568     11576     11570     11571     11572     11570     11571     11573
     11571     11573     11574     11571     11573     11575     11571     11573     11585
     11572     11571     11573     11573     11585     11586     11573     11585     11587
     11573     11585     11588     11574     11573     11575     11574     11573     11585
     11575     11573     11585     11576     11579     11580     11577     11576     11578
     11577     11576     11579     11578     11576     11579     11579     11580     11581
     11579     11580     11582     11580     11582     11583     11580     11582     11584
     11580     11582     11632     11581     11580     11582     11582     11632     11633
     11582     11632     11634     11582     11632     11635     11583     11582     11584
     11583     11582     11632     11584     11582     11632     11585     11588     11589
     11585     11588     11590     11585     11588     11591     11586     11585     11587
     11586     11585     11588     11587     11585     11588     11588     11591     11592
     11588     11591     11593     11588     11591     11594     11589     11588     11590
     11589     11588     11591     11590     11588     11591     11591     11594     11595
     11591     11594     11596     11591     11594     11597     11592     11591     11593
     11592     11591     11594     11593     11591     11594     11594     11597     11598
     11594     11597     11599     11594     11597     11600     11595     11594     11596
     11595     11594     11597     11596     11594     11597     11597     11600     11601
     11597     11600     11602     11597     11600     11603     11598     11597     11599
     11598     11597     11600     11599     11597     11600     11600     11603     11604
     11600     11603     11605     11601     11600     11602     11601     11600     11603
     11602     11600     11603     11603     11605     11606     11603     11605     11607
     11604     11603     11605     11605     11607     11608     11605     11607     11609
     11605     11607     11610     11606     11605     11607     11607     11610     11611
     11607     11610     11612     11607     11610     11613     11608     11607     11609
     11608     11607     11610     11609     11607     11610     11610     11613     11614
     11610     11613     11615     11610     11613     11616     11611     11610     11612
     11611     11610     11613     11612     11610     11613     11613     11616     11617
     11613     11616     11618     11613     11616     11619     11614     11613     11615
     11614     11613     11616     11615     11613     11616     11616     11619     11620
     11616     11619     11621     11616     11619     11622     11617     11616     11618
     11617     11616     11619     11618     11616     11619     11619     11622     11623
     11619     11622     11624     11619     11622     11625     11620     11619     11621
     11620     11619     11622     11621     11619     11622     11622     11625     11626
     11622     11625     11627     11622     11625     11628     11623     11622     11624
     11623     11622     11625     11624     11622     11625     11625     11628     11629
     11625     11628     11630     11625     11628     11631     11626     11625     11627
     11626     11625     11628     11627     11625     11628     11629     11628     11630
     11629     11628     11631     11630     11628     11631     11632     11635     11636
     11632     11635     11637     11632     11635     11638     11633     11632     11634
     11633     11632     11635     11634     11632     11635     11635     11638     11639
     11635     11638     11640     11635     11638     11641     11636     11635     11637
     11636     11635     11638     11637     11635     11638     11638     11641     11642
     11638     11641     11643     11638     11641     11644     11639     11638     11640
     11639     11638     11641     11640     11638     11641     11641     11644     11645
     11641     11644     11646     11641     11644     11647     11642     11641     11643
     11642     11641     11644     11643     11641     11644     11644     11647     11648
     11644     11647     11649     11644     11647     11650     11645     11644     11646
     11645     11644     11647     11646     11644     11647     11647     11650     11651
     11647     11650     11652     11647     11650     11653     11648     11647     11649
     11648     11647     11650     11649     11647     11650     11650     11653     11654
     11650     11653     11655     11650     11653     11656     11651     11650     11652
     11651     11650     11653     11652     11650     11653     11653     11656     11657
     11653     11656     11658     11653     11656     11659     11654     11653     11655
     11654     11653     11656     11655     11653     11656     11656     11659     11660
     11656     11659     11661     11656     11659     11662     11657     11656     11658
     11657     11656     11659     11658     11656     11659     11659     11662     11663
     11659     11662     11664     11659     11662     11665     11660     11659     11661
     11660     11659     11662     11661     11659     11662     11662     11665     11666
     11662     11665     11667     11662     11665     11668     11663     11662     11664
     11663     11662     11665     11664     11662     11665     11665     11668     11669
     11665     11668     11670     11665     11668     11671     11666     11665     11667
     11666     11665     11668     11667     11665     11668     11668     11671     11672
     11668     11671     11673     11668     11671     11674     11669     11668     11670
     11669     11668     11671     11670     11668     11671     11672     11671     11673
     11672     11671     11674     11673     11671     11674     11675     11676     11677
     11675     11676     11678     11675     11676     11691     11675     11679     11680
     11675     11679     11681     11675     11679     11682     11675     11683     11684
     11675     11683     11685     11675     11683     11686     11675     11687     11688
     11675     11687     11689     11675     11687     11690     11676     11675     11679
     11676     11675     11683     11676     11675     11687     11676     11691     11692
     11676     11691     11693     11676     11691     11697     11677     11676     11678
     11677     11676     11691     11678     11676     11691     11679     11675     11683
     11679     11675     11687     11680     11679     11681     11680     11679     11682
     11681     11679     11682     11683     11675     11687     11684     11683     11685
     11684     11683     11686     11685     11683     11686     11688     11687     11689
     11688     11687     11690     11689     11687     11690     11691     11697     11694
     11692     11691     11693     11692     11691     11697     11693     11691     11697
     11694     11698     11699     11695     11694     11696     11695     11694     11697
     11695     11694     11698     11696     11694     11697     11696     11694     11698
     11697     11694     11698     11698     11699     11700     11698     11699     11701
     11698     11699     11702     11699     11702     11703     11699     11702     11704
     11699     11702     11710     11700     11699     11701     11700     11699     11702
     11701     11699     11702     11702     11704     11705     11702     11710     11711
     11702     11710     11712     11702     11710     11713     11703     11702     11704
     11703     11702     11710     11704     11702     11710     11704     11705     11706
     11704     11705     11707     11705     11707     11708     11705     11707     11709
     11705     11707     11719     11706     11705     11707     11707     11719     11720
     11707     11719     11721     11707     11719     11722     11708     11707     11709
     11708     11707     11719     11709     11707     11719     11710     11713     11714
     11711     11710     11712     11711     11710     11713     11712     11710     11713
     11713     11714     11715     11713     11714     11716     11714     11716     11717
     11714     11716     11718     11714     11716     11766     11715     11714     11716
     11716     11766     11767     11716     11766     11768     11716     11766     11769
     11717     11716     11718     11717     11716     11766     11718     11716     11766
     11719     11722     11723     11719     11722     11724     11719     11722     11725
     11720     11719     11721     11720     11719     11722     11721     11719     11722
     11722     11725     11726     11722     11725     11727     11722     11725     11728
     11723     11722     11724     11723     11722     11725     11724     11722     11725
     11725     11728     11729     11725     11728     11730     11725     11728     11731
     11726     11725     11727     11726     11725     11728     11727     11725     11728
     11728     11731     11732     11728     11731     11733     11728     11731     11734
     11729     11728     11730     11729     11728     11731     11730     11728     11731
     11731     11734     11735     11731     11734     11736     11731     11734     11737
     11732     11731     11733     11732     11731     11734     11733     11731     11734
     11734     11737     11738     11734     11737     11739     11735     11734     11736
     11735     11734     11737     11736     11734     11737     11737     11739     11740
     11737     11739     11741     11738     11737     11739     11739     11741     11742
     11739     11741     11743     11739     11741     11744     11740     11739     11741
     11741     11744     11745     11741     11744     11746     11741     11744     11747
     11742     11741     11743     11742     11741     11744     11743     11741     11744
     11744     11747     11748     11744     11747     11749     11744     11747     11750
     11745     11744     11746     11745     11744     11747     11746     11744     11747
     11747     11750     11751     11747     11750     11752     11747     11750     11753
     11748     11747     11749     11748     11747     11750     11749     11747     11750
     11750     11753     11754     11750     11753     11755     11750     11753     11756
     11751     11750     11752     11751     11750     11753     11752     11750     11753
     11753     11756     11757     11753     11756     11758     11753     11756     11759
     11754     11753     11755     11754     11753     11756     11755     11753     11756
     11756     11759     11760     11756     11759     11761     11756     11759     11762
     11757     11756     11758     11757     11756     11759     11758     11756     11759
     11759     11762     11763     11759     11762     11764     11759     11762     11765
     11760     11759     11761     11760     11759     11762     11761     11759     11762
     11763     11762     11764     11763     11762     11765     11764     11762     11765
     11766     11769     11770     11766     11769     11771     11766     11769     11772
     11767     11766     11768     11767     11766     11769     11768     11766     11769
     11769     11772     11773     11769     11772     11774     11769     11772     11775
     11770     11769     11771     11770     11769     11772     11771     11769     11772
     11772     11775     11776     11772     11775     11777     11772     11775     11778
     11773     11772     11774     11773     11772     11775     11774     11772     11775
     11775     11778     11779     11775     11778     11780     11775     11778     11781
     11776     11775     11777     11776     11775     11778     11777     11775     11778
     11778     11781     11782     11778     11781     11783     11778     11781     11784
     11779     11778     11780     11779     11778     11781     11780     11778     11781
     11781     11784     11785     11781     11784     11786     11781     11784     11787
     11782     11781     11783     11782     11781     11784     11783     11781     11784
     11784     11787     11788     11784     11787     11789     11784     11787     11790
     11785     11784     11786     11785     11784     11787     11786     11784     11787
     11787     11790     11791     11787     11790     11792     11787     11790     11793
     11788     11787     11789     11788     11787     11790     11789     11787     11790
     11790     11793     11794     11790     11793     11795     11790     11793     11796
     11791     11790     11792     11791     11790     11793     11792     11790     11793
     11793     11796     11797     11793     11796     11798     11793     11796     11799
     11794     11793     11795     11794     11793     11796     11795     11793     11796
     11796     11799     11800     11796     11799     11801     11796     11799     11802
     11797     11796     11798     11797     11796     11799     11798     11796     11799
     11799     11802     11803     11799     11802     11804     11799     11802     11805
     11800     11799     11801     11800     11799     11802     11801     11799     11802
     11802     11805     11806     11802     11805     11807     11802     11805     11808
     11803     11802     11804     11803     11802     11805     11804     11802     11805
     11806     11805     11807     11806     11805     11808     11807     11805     11808
     11809     11810     11811     11809     11810     11812     11809     11810     11825
     11809     11813     11814     11809     11813     11815     11809     11813     11816
     11809     11817     11818     11809     11817     11819     11809     11817     11820
     11809     11821     11822     11809     11821     11823     11809     11821     11824
     11810     11809     11813     11810     11809     11817     11810     11809     11821
     11810     11825     11826     11810     11825     11827     11810     11825     11831
     11811     11810     11812     11811     11810     11825     11812     11810     11825
     11813     11809     11817     11813     11809     11821     11814     11813     11815
     11814     11813     11816     11815     11813     11816     11817     11809     11821
     11818     11817     11819     11818     11817     11820     11819     11817     11820
     11822     11821     11823     11822     11821     11824     11823     11821     11824
     11825     11831     11828     11826     11825     11827     11826     11825     11831
     11827     11825     11831     11828     11832     11833     11829     11828     11830
     11829     11828     11831     11829     11828     11832     11830     11828     11831
     11830     11828     11832     11831     11828     11832     11832     11833     11834
     11832     11833     11835     11832     11833     11836     11833     11836     11837
     11833     11836     11838     11833     11836     11844     11834     11833     11835
     11834     11833     11836     11835     11833     11836     11836     11838     11839
     11836     11844     11845     11836     11844     11846     11836     11844     11847
     11837     11836     11838     11837     11836     11844     11838     11836     11844
     11838     11839     11840     11838     11839     11841     11839     11841     11842
     11839     11841     11843     11839     11841     11853     11840     11839     11841
     11841     11853     11854     11841     11853     11855     11841     11853     11856
     11842     11841     11843     11842     11841     11853     11843     11841     11853
     11844     11847     11848     11845     11844     11846     11845     11844     11847
     11846     11844     11847     11847     11848     11849     11847     11848     11850
     11848     11850     11851     11848     11850     11852     11848     11850     11900
     11849     11848     11850     11850     11900     11901     11850     11900     11902
     11850     11900     11903     11851     11850     11852     11851     11850     11900
     11852     11850     11900     11853     11856     11857     11853     11856     11858
     11853     11856     11859     11854     11853     11855     11854     11853     11856
     11855     11853     11856     11856     11859     11860     11856     11859     11861
     11856     11859     11862     11857     11856     11858     11857     11856     11859
     11858     11856     11859     11859     11862     11863     11859     11862     11864
     11859     11862     11865     11860     11859     11861     11860     11859     11862
     11861     11859     11862     11862     11865     11866     11862     11865     11867
     11862     11865     11868     11863     11862     11864     11863     11862     11865
     11864     11862     11865     11865     11868     11869     11865     11868     11870
     11865     11868     11871     11866     11865     11867     11866     11865     11868
     11867     11865     11868     11868     11871     11872     11868     11871     11873
     11869     11868     11870     11869     11868     11871     11870     11868     11871
     11871     11873     11874     11871     11873     11875     11872     11871     11873
     11873     11875     11876     11873     11875     11877     11873     11875     11878
     11874     11873     11875     11875     11878     11879     11875     11878     11880
     11875     11878     11881     11876     11875     11877     11876     11875     11878
     11877     11875     11878     11878     11881     11882     11878     11881     11883
     11878     11881     11884     11879     11878     11880     11879     11878     11881
     11880     11878     11881     11881     11884     11885     11881     11884     11886
     11881     11884     11887     11882     11881     11883     11882     11881     11884
     11883     11881     11884     11884     11887     11888     11884     11887     11889
     11884     11887     11890     11885     11884     11886     11885     11884     11887
     11886     11884     11887     11887     11890     11891     11887     11890     11892
     11887     11890     11893     11888     11887     11889     11888     11887     11890
     11889     11887     11890     11890     11893     11894     11890     11893     11895
     11890     11893     11896     11891     11890     11892     11891     11890     11893
     11892     11890     11893     11893     11896     11897     11893     11896     11898
     11893     11896     11899     11894     11893     11895     11894     11893     11896
     11895     11893     11896     11897     11896     11898     11897     11896     11899
     11898     11896     11899     11900     11903     11904     11900     11903     11905
     11900     11903     11906     11901     11900     11902     11901     11900     11903
     11902     11900     11903     11903     11906     11907     11903     11906     11908
     11903     11906     11909     11904     11903     11905     11904     11903     11906
     11905     11903     11906     11906     11909     11910     11906     11909     11911
     11906     11909     11912     11907     11906     11908     11907     11906     11909
     11908     11906     11909     11909     11912     11913     11909     11912     11914
     11909     11912     11915     11910     11909     11911     11910     11909     11912
     11911     11909     11912     11912     11915     11916     11912     11915     11917
     11912     11915     11918     11913     11912     11914     11913     11912     11915
     11914     11912     11915     11915     11918     11919     11915     11918     11920
     11915     11918     11921     11916     11915     11917     11916     11915     11918
     11917     11915     11918     11918     11921     11922     11918     11921     11923
     11918     11921     11924     11919     11918     11920     11919     11918     11921
     11920     11918     11921     11921     11924     11925     11921     11924     11926
     11921     11924     11927     11922     11921     11923     11922     11921     11924
     11923     11921     11924     11924     11927     11928     11924     11927     11929
     11924     11927     11930     11925     11924     11926     11925     11924     11927
     11926     11924     11927     11927     11930     11931     11927     11930     11932
     11927     11930     11933     11928     11927     11929     11928     11927     11930
     11929     11927     11930     11930     11933     11934     11930     11933     11935
     11930     11933     11936     11931     11930     11932     11931     11930     11933
     11932     11930     11933     11933     11936     11937     11933     11936     11938
     11933     11936     11939     11934     11933     11935     11934     11933     11936
     11935     11933     11936     11936     11939     11940     11936     11939     11941
     11936     11939     11942     11937     11936     11938     11937     11936     11939
     11938     11936     11939     11940     11939     11941     11940     11939     11942
     11941     11939     11942     11943     11944     11945     11943     11944     11946
     11943     11944     11959     11943     11947     11948     11943     11947     11949
     11943     11947     11950     11943     11951     11952     11943     11951     11953
     11943     11951     11954     11943     11955     11956     11943     11955     11957
     11943     11955     11958     11944     11943     11947     11944     11943     11951
     11944     11943     11955     11944     11959     11960     11944     11959     11961
     11944     11959     11965     11945     11944     11946     11945     11944     11959
     11946     11944     11959     11947     11943     11951     11947     11943     11955
     11948     11947     11949     11948     11947     11950     11949     11947     11950
     11951     11943     11955     11952     11951     11953     11952     11951     11954
     11953     11951     11954     11956     11955     11957     11956     11955     11958
     11957     11955     11958     11959     11965     11962     11960     11959     11961
     11960     11959     11965     11961     11959     11965     11962     11966     11967
     11963     11962     11964     11963     11962     11965     11963     11962     11966
     11964     11962     11965     11964     11962     11966     11965     11962     11966
     11966     11967     11968     11966     11967     11969     11966     11967     11970
     11967     11970     11971     11967     11970     11972     11967     11970     11978
     11968     11967     11969     11968     11967     11970     11969     11967     11970
     11970     11972     11973     11970     11978     11979     11970     11978     11980
     11970     11978     11981     11971     11970     11972     11971     11970     11978
     11972     11970     11978     11972     11973     11974     11972     11973     11975
     11973     11975     11976     11973     11975     11977     11973     11975     11987
     11974     11973     11975     11975     11987     11988     11975     11987     11989
     11975     11987     11990     11976     11975     11977     11976     11975     11987
     11977     11975     11987     11978     11981     11982     11979     11978     11980
     11979     11978     11981     11980     11978     11981     11981     11982     11983
     11981     11982     11984     11982     11984     11985     11982     11984     11986
     11982     11984     12034     11983     11982     11984     11984     12034     12035
     11984     12034     12036     11984     12034     12037     11985     11984     11986
     11985     11984     12034     11986     11984     12034     11987     11990     11991
     11987     11990     11992     11987     11990     11993     11988     11987     11989
     11988     11987     11990     11989     11987     11990     11990     11993     11994
     11990     11993     11995     11990     11993     11996     11991     11990     11992
     11991     11990     11993     11992     11990     11993     11993     11996     11997
     11993     11996     11998     11993     11996     11999     11994     11993     11995
     11994     11993     11996     11995     11993     11996     11996     11999     12000
     11996     11999     12001     11996     11999     12002     11997     11996     11998
     11997     11996     11999     11998     11996     11999     11999     12002     12003
     11999     12002     12004     11999     12002     12005     12000     11999     12001
     12000     11999     12002     12001     11999     12002     12002     12005     12006
     12002     12005     12007     12003     12002     12004     12003     12002     12005
     12004     12002     12005     12005     12007     12008     12005     12007     12009
     12006     12005     12007     12007     12009     12010     12007     12009     12011
     12007     12009     12012     12008     12007     12009     12009     12012     12013
     12009     12012     12014     12009     12012     12015     12010     12009     12011
     12010     12009     12012     12011     12009     12012     12012     12015     12016
     12012     12015     12017     12012     12015     12018     12013     12012     12014
     12013     12012     12015     12014     12012     12015     12015     12018     12019
     12015     12018     12020     12015     12018     12021     12016     12015     12017
     12016     12015     12018     12017     12015     12018     12018     12021     12022
     12018     12021     12023     12018     12021     12024     12019     12018     12020
     12019     12018     12021     12020     12018     12021     12021     12024     12025
     12021     12024     12026     12021     12024     12027     12022     12021     12023
     12022     12021     12024     12023     12021     12024     12024     12027     12028
     12024     12027     12029     12024     12027     12030     12025     12024     12026
     12025     12024     12027     12026     12024     12027     12027     12030     12031
     12027     12030     12032     12027     12030     12033     12028     12027     12029
     12028     12027     12030     12029     12027     12030     12031     12030     12032
     12031     12030     12033     12032     12030     12033     12034     12037     12038
     12034     12037     12039     12034     12037     12040     12035     12034     12036
     12035     12034     12037     12036     12034     12037     12037     12040     12041
     12037     12040     12042     12037     12040     12043     12038     12037     12039
     12038     12037     12040     12039     12037     12040     12040     12043     12044
     12040     12043     12045     12040     12043     12046     12041     12040     12042
     12041     12040     12043     12042     12040     12043     12043     12046     12047
     12043     12046     12048     12043     12046     12049     12044     12043     12045
     12044     12043     12046     12045     12043     12046     12046     12049     12050
     12046     12049     12051     12046     12049     12052     12047     12046     12048
     12047     12046     12049     12048     12046     12049     12049     12052     12053
     12049     12052     12054     12049     12052     12055     12050     12049     12051
     12050     12049     12052     12051     12049     12052     12052     12055     12056
     12052     12055     12057     12052     12055     12058     12053     12052     12054
     12053     12052     12055     12054     12052     12055     12055     12058     12059
     12055     12058     12060     12055     12058     12061     12056     12055     12057
     12056     12055     12058     12057     12055     12058     12058     12061     12062
     12058     12061     12063     12058     12061     12064     12059     12058     12060
     12059     12058     12061     12060     12058     12061     12061     12064     12065
     12061     12064     12066     12061     12064     12067     12062     12061     12063
     12062     12061     12064     12063     12061     12064     12064     12067     12068
     12064     12067     12069     12064     12067     12070     12065     12064     12066
     12065     12064     12067     12066     12064     12067     12067     12070     12071
     12067     12070     12072     12067     12070     12073     12068     12067     12069
     12068     12067     12070     12069     12067     12070     12070     12073     12074
     12070     12073     12075     12070     12073     12076     12071     12070     12072
     12071     12070     12073     12072     12070     12073     12074     12073     12075
     12074     12073     12076     12075     12073     12076     12077     12078     12079
     12077     12078     12080     12077     12078     12093     12077     12081     12082
     12077     12081     12083     12077     12081     12084     12077     12085     12086
     12077     12085     12087     12077     12085     12088     12077     12089     12090
     12077     12089     12091     12077     12089     12092     12078     12077     12081
     12078     12077     12085     12078     12077     12089     12078     12093     12094
     12078     12093     12095     12078     12093     12099     12079     12078     12080
     12079     12078     12093     12080     12078     12093     12081     12077     12085
     12081     12077     12089     12082     12081     12083     12082     12081     12084
     12083     12081     12084     12085     12077     12089     12086     12085     12087
     12086     12085     12088     12087     12085     12088     12090     12089     12091
     12090     12089     12092     12091     12089     12092     12093     12099     12096
     12094     12093     12095     12094     12093     12099     12095     12093     12099
     12096     12100     12101     12097     12096     12098     12097     12096     12099
     12097     12096     12100     12098     12096     12099     12098     12096     12100
     12099     12096     12100     12100     12101     12102     12100     12101     12103
     12100     12101     12104     12101     12104     12105     12101     12104     12106
     12101     12104     12112     12102     12101     12103     12102     12101     12104
     12103     12101     12104     12104     12106     12107     12104     12112     12113
     12104     12112     12114     12104     12112     12115     12105     12104     12106
     12105     12104     12112     12106     12104     12112     12106     12107     12108
     12106     12107     12109     12107     12109     12110     12107     12109     12111
     12107     12109     12121     12108     12107     12109     12109     12121     12122
     12109     12121     12123     12109     12121     12124     12110     12109     12111
     12110     12109     12121     12111     12109     12121     12112     12115     12116
     12113     12112     12114     12113     12112     12115     12114     12112     12115
     12115     12116     12117     12115     12116     12118     12116     12118     12119
     12116     12118     12120     12116     12118     12168     12117     12116     12118
     12118     12168     12169     12118     12168     12170     12118     12168     12171
     12119     12118     12120     12119     12118     12168     12120     12118     12168
     12121     12124     12125     12121     12124     12126     12121     12124     12127
     12122     12121     12123     12122     12121     12124     12123     12121     12124
     12124     12127     12128     12124     12127     12129     12124     12127     12130
     12125     12124     12126     12125     12124     12127     12126     12124     12127
     12127     12130     12131     12127     12130     12132     12127     12130     12133
     12128     12127     12129     12128     12127     12130     12129     12127     12130
     12130     12133     12134     12130     12133     12135     12130     12133     12136
     12131     12130     12132     12131     12130     12133     12132     12130     12133
     12133     12136     12137     12133     12136     12138     12133     12136     12139
     12134     12133     12135     12134     12133     12136     12135     12133     12136
     12136     12139     12140     12136     12139     12141     12137     12136     12138
     12137     12136     12139     12138     12136     12139     12139     12141     12142
     12139     12141     12143     12140     12139     12141     12141     12143     12144
     12141     12143     12145     12141     12143     12146     12142     12141     12143
     12143     12146     12147     12143     12146     12148     12143     12146     12149
     12144     12143     12145     12144     12143     12146     12145     12143     12146
     12146     12149     12150     12146     12149     12151     12146     12149     12152
     12147     12146     12148     12147     12146     12149     12148     12146     12149
     12149     12152     12153     12149     12152     12154     12149     12152     12155
     12150     12149     12151     12150     12149     12152     12151     12149     12152
     12152     12155     12156     12152     12155     12157     12152     12155     12158
     12153     12152     12154     12153     12152     12155     12154     12152     12155
     12155     12158     12159     12155     12158     12160     12155     12158     12161
     12156     12155     12157     12156     12155     12158     12157     12155     12158
     12158     12161     12162     12158     12161     12163     12158     12161     12164
     12159     12158     12160     12159     12158     12161     12160     12158     12161
     12161     12164     12165     12161     12164     12166     12161     12164     12167
     12162     12161     12163     12162     12161     12164     12163     12161     12164
     12165     12164     12166     12165     12164     12167     12166     12164     12167
     12168     12171     12172     12168     12171     12173     12168     12171     12174
     12169     12168     12170     12169     12168     12171     12170     12168     12171
     12171     12174     12175     12171     12174     12176     12171     12174     12177
     12172     12171     12173     12172     12171     12174     12173     12171     12174
     12174     12177     12178     12174     12177     12179     12174     12177     12180
     12175     12174     12176     12175     12174     12177     12176     12174     12177
     12177     12180     12181     12177     12180     12182     12177     12180     12183
     12178     12177     12179     12178     12177     12180     12179     12177     12180
     12180     12183     12184     12180     12183     12185     12180     12183     12186
     12181     12180     12182     12181     12180     12183     12182     12180     12183
     12183     12186     12187     12183     12186     12188     12183     12186     12189
     12184     12183     12185     12184     12183     12186     12185     12183     12186
     12186     12189     12190     12186     12189     12191     12186     12189     12192
     12187     12186     12188     12187     12186     12189     12188     12186     12189
     12189     12192     12193     12189     12192     12194     12189     12192     12195
     12190     12189     12191     12190     12189     12192     12191     12189     12192
     12192     12195     12196     12192     12195     12197     12192     12195     12198
     12193     12192     12194     12193     12192     12195     12194     12192     12195
     12195     12198     12199     12195     12198     12200     12195     12198     12201
     12196     12195     12197     12196     12195     12198     12197     12195     12198
     12198     12201     12202     12198     12201     12203     12198     12201     12204
     12199     12198     12200     12199     12198     12201     12200     12198     12201
     12201     12204     12205     12201     12204     12206     12201     12204     12207
     12202     12201     12203     12202     12201     12204     12203     12201     12204
     12204     12207     12208     12204     12207     12209     12204     12207     12210
     12205     12204     12206     12205     12204     12207     12206     12204     12207
     12208     12207     12209     12208     12207     12210     12209     12207     12210
     12211     12212     12213     12211     12212     12214     12211     12212     12227
     12211     12215     12216     12211     12215     12217     12211     12215     12218
     12211     12219     12220     12211     12219     12221     12211     12219     12222
     12211     12223     12224     12211     12223     12225     12211     12223     12226
     12212     12211     12215     12212     12211     12219     12212     12211     12223
     12212     12227     12228     12212     12227     12229     12212     12227     12233
     12213     12212     12214     12213     12212     12227     12214     12212     12227
     12215     12211     12219     12215     12211     12223     12216     12215     12217
     12216     12215     12218     12217     12215     12218     12219     12211     12223
     12220     12219     12221     12220     12219     12222     12221     12219     12222
     12224     12223     12225     12224     12223     12226     12225     12223     12226
     12227     12233     12230     12228     12227     12229     12228     12227     12233
     12229     12227     12233     12230     12234     12235     12231     12230     12232
     12231     12230     12233     12231     12230     12234     12232     12230     12233
     12232     12230     12234     12233     12230     12234     12234     12235     12236
     12234     12235     12237     12234     12235     12238     12235     12238     12239
     12235     12238     12240     12235     12238     12246     12236     12235     12237
     12236     12235     12238     12237     12235     12238     12238     12240     12241
     12238     12246     12247     12238     12246     12248     12238     12246     12249
     12239     12238     12240     12239     12238     12246     12240     12238     12246
     12240     12241     12242     12240     12241     12243     12241     12243     12244
     12241     12243     12245     12241     12243     12255     12242     12241     12243
     12243     12255     12256     12243     12255     12257     12243     12255     12258
     12244     12243     12245     12244     12243     12255     12245     12243     12255
     12246     12249     12250     12247     12246     12248     12247     12246     12249
     12248     12246     12249     12249     12250     12251     12249     12250     12252
     12250     12252     12253     12250     12252     12254     12250     12252     12302
     12251     12250     12252     12252     12302     12303     12252     12302     12304
     12252     12302     12305     12253     12252     12254     12253     12252     12302
     12254     12252     12302     12255     12258     12259     12255     12258     12260
     12255     12258     12261     12256     12255     12257     12256     12255     12258
     12257     12255     12258     12258     12261     12262     12258     12261     12263
     12258     12261     12264     12259     12258     12260     12259     12258     12261
     12260     12258     12261     12261     12264     12265     12261     12264     12266
     12261     12264     12267     12262     12261     12263     12262     12261     12264
     12263     12261     12264     12264     12267     12268     12264     12267     12269
     12264     12267     12270     12265     12264     12266     12265     12264     12267
     12266     12264     12267     12267     12270     12271     12267     12270     12272
     12267     12270     12273     12268     12267     12269     12268     12267     12270
     12269     12267     12270     12270     12273     12274     12270     12273     12275
     12271     12270     12272     12271     12270     12273     12272     12270     12273
     12273     12275     12276     12273     12275     12277     12274     12273     12275
     12275     12277     12278     12275     12277     12279     12275     12277     12280
     12276     12275     12277     12277     12280     12281     12277     12280     12282
     12277     12280     12283     12278     12277     12279     12278     12277     12280
     12279     12277     12280     12280     12283     12284     12280     12283     12285
     12280     12283     12286     12281     12280     12282     12281     12280     12283
     12282     12280     12283     12283     12286     12287     12283     12286     12288
     12283     12286     12289     12284     12283     12285     12284     12283     12286
     12285     12283     12286     12286     12289     12290     12286     12289     12291
     12286     12289     12292     12287     12286     12288     12287     12286     12289
     12288     12286     12289     12289     12292     12293     12289     12292     12294
     12289     12292     12295     12290     12289     12291     12290     12289     12292
     12291     12289     12292     12292     12295     12296     12292     12295     12297
     12292     12295     12298     12293     12292     12294     12293     12292     12295
     12294     12292     12295     12295     12298     12299     12295     12298     12300
     12295     12298     12301     12296     12295     12297     12296     12295     12298
     12297     12295     12298     12299     12298     12300     12299     12298     12301
     12300     12298     12301     12302     12305     12306     12302     12305     12307
     12302     12305     12308     12303     12302     12304     12303     12302     12305
     12304     12302     12305     12305     12308     12309     12305     12308     12310
     12305     12308     12311     12306     12305     12307     12306     12305     12308
     12307     12305     12308     12308     12311     12312     12308     12311     12313
     12308     12311     12314     12309     12308     12310     12309     12308     12311
     12310     12308     12311     12311     12314     12315     12311     12314     12316
     12311     12314     12317     12312     12311     12313     12312     12311     12314
     12313     12311     12314     12314     12317     12318     12314     12317     12319
     12314     12317     12320     12315     12314     12316     12315     12314     12317
     12316     12314     12317     12317     12320     12321     12317     12320     12322
     12317     12320     12323     12318     12317     12319     12318     12317     12320
     12319     12317     12320     12320     12323     12324     12320     12323     12325
     12320     12323     12326     12321     12320     12322     12321     12320     12323
     12322     12320     12323     12323     12326     12327     12323     12326     12328
     12323     12326     12329     12324     12323     12325     12324     12323     12326
     12325     12323     12326     12326     12329     12330     12326     12329     12331
     12326     12329     12332     12327     12326     12328     12327     12326     12329
     12328     12326     12329     12329     12332     12333     12329     12332     12334
     12329     12332     12335     12330     12329     12331     12330     12329     12332
     12331     12329     12332     12332     12335     12336     12332     12335     12337
     12332     12335     12338     12333     12332     12334     12333     12332     12335
     12334     12332     12335     12335     12338     12339     12335     12338     12340
     12335     12338     12341     12336     12335     12337     12336     12335     12338
     12337     12335     12338     12338     12341     12342     12338     12341     12343
     12338     12341     12344     12339     12338     12340     12339     12338     12341
     12340     12338     12341     12342     12341     12343     12342     12341     12344
     12343     12341     12344     12345     12346     12347     12345     12346     12348
     12345     12346     12361     12345     12349     12350     12345     12349     12351
     12345     12349     12352     12345     12353     12354     12345     12353     12355
     12345     12353     12356     12345     12357     12358     12345     12357     12359
     12345     12357     12360     12346     12345     12349     12346     12345     12353
     12346     12345     12357     12346     12361     12362     12346     12361     12363
     12346     12361     12367     12347     12346     12348     12347     12346     12361
     12348     12346     12361     12349     12345     12353     12349     12345     12357
     12350     12349     12351     12350     12349     12352     12351     12349     12352
     12353     12345     12357     12354     12353     12355     12354     12353     12356
     12355     12353     12356     12358     12357     12359     12358     12357     12360
     12359     12357     12360     12361     12367     12364     12362     12361     12363
     12362     12361     12367     12363     12361     12367     12364     12368     12369
     12365     12364     12366     12365     12364     12367     12365     12364     12368
     12366     12364     12367     12366     12364     12368     12367     12364     12368
     12368     12369     12370     12368     12369     12371     12368     12369     12372
     12369     12372     12373     12369     12372     12374     12369     12372     12380
     12370     12369     12371     12370     12369     12372     12371     12369     12372
     12372     12374     12375     12372     12380     12381     12372     12380     12382
     12372     12380     12383     12373     12372     12374     12373     12372     12380
     12374     12372     12380     12374     12375     12376     12374     12375     12377
     12375     12377     12378     12375     12377     12379     12375     12377     12389
     12376     12375     12377     12377     12389     12390     12377     12389     12391
     12377     12389     12392     12378     12377     12379     12378     12377     12389
     12379     12377     12389     12380     12383     12384     12381     12380     12382
     12381     12380     12383     12382     12380     12383     12383     12384     12385
     12383     12384     12386     12384     12386     12387     12384     12386     12388
     12384     12386     12436     12385     12384     12386     12386     12436     12437
     12386     12436     12438     12386     12436     12439     12387     12386     12388
     12387     12386     12436     12388     12386     12436     12389     12392     12393
     12389     12392     12394     12389     12392     12395     12390     12389     12391
     12390     12389     12392     12391     12389     12392     12392     12395     12396
     12392     12395     12397     12392     12395     12398     12393     12392     12394
     12393     12392     12395     12394     12392     12395     12395     12398     12399
     12395     12398     12400     12395     12398     12401     12396     12395     12397
     12396     12395     12398     12397     12395     12398     12398     12401     12402
     12398     12401     12403     12398     12401     12404     12399     12398     12400
     12399     12398     12401     12400     12398     12401     12401     12404     12405
     12401     12404     12406     12401     12404     12407     12402     12401     12403
     12402     12401     12404     12403     12401     12404     12404     12407     12408
     12404     12407     12409     12405     12404     12406     12405     12404     12407
     12406     12404     12407     12407     12409     12410     12407     12409     12411
     12408     12407     12409     12409     12411     12412     12409     12411     12413
     12409     12411     12414     12410     12409     12411     12411     12414     12415
     12411     12414     12416     12411     12414     12417     12412     12411     12413
     12412     12411     12414     12413     12411     12414     12414     12417     12418
     12414     12417     12419     12414     12417     12420     12415     12414     12416
     12415     12414     12417     12416     12414     12417     12417     12420     12421
     12417     12420     12422     12417     12420     12423     12418     12417     12419
     12418     12417     12420     12419     12417     12420     12420     12423     12424
     12420     12423     12425     12420     12423     12426     12421     12420     12422
     12421     12420     12423     12422     12420     12423     12423     12426     12427
     12423     12426     12428     12423     12426     12429     12424     12423     12425
     12424     12423     12426     12425     12423     12426     12426     12429     12430
     12426     12429     12431     12426     12429     12432     12427     12426     12428
     12427     12426     12429     12428     12426     12429     12429     12432     12433
     12429     12432     12434     12429     12432     12435     12430     12429     12431
     12430     12429     12432     12431     12429     12432     12433     12432     12434
     12433     12432     12435     12434     12432     12435     12436     12439     12440
     12436     12439     12441     12436     12439     12442     12437     12436     12438
     12437     12436     12439     12438     12436     12439     12439     12442     12443
     12439     12442     12444     12439     12442     12445     12440     12439     12441
     12440     12439     12442     12441     12439     12442     12442     12445     12446
     12442     12445     12447     12442     12445     12448     12443     12442     12444
     12443     12442     12445     12444     12442     12445     12445     12448     12449
     12445     12448     12450     12445     12448     12451     12446     12445     12447
     12446     12445     12448     12447     12445     12448     12448     12451     12452
     12448     12451     12453     12448     12451     12454     12449     12448     12450
     12449     12448     12451     12450     12448     12451     12451     12454     12455
     12451     12454     12456     12451     12454     12457     12452     12451     12453
     12452     12451     12454     12453     12451     12454     12454     12457     12458
     12454     12457     12459     12454     12457     12460     12455     12454     12456
     12455     12454     12457     12456     12454     12457     12457     12460     12461
     12457     12460     12462     12457     12460     12463     12458     12457     12459
     12458     12457     12460     12459     12457     12460     12460     12463     12464
     12460     12463     12465     12460     12463     12466     12461     12460     12462
     12461     12460     12463     12462     12460     12463     12463     12466     12467
     12463     12466     12468     12463     12466     12469     12464     12463     12465
     12464     12463     12466     12465     12463     12466     12466     12469     12470
     12466     12469     12471     12466     12469     12472     12467     12466     12468
     12467     12466     12469     12468     12466     12469     12469     12472     12473
     12469     12472     12474     12469     12472     12475     12470     12469     12471
     12470     12469     12472     12471     12469     12472     12472     12475     12476
     12472     12475     12477     12472     12475     12478     12473     12472     12474
     12473     12472     12475     12474     12472     12475     12476     12475     12477
     12476     12475     12478     12477     12475     12478     12479     12480     12481
     12479     12480     12482     12479     12480     12495     12479     12483     12484
     12479     12483     12485     12479     12483     12486     12479     12487     12488
     12479     12487     12489     12479     12487     12490     12479     12491     12492
     12479     12491     12493     12479     12491     12494     12480     12479     12483
     12480     12479     12487     12480     12479     12491     12480     12495     12496
     12480     12495     12497     12480     12495     12501     12481     12480     12482
     12481     12480     12495     12482     12480     12495     12483     12479     12487
     12483     12479     12491     12484     12483     12485     12484     12483     12486
     12485     12483     12486     12487     12479     12491     12488     12487     12489
     12488     12487     12490     12489     12487     12490     12492     12491     12493
     12492     12491     12494     12493     12491     12494     12495     12501     12498
     12496     12495     12497     12496     12495     12501     12497     12495     12501
     12498     12502     12503     12499     12498     12500     12499     12498     12501
     12499     12498     12502     12500     12498     12501     12500     12498     12502
     12501     12498     12502     12502     12503     12504     12502     12503     12505
     12502     12503     12506     12503     12506     12507     12503     12506     12508
     12503     12506     12514     12504     12503     12505     12504     12503     12506
     12505     12503     12506     12506     12508     12509     12506     12514     12515
     12506     12514     12516     12506     12514     12517     12507     12506     12508
     12507     12506     12514     12508     12506     12514     12508     12509     12510
     12508     12509     12511     12509     12511     12512     12509     12511     12513
     12509     12511     12523     12510     12509     12511     12511     12523     12524
     12511     12523     12525     12511     12523     12526     12512     12511     12513
     12512     12511     12523     12513     12511     12523     12514     12517     12518
     12515     12514     12516     12515     12514     12517     12516     12514     12517
     12517     12518     12519     12517     12518     12520     12518     12520     12521
     12518     12520     12522     12518     12520     12570     12519     12518     12520
     12520     12570     12571     12520     12570     12572     12520     12570     12573
     12521     12520     12522     12521     12520     12570     12522     12520     12570
     12523     12526     12527     12523     12526     12528     12523     12526     12529
     12524     12523     12525     12524     12523     12526     12525     12523     12526
     12526     12529     12530     12526     12529     12531     12526     12529     12532
     12527     12526     12528     12527     12526     12529     12528     12526     12529
     12529     12532     12533     12529     12532     12534     12529     12532     12535
     12530     12529     12531     12530     12529     12532     12531     12529     12532
     12532     12535     12536     12532     12535     12537     12532     12535     12538
     12533     12532     12534     12533     12532     12535     12534     12532     12535
     12535     12538     12539     12535     12538     12540     12535     12538     12541
     12536     12535     12537     12536     12535     12538     12537     12535     12538
     12538     12541     12542     12538     12541     12543     12539     12538     12540
     12539     12538     12541     12540     12538     12541     12541     12543     12544
     12541     12543     12545     12542     12541     12543     12543     12545     12546
     12543     12545     12547     12543     12545     12548     12544     12543     12545
     12545     12548     12549     12545     12548     12550     12545     12548     12551
     12546     12545     12547     12546     12545     12548     12547     12545     12548
     12548     12551     12552     12548     12551     12553     12548     12551     12554
     12549     12548     12550     12549     12548     12551     12550     12548     12551
     12551     12554     12555     12551     12554     12556     12551     12554     12557
     12552     12551     12553     12552     12551     12554     12553     12551     12554
     12554     12557     12558     12554     12557     12559     12554     12557     12560
     12555     12554     12556     12555     12554     12557     12556     12554     12557
     12557     12560     12561     12557     12560     12562     12557     12560     12563
     12558     12557     12559     12558     12557     12560     12559     12557     12560
     12560     12563     12564     12560     12563     12565     12560     12563     12566
     12561     12560     12562     12561     12560     12563     12562     12560     12563
     12563     12566     12567     12563     12566     12568     12563     12566     12569
     12564     12563     12565     12564     12563     12566     12565     12563     12566
     12567     12566     12568     12567     12566     12569     12568     12566     12569
     12570     12573     12574     12570     12573     12575     12570     12573     12576
     12571     12570     12572     12571     12570     12573     12572     12570     12573
     12573     12576     12577     12573     12576     12578     12573     12576     12579
     12574     12573     12575     12574     12573     12576     12575     12573     12576
     12576     12579     12580     12576     12579     12581     12576     12579     12582
     12577     12576     12578     12577     12576     12579     12578     12576     12579
     12579     12582     12583     12579     12582     12584     12579     12582     12585
     12580     12579     12581     12580     12579     12582     12581     12579     12582
     12582     12585     12586     12582     12585     12587     12582     12585     12588
     12583     12582     12584     12583     12582     12585     12584     12582     12585
     12585     12588     12589     12585     12588     12590     12585     12588     12591
     12586     12585     12587     12586     12585     12588     12587     12585     12588
     12588     12591     12592     12588     12591     12593     12588     12591     12594
     12589     12588     12590     12589     12588     12591     12590     12588     12591
     12591     12594     12595     12591     12594     12596     12591     12594     12597
     12592     12591     12593     12592     12591     12594     12593     12591     12594
     12594     12597     12598     12594     12597     12599     12594     12597     12600
     12595     12594     12596     12595     12594     12597     12596     12594     12597
     12597     12600     12601     12597     12600     12602     12597     12600     12603
     12598     12597     12599     12598     12597     12600     12599     12597     12600
     12600     12603     12604     12600     12603     12605     12600     12603     12606
     12601     12600     12602     12601     12600     12603     12602     12600     12603
     12603     12606     12607     12603     12606     12608     12603     12606     12609
     12604     12603     12605     12604     12603     12606     12605     12603     12606
     12606     12609     12610     12606     12609     12611     12606     12609     12612
     12607     12606     12608     12607     12606     12609     12608     12606     12609
     12610     12609     12611     12610     12609     12612     12611     12609     12612
     12613     12614     12615     12613     12614     12616     12613     12614     12629
     12613     12617     12618     12613     12617     12619     12613     12617     12620
     12613     12621     12622     12613     12621     12623     12613     12621     12624
     12613     12625     12626     12613     12625     12627     12613     12625     12628
     12614     12613     12617     12614     12613     12621     12614     12613     12625
     12614     12629     12630     12614     12629     12631     12614     12629     12635
     12615     12614     12616     12615     12614     12629     12616     12614     12629
     12617     12613     12621     12617     12613     12625     12618     12617     12619
     12618     12617     12620     12619     12617     12620     12621     12613     12625
     12622     12621     12623     12622     12621     12624     12623     12621     12624
     12626     12625     12627     12626     12625     12628     12627     12625     12628
     12629     12635     12632     12630     12629     12631     12630     12629     12635
     12631     12629     12635     12632     12636     12637     12633     12632     12634
     12633     12632     12635     12633     12632     12636     12634     12632     12635
     12634     12632     12636     12635     12632     12636     12636     12637     12638
     12636     12637     12639     12636     12637     12640     12637     12640     12641
     12637     12640     12642     12637     12640     12648     12638     12637     12639
     12638     12637     12640     12639     12637     12640     12640     12642     12643
     12640     12648     12649     12640     12648     12650     12640     12648     12651
     12641     12640     12642     12641     12640     12648     12642     12640     12648
     12642     12643     12644     12642     12643     12645     12643     12645     12646
     12643     12645     12647     12643     12645     12657     12644     12643     12645
     12645     12657     12658     12645     12657     12659     12645     12657     12660
     12646     12645     12647     12646     12645     12657     12647     12645     12657
     12648     12651     12652     12649     12648     12650     12649     12648     12651
     12650     12648     12651     12651     12652     12653     12651     12652     12654
     12652     12654     12655     12652     12654     12656     12652     12654     12704
     12653     12652     12654     12654     12704     12705     12654     12704     12706
     12654     12704     12707     12655     12654     12656     12655     12654     12704
     12656     12654     12704     12657     12660     12661     12657     12660     12662
     12657     12660     12663     12658     12657     12659     12658     12657     12660
     12659     12657     12660     12660     12663     12664     12660     12663     12665
     12660     12663     12666     12661     12660     12662     12661     12660     12663
     12662     12660     12663     12663     12666     12667     12663     12666     12668
     12663     12666     12669     12664     12663     12665     12664     12663     12666
     12665     12663     12666     12666     12669     12670     12666     12669     12671
     12666     12669     12672     12667     12666     12668     12667     12666     12669
     12668     12666     12669     12669     12672     12673     12669     12672     12674
     12669     12672     12675     12670     12669     12671     12670     12669     12672
     12671     12669     12672     12672     12675     12676     12672     12675     12677
     12673     12672     12674     12673     12672     12675     12674     12672     12675
     12675     12677     12678     12675     12677     12679     12676     12675     12677
     12677     12679     12680     12677     12679     12681     12677     12679     12682
     12678     12677     12679     12679     12682     12683     12679     12682     12684
     12679     12682     12685     12680     12679     12681     12680     12679     12682
     12681     12679     12682     12682     12685     12686     12682     12685     12687
     12682     12685     12688     12683     12682     12684     12683     12682     12685
     12684     12682     12685     12685     12688     12689     12685     12688     12690
     12685     12688     12691     12686     12685     12687     12686     12685     12688
     12687     12685     12688     12688     12691     12692     12688     12691     12693
     12688     12691     12694     12689     12688     12690     12689     12688     12691
     12690     12688     12691     12691     12694     12695     12691     12694     12696
     12691     12694     12697     12692     12691     12693     12692     12691     12694
     12693     12691     12694     12694     12697     12698     12694     12697     12699
     12694     12697     12700     12695     12694     12696     12695     12694     12697
     12696     12694     12697     12697     12700     12701     12697     12700     12702
     12697     12700     12703     12698     12697     12699     12698     12697     12700
     12699     12697     12700     12701     12700     12702     12701     12700     12703
     12702     12700     12703     12704     12707     12708     12704     12707     12709
     12704     12707     12710     12705     12704     12706     12705     12704     12707
     12706     12704     12707     12707     12710     12711     12707     12710     12712
     12707     12710     12713     12708     12707     12709     12708     12707     12710
     12709     12707     12710     12710     12713     12714     12710     12713     12715
     12710     12713     12716     12711     12710     12712     12711     12710     12713
     12712     12710     12713     12713     12716     12717     12713     12716     12718
     12713     12716     12719     12714     12713     12715     12714     12713     12716
     12715     12713     12716     12716     12719     12720     12716     12719     12721
     12716     12719     12722     12717     12716     12718     12717     12716     12719
     12718     12716     12719     12719     12722     12723     12719     12722     12724
     12719     12722     12725     12720     12719     12721     12720     12719     12722
     12721     12719     12722     12722     12725     12726     12722     12725     12727
     12722     12725     12728     12723     12722     12724     12723     12722     12725
     12724     12722     12725     12725     12728     12729     12725     12728     12730
     12725     12728     12731     12726     12725     12727     12726     12725     12728
     12727     12725     12728     12728     12731     12732     12728     12731     12733
     12728     12731     12734     12729     12728     12730     12729     12728     12731
     12730     12728     12731     12731     12734     12735     12731     12734     12736
     12731     12734     12737     12732     12731     12733     12732     12731     12734
     12733     12731     12734     12734     12737     12738     12734     12737     12739
     12734     12737     12740     12735     12734     12736     12735     12734     12737
     12736     12734     12737     12737     12740     12741     12737     12740     12742
     12737     12740     12743     12738     12737     12739     12738     12737     12740
     12739     12737     12740     12740     12743     12744     12740     12743     12745
     12740     12743     12746     12741     12740     12742     12741     12740     12743
     12742     12740     12743     12744     12743     12745     12744     12743     12746
     12745     12743     12746     12747     12748     12749     12747     12748     12750
     12747     12748     12763     12747     12751     12752     12747     12751     12753
     12747     12751     12754     12747     12755     12756     12747     12755     12757
     12747     12755     12758     12747     12759     12760     12747     12759     12761
     12747     12759     12762     12748     12747     12751     12748     12747     12755
     12748     12747     12759     12748     12763     12764     12748     12763     12765
     12748     12763     12769     12749     12748     12750     12749     12748     12763
     12750     12748     12763     12751     12747     12755     12751     12747     12759
     12752     12751     12753     12752     12751     12754     12753     12751     12754
     12755     12747     12759     12756     12755     12757     12756     12755     12758
     12757     12755     12758     12760     12759     12761     12760     12759     12762
     12761     12759     12762     12763     12769     12766     12764     12763     12765
     12764     12763     12769     12765     12763     12769     12766     12770     12771
     12767     12766     12768     12767     12766     12769     12767     12766     12770
     12768     12766     12769     12768     12766     12770     12769     12766     12770
     12770     12771     12772     12770     12771     12773     12770     12771     12774
     12771     12774     12775     12771     12774     12776     12771     12774     12782
     12772     12771     12773     12772     12771     12774     12773     12771     12774
     12774     12776     12777     12774     12782     12783     12774     12782     12784
     12774     12782     12785     12775     12774     12776     12775     12774     12782
     12776     12774     12782     12776     12777     12778     12776     12777     12779
     12777     12779     12780     12777     12779     12781     12777     12779     12791
     12778     12777     12779     12779     12791     12792     12779     12791     12793
     12779     12791     12794     12780     12779     12781     12780     12779     12791
     12781     12779     12791     12782     12785     12786     12783     12782     12784
     12783     12782     12785     12784     12782     12785     12785     12786     12787
     12785     12786     12788     12786     12788     12789     12786     12788     12790
     12786     12788     12838     12787     12786     12788     12788     12838     12839
     12788     12838     12840     12788     12838     12841     12789     12788     12790
     12789     12788     12838     12790     12788     12838     12791     12794     12795
     12791     12794     12796     12791     12794     12797     12792     12791     12793
     12792     12791     12794     12793     12791     12794     12794     12797     12798
     12794     12797     12799     12794     12797     12800     12795     12794     12796
     12795     12794     12797     12796     12794     12797     12797     12800     12801
     12797     12800     12802     12797     12800     12803     12798     12797     12799
     12798     12797     12800     12799     12797     12800     12800     12803     12804
     12800     12803     12805     12800     12803     12806     12801     12800     12802
     12801     12800     12803     12802     12800     12803     12803     12806     12807
     12803     12806     12808     12803     12806     12809     12804     12803     12805
     12804     12803     12806     12805     12803     12806     12806     12809     12810
     12806     12809     12811     12807     12806     12808     12807     12806     12809
     12808     12806     12809     12809     12811     12812     12809     12811     12813
     12810     12809     12811     12811     12813     12814     12811     12813     12815
     12811     12813     12816     12812     12811     12813     12813     12816     12817
     12813     12816     12818     12813     12816     12819     12814     12813     12815
     12814     12813     12816     12815     12813     12816     12816     12819     12820
     12816     12819     12821     12816     12819     12822     12817     12816     12818
     12817     12816     12819     12818     12816     12819     12819     12822     12823
     12819     12822     12824     12819     12822     12825     12820     12819     12821
     12820     12819     12822     12821     12819     12822     12822     12825     12826
     12822     12825     12827     12822     12825     12828     12823     12822     12824
     12823     12822     12825     12824     12822     12825     12825     12828     12829
     12825     12828     12830     12825     12828     12831     12826     12825     12827
     12826     12825     12828     12827     12825     12828     12828     12831     12832
     12828     12831     12833     12828     12831     12834     12829     12828     12830
     12829     12828     12831     12830     12828     12831     12831     12834     12835
     12831     12834     12836     12831     12834     12837     12832     12831     12833
     12832     12831     12834     12833     12831     12834     12835     12834     12836
     12835     12834     12837     12836     12834     12837     12838     12841     12842
     12838     12841     12843     12838     12841     12844     12839     12838     12840
     12839     12838     12841     12840     12838     12841     12841     12844     12845
     12841     12844     12846     12841     12844     12847     12842     12841     12843
     12842     12841     12844     12843     12841     12844     12844     12847     12848
     12844     12847     12849     12844     12847     12850     12845     12844     12846
     12845     12844     12847     12846     12844     12847     12847     12850     12851
     12847     12850     12852     12847     12850     12853     12848     12847     12849
     12848     12847     12850     12849     12847     12850     12850     12853     12854
     12850     12853     12855     12850     12853     12856     12851     12850     12852
     12851     12850     12853     12852     12850     12853     12853     12856     12857
     12853     12856     12858     12853     12856     12859     12854     12853     12855
     12854     12853     12856     12855     12853     12856     12856     12859     12860
     12856     12859     12861     12856     12859     12862     12857     12856     12858
     12857     12856     12859     12858     12856     12859     12859     12862     12863
     12859     12862     12864     12859     12862     12865     12860     12859     12861
     12860     12859     12862     12861     12859     12862     12862     12865     12866
     12862     12865     12867     12862     12865     12868     12863     12862     12864
     12863     12862     12865     12864     12862     12865     12865     12868     12869
     12865     12868     12870     12865     12868     12871     12866     12865     12867
     12866     12865     12868     12867     12865     12868     12868     12871     12872
     12868     12871     12873     12868     12871     12874     12869     12868     12870
     12869     12868     12871     12870     12868     12871     12871     12874     12875
     12871     12874     12876     12871     12874     12877     12872     12871     12873
     12872     12871     12874     12873     12871     12874     12874     12877     12878
     12874     12877     12879     12874     12877     12880     12875     12874     12876
     12875     12874     12877     12876     12874     12877     12878     12877     12879
     12878     12877     12880     12879     12877     12880     12881     12882     12883
     12881     12882     12884     12881     12882     12897     12881     12885     12886
     12881     12885     12887     12881     12885     12888     12881     12889     12890
     12881     12889     12891     12881     12889     12892     12881     12893     12894
     12881     12893     12895     12881     12893     12896     12882     12881     12885
     12882     12881     12889     12882     12881     12893     12882     12897     12898
     12882     12897     12899     12882     12897     12903     12883     12882     12884
     12883     12882     12897     12884     12882     12897     12885     12881     12889
     12885     12881     12893     12886     12885     12887     12886     12885     12888
     12887     12885     12888     12889     12881     12893     12890     12889     12891
     12890     12889     12892     12891     12889     12892     12894     12893     12895
     12894     12893     12896     12895     12893     12896     12897     12903     12900
     12898     12897     12899     12898     12897     12903     12899     12897     12903
     12900     12904     12905     12901     12900     12902     12901     12900     12903
     12901     12900     12904     12902     12900     12903     12902     12900     12904
     12903     12900     12904     12904     12905     12906     12904     12905     12907
     12904     12905     12908     12905     12908     12909     12905     12908     12910
     12905     12908     12916     12906     12905     12907     12906     12905     12908
     12907     12905     12908     12908     12910     12911     12908     12916     12917
     12908     12916     12918     12908     12916     12919     12909     12908     12910
     12909     12908     12916     12910     12908     12916     12910     12911     12912
     12910     12911     12913     12911     12913     12914     12911     12913     12915
     12911     12913     12925     12912     12911     12913     12913     12925     12926
     12913     12925     12927     12913     12925     12928     12914     12913     12915
     12914     12913     12925     12915     12913     12925     12916     12919     12920
     12917     12916     12918     12917     12916     12919     12918     12916     12919
     12919     12920     12921     12919     12920     12922     12920     12922     12923
     12920     12922     12924     12920     12922     12972     12921     12920     12922
     12922     12972     12973     12922     12972     12974     12922     12972     12975
     12923     12922     12924     12923     12922     12972     12924     12922     12972
     12925     12928     12929     12925     12928     12930     12925     12928     12931
     12926     12925     12927     12926     12925     12928     12927     12925     12928
     12928     12931     12932     12928     12931     12933     12928     12931     12934
     12929     12928     12930     12929     12928     12931     12930     12928     12931
     12931     12934     12935     12931     12934     12936     12931     12934     12937
     12932     12931     12933     12932     12931     12934     12933     12931     12934
     12934     12937     12938     12934     12937     12939     12934     12937     12940
     12935     12934     12936     12935     12934     12937     12936     12934     12937
     12937     12940     12941     12937     12940     12942     12937     12940     12943
     12938     12937     12939     12938     12937     12940     12939     12937     12940
     12940     12943     12944     12940     12943     12945     12941     12940     12942
     12941     12940     12943     12942     12940     12943     12943     12945     12946
     12943     12945     12947     12944     12943     12945     12945     12947     12948
     12945     12947     12949     12945     12947     12950     12946     12945     12947
     12947     12950     12951     12947     12950     12952     12947     12950     12953
     12948     12947     12949     12948     12947     12950     12949     12947     12950
     12950     12953     12954     12950     12953     12955     12950     12953     12956
     12951     12950     12952     12951     12950     12953     12952     12950     12953
     12953     12956     12957     12953     12956     12958     12953     12956     12959
     12954     12953     12955     12954     12953     12956     12955     12953     12956
     12956     12959     12960     12956     12959     12961     12956     12959     12962
     12957     12956     12958     12957     12956     12959     12958     12956     12959
     12959     12962     12963     12959     12962     12964     12959     12962     12965
     12960     12959     12961     12960     12959     12962     12961     12959     12962
     12962     12965     12966     12962     12965     12967     12962     12965     12968
     12963     12962     12964     12963     12962     12965     12964     12962     12965
     12965     12968     12969     12965     12968     12970     12965     12968     12971
     12966     12965     12967     12966     12965     12968     12967     12965     12968
     12969     12968     12970     12969     12968     12971     12970     12968     12971
     12972     12975     12976     12972     12975     12977     12972     12975     12978
     12973     12972     12974     12973     12972     12975     12974     12972     12975
     12975     12978     12979     12975     12978     12980     12975     12978     12981
     12976     12975     12977     12976     12975     12978     12977     12975     12978
     12978     12981     12982     12978     12981     12983     12978     12981     12984
     12979     12978     12980     12979     12978     12981     12980     12978     12981
     12981     12984     12985     12981     12984     12986     12981     12984     12987
     12982     12981     12983     12982     12981     12984     12983     12981     12984
     12984     12987     12988     12984     12987     12989     12984     12987     12990
     12985     12984     12986     12985     12984     12987     12986     12984     12987
     12987     12990     12991     12987     12990     12992     12987     12990     12993
     12988     12987     12989     12988     12987     12990     12989     12987     12990
     12990     12993     12994     12990     12993     12995     12990     12993     12996
     12991     12990     12992     12991     12990     12993     12992     12990     12993
     12993     12996     12997     12993     12996     12998     12993     12996     12999
     12994     12993     12995     12994     12993     12996     12995     12993     12996
     12996     12999     13000     12996     12999     13001     12996     12999     13002
     12997     12996     12998     12997     12996     12999     12998     12996     12999
     12999     13002     13003     12999     13002     13004     12999     13002     13005
     13000     12999     13001     13000     12999     13002     13001     12999     13002
     13002     13005     13006     13002     13005     13007     13002     13005     13008
     13003     13002     13004     13003     13002     13005     13004     13002     13005
     13005     13008     13009     13005     13008     13010     13005     13008     13011
     13006     13005     13007     13006     13005     13008     13007     13005     13008
     13008     13011     13012     13008     13011     13013     13008     13011     13014
     13009     13008     13010     13009     13008     13011     13010     13008     13011
     13012     13011     13013     13012     13011     13014     13013     13011     13014
     13015     13016     13017     13015     13016     13018     13015     13016     13031
     13015     13019     13020     13015     13019     13021     13015     13019     13022
     13015     13023     13024     13015     13023     13025     13015     13023     13026
     13015     13027     13028     13015     13027     13029     13015     13027     13030
     13016     13015     13019     13016     13015     13023     13016     13015     13027
     13016     13031     13032     13016     13031     13033     13016     13031     13037
     13017     13016     13018     13017     13016     13031     13018     13016     13031
     13019     13015     13023     13019     13015     13027     13020     13019     13021
     13020     13019     13022     13021     13019     13022     13023     13015     13027
     13024     13023     13025     13024     13023     13026     13025     13023     13026
     13028     13027     13029     13028     13027     13030     13029     13027     13030
     13031     13037     13034     13032     13031     13033     13032     13031     13037
     13033     13031     13037     13034     13038     13039     13035     13034     13036
     13035     13034     13037     13035     13034     13038     13036     13034     13037
     13036     13034     13038     13037     13034     13038     13038     13039     13040
     13038     13039     13041     13038     13039     13042     13039     13042     13043
     13039     13042     13044     13039     13042     13050     13040     13039     13041
     13040     13039     13042     13041     13039     13042     13042     13044     13045
     13042     13050     13051     13042     13050     13052     13042     13050     13053
     13043     13042     13044     13043     13042     13050     13044     13042     13050
     13044     13045     13046     13044     13045     13047     13045     13047     13048
     13045     13047     13049     13045     13047     13059     13046     13045     13047
     13047     13059     13060     13047     13059     13061     13047     13059     13062
     13048     13047     13049     13048     13047     13059     13049     13047     13059
     13050     13053     13054     13051     13050     13052     13051     13050     13053
     13052     13050     13053     13053     13054     13055     13053     13054     13056
     13054     13056     13057     13054     13056     13058     13054     13056     13106
     13055     13054     13056     13056     13106     13107     13056     13106     13108
     13056     13106     13109     13057     13056     13058     13057     13056     13106
     13058     13056     13106     13059     13062     13063     13059     13062     13064
     13059     13062     13065     13060     13059     13061     13060     13059     13062
     13061     13059     13062     13062     13065     13066     13062     13065     13067
     13062     13065     13068     13063     13062     13064     13063     13062     13065
     13064     13062     13065     13065     13068     13069     13065     13068     13070
     13065     13068     13071     13066     13065     13067     13066     13065     13068
     13067     13065     13068     13068     13071     13072     13068     13071     13073
     13068     13071     13074     13069     13068     13070     13069     13068     13071
     13070     13068     13071     13071     13074     13075     13071     13074     13076
     13071     13074     13077     13072     13071     13073     13072     13071     13074
     13073     13071     13074     13074     13077     13078     13074     13077     13079
     13075     13074     13076     13075     13074     13077     13076     13074     13077
     13077     13079     13080     13077     13079     13081     13078     13077     13079
     13079     13081     13082     13079     13081     13083     13079     13081     13084
     13080     13079     13081     13081     13084     13085     13081     13084     13086
     13081     13084     13087     13082     13081     13083     13082     13081     13084
     13083     13081     13084     13084     13087     13088     13084     13087     13089
     13084     13087     13090     13085     13084     13086     13085     13084     13087
     13086     13084     13087     13087     13090     13091     13087     13090     13092
     13087     13090     13093     13088     13087     13089     13088     13087     13090
     13089     13087     13090     13090     13093     13094     13090     13093     13095
     13090     13093     13096     13091     13090     13092     13091     13090     13093
     13092     13090     13093     13093     13096     13097     13093     13096     13098
     13093     13096     13099     13094     13093     13095     13094     13093     13096
     13095     13093     13096     13096     13099     13100     13096     13099     13101
     13096     13099     13102     13097     13096     13098     13097     13096     13099
     13098     13096     13099     13099     13102     13103     13099     13102     13104
     13099     13102     13105     13100     13099     13101     13100     13099     13102
     13101     13099     13102     13103     13102     13104     13103     13102     13105
     13104     13102     13105     13106     13109     13110     13106     13109     13111
     13106     13109     13112     13107     13106     13108     13107     13106     13109
     13108     13106     13109     13109     13112     13113     13109     13112     13114
     13109     13112     13115     13110     13109     13111     13110     13109     13112
     13111     13109     13112     13112     13115     13116     13112     13115     13117
     13112     13115     13118     13113     13112     13114     13113     13112     13115
     13114     13112     13115     13115     13118     13119     13115     13118     13120
     13115     13118     13121     13116     13115     13117     13116     13115     13118
     13117     13115     13118     13118     13121     13122     13118     13121     13123
     13118     13121     13124     13119     13118     13120     13119     13118     13121
     13120     13118     13121     13121     13124     13125     13121     13124     13126
     13121     13124     13127     13122     13121     13123     13122     13121     13124
     13123     13121     13124     13124     13127     13128     13124     13127     13129
     13124     13127     13130     13125     13124     13126     13125     13124     13127
     13126     13124     13127     13127     13130     13131     13127     13130     13132
     13127     13130     13133     13128     13127     13129     13128     13127     13130
     13129     13127     13130     13130     13133     13134     13130     13133     13135
     13130     13133     13136     13131     13130     13132     13131     13130     13133
     13132     13130     13133     13133     13136     13137     13133     13136     13138
     13133     13136     13139     13134     13133     13135     13134     13133     13136
     13135     13133     13136     13136     13139     13140     13136     13139     13141
     13136     13139     13142     13137     13136     13138     13137     13136     13139
     13138     13136     13139     13139     13142     13143     13139     13142     13144
     13139     13142     13145     13140     13139     13141     13140     13139     13142
     13141     13139     13142     13142     13145     13146     13142     13145     13147
     13142     13145     13148     13143     13142     13144     13143     13142     13145
     13144     13142     13145     13146     13145     13147     13146     13145     13148
     13147     13145     13148     13149     13150     13151     13149     13150     13152
     13149     13150     13165     13149     13153     13154     13149     13153     13155
     13149     13153     13156     13149     13157     13158     13149     13157     13159
     13149     13157     13160     13149     13161     13162     13149     13161     13163
     13149     13161     13164     13150     13149     13153     13150     13149     13157
     13150     13149     13161     13150     13165     13166     13150     13165     13167
     13150     13165     13171     13151     13150     13152     13151     13150     13165
     13152     13150     13165     13153     13149     13157     13153     13149     13161
     13154     13153     13155     13154     13153     13156     13155     13153     13156
     13157     13149     13161     13158     13157     13159     13158     13157     13160
     13159     13157     13160     13162     13161     13163     13162     13161     13164
     13163     13161     13164     13165     13171     13168     13166     13165     13167
     13166     13165     13171     13167     13165     13171     13168     13172     13173
     13169     13168     13170     13169     13168     13171     13169     13168     13172
     13170     13168     13171     13170     13168     13172     13171     13168     13172
     13172     13173     13174     13172     13173     13175     13172     13173     13176
     13173     13176     13177     13173     13176     13178     13173     13176     13184
     13174     13173     13175     13174     13173     13176     13175     13173     13176
     13176     13178     13179     13176     13184     13185     13176     13184     13186
     13176     13184     13187     13177     13176     13178     13177     13176     13184
     13178     13176     13184     13178     13179     13180     13178     13179     13181
     13179     13181     13182     13179     13181     13183     13179     13181     13193
     13180     13179     13181     13181     13193     13194     13181     13193     13195
     13181     13193     13196     13182     13181     13183     13182     13181     13193
     13183     13181     13193     13184     13187     13188     13185     13184     13186
     13185     13184     13187     13186     13184     13187     13187     13188     13189
     13187     13188     13190     13188     13190     13191     13188     13190     13192
     13188     13190     13240     13189     13188     13190     13190     13240     13241
     13190     13240     13242     13190     13240     13243     13191     13190     13192
     13191     13190     13240     13192     13190     13240     13193     13196     13197
     13193     13196     13198     13193     13196     13199     13194     13193     13195
     13194     13193     13196     13195     13193     13196     13196     13199     13200
     13196     13199     13201     13196     13199     13202     13197     13196     13198
     13197     13196     13199     13198     13196     13199     13199     13202     13203
     13199     13202     13204     13199     13202     13205     13200     13199     13201
     13200     13199     13202     13201     13199     13202     13202     13205     13206
     13202     13205     13207     13202     13205     13208     13203     13202     13204
     13203     13202     13205     13204     13202     13205     13205     13208     13209
     13205     13208     13210     13205     13208     13211     13206     13205     13207
     13206     13205     13208     13207     13205     13208     13208     13211     13212
     13208     13211     13213     13209     13208     13210     13209     13208     13211
     13210     13208     13211     13211     13213     13214     13211     13213     13215
     13212     13211     13213     13213     13215     13216     13213     13215     13217
     13213     13215     13218     13214     13213     13215     13215     13218     13219
     13215     13218     13220     13215     13218     13221     13216     13215     13217
     13216     13215     13218     13217     13215     13218     13218     13221     13222
     13218     13221     13223     13218     13221     13224     13219     13218     13220
     13219     13218     13221     13220     13218     13221     13221     13224     13225
     13221     13224     13226     13221     13224     13227     13222     13221     13223
     13222     13221     13224     13223     13221     13224     13224     13227     13228
     13224     13227     13229     13224     13227     13230     13225     13224     13226
     13225     13224     13227     13226     13224     13227     13227     13230     13231
     13227     13230     13232     13227     13230     13233     13228     13227     13229
     13228     13227     13230     13229     13227     13230     13230     13233     13234
     13230     13233     13235     13230     13233     13236     13231     13230     13232
     13231     13230     13233     13232     13230     13233     13233     13236     13237
     13233     13236     13238     13233     13236     13239     13234     13233     13235
     13234     13233     13236     13235     13233     13236     13237     13236     13238
     13237     13236     13239     13238     13236     13239     13240     13243     13244
     13240     13243     13245     13240     13243     13246     13241     13240     13242
     13241     13240     13243     13242     13240     13243     13243     13246     13247
     13243     13246     13248     13243     13246     13249     13244     13243     13245
     13244     13243     13246     13245     13243     13246     13246     13249     13250
     13246     13249     13251     13246     13249     13252     13247     13246     13248
     13247     13246     13249     13248     13246     13249     13249     13252     13253
     13249     13252     13254     13249     13252     13255     13250     13249     13251
     13250     13249     13252     13251     13249     13252     13252     13255     13256
     13252     13255     13257     13252     13255     13258     13253     13252     13254
     13253     13252     13255     13254     13252     13255     13255     13258     13259
     13255     13258     13260     13255     13258     13261     13256     13255     13257
     13256     13255     13258     13257     13255     13258     13258     13261     13262
     13258     13261     13263     13258     13261     13264     13259     13258     13260
     13259     13258     13261     13260     13258     13261     13261     13264     13265
     13261     13264     13266     13261     13264     13267     13262     13261     13263
     13262     13261     13264     13263     13261     13264     13264     13267     13268
     13264     13267     13269     13264     13267     13270     13265     13264     13266
     13265     13264     13267     13266     13264     13267     13267     13270     13271
     13267     13270     13272     13267     13270     13273     13268     13267     13269
     13268     13267     13270     13269     13267     13270     13270     13273     13274
     13270     13273     13275     13270     13273     13276     13271     13270     13272
     13271     13270     13273     13272     13270     13273     13273     13276     13277
     13273     13276     13278     13273     13276     13279     13274     13273     13275
     13274     13273     13276     13275     13273     13276     13276     13279     13280
     13276     13279     13281     13276     13279     13282     13277     13276     13278
     13277     13276     13279     13278     13276     13279     13280     13279     13281
     13280     13279     13282     13281     13279     13282     13283     13284     13285
     13283     13284     13286     13283     13284     13299     13283     13287     13288
     13283     13287     13289     13283     13287     13290     13283     13291     13292
     13283     13291     13293     13283     13291     13294     13283     13295     13296
     13283     13295     13297     13283     13295     13298     13284     13283     13287
     13284     13283     13291     13284     13283     13295     13284     13299     13300
     13284     13299     13301     13284     13299     13305     13285     13284     13286
     13285     13284     13299     13286     13284     13299     13287     13283     13291
     13287     13283     13295     13288     13287     13289     13288     13287     13290
     13289     13287     13290     13291     13283     13295     13292     13291     13293
     13292     13291     13294     13293     13291     13294     13296     13295     13297
     13296     13295     13298     13297     13295     13298     13299     13305     13302
     13300     13299     13301     13300     13299     13305     13301     13299     13305
     13302     13306     13307     13303     13302     13304     13303     13302     13305
     13303     13302     13306     13304     13302     13305     13304     13302     13306
     13305     13302     13306     13306     13307     13308     13306     13307     13309
     13306     13307     13310     13307     13310     13311     13307     13310     13312
     13307     13310     13318     13308     13307     13309     13308     13307     13310
     13309     13307     13310     13310     13312     13313     13310     13318     13319
     13310     13318     13320     13310     13318     13321     13311     13310     13312
     13311     13310     13318     13312     13310     13318     13312     13313     13314
     13312     13313     13315     13313     13315     13316     13313     13315     13317
     13313     13315     13327     13314     13313     13315     13315     13327     13328
     13315     13327     13329     13315     13327     13330     13316     13315     13317
     13316     13315     13327     13317     13315     13327     13318     13321     13322
     13319     13318     13320     13319     13318     13321     13320     13318     13321
     13321     13322     13323     13321     13322     13324     13322     13324     13325
     13322     13324     13326     13322     13324     13374     13323     13322     13324
     13324     13374     13375     13324     13374     13376     13324     13374     13377
     13325     13324     13326     13325     13324     13374     13326     13324     13374
     13327     13330     13331     13327     13330     13332     13327     13330     13333
     13328     13327     13329     13328     13327     13330     13329     13327     13330
     13330     13333     13334     13330     13333     13335     13330     13333     13336
     13331     13330     13332     13331     13330     13333     13332     13330     13333
     13333     13336     13337     13333     13336     13338     13333     13336     13339
     13334     13333     13335     13334     13333     13336     13335     13333     13336
     13336     13339     13340     13336     13339     13341     13336     13339     13342
     13337     13336     13338     13337     13336     13339     13338     13336     13339
     13339     13342     13343     13339     13342     13344     13339     13342     13345
     13340     13339     13341     13340     13339     13342     13341     13339     13342
     13342     13345     13346     13342     13345     13347     13343     13342     13344
     13343     13342     13345     13344     13342     13345     13345     13347     13348
     13345     13347     13349     13346     13345     13347     13347     13349     13350
     13347     13349     13351     13347     13349     13352     13348     13347     13349
     13349     13352     13353     13349     13352     13354     13349     13352     13355
     13350     13349     13351     13350     13349     13352     13351     13349     13352
     13352     13355     13356     13352     13355     13357     13352     13355     13358
     13353     13352     13354     13353     13352     13355     13354     13352     13355
     13355     13358     13359     13355     13358     13360     13355     13358     13361
     13356     13355     13357     13356     13355     13358     13357     13355     13358
     13358     13361     13362     13358     13361     13363     13358     13361     13364
     13359     13358     13360     13359     13358     13361     13360     13358     13361
     13361     13364     13365     13361     13364     13366     13361     13364     13367
     13362     13361     13363     13362     13361     13364     13363     13361     13364
     13364     13367     13368     13364     13367     13369     13364     13367     13370
     13365     13364     13366     13365     13364     13367     13366     13364     13367
     13367     13370     13371     13367     13370     13372     13367     13370     13373
     13368     13367     13369     13368     13367     13370     13369     13367     13370
     13371     13370     13372     13371     13370     13373     13372     13370     13373
     13374     13377     13378     13374     13377     13379     13374     13377     13380
     13375     13374     13376     13375     13374     13377     13376     13374     13377
     13377     13380     13381     13377     13380     13382     13377     13380     13383
     13378     13377     13379     13378     13377     13380     13379     13377     13380
     13380     13383     13384     13380     13383     13385     13380     13383     13386
     13381     13380     13382     13381     13380     13383     13382     13380     13383
     13383     13386     13387     13383     13386     13388     13383     13386     13389
     13384     13383     13385     13384     13383     13386     13385     13383     13386
     13386     13389     13390     13386     13389     13391     13386     13389     13392
     13387     13386     13388     13387     13386     13389     13388     13386     13389
     13389     13392     13393     13389     13392     13394     13389     13392     13395
     13390     13389     13391     13390     13389     13392     13391     13389     13392
     13392     13395     13396     13392     13395     13397     13392     13395     13398
     13393     13392     13394     13393     13392     13395     13394     13392     13395
     13395     13398     13399     13395     13398     13400     13395     13398     13401
     13396     13395     13397     13396     13395     13398     13397     13395     13398
     13398     13401     13402     13398     13401     13403     13398     13401     13404
     13399     13398     13400     13399     13398     13401     13400     13398     13401
     13401     13404     13405     13401     13404     13406     13401     13404     13407
     13402     13401     13403     13402     13401     13404     13403     13401     13404
     13404     13407     13408     13404     13407     13409     13404     13407     13410
     13405     13404     13406     13405     13404     13407     13406     13404     13407
     13407     13410     13411     13407     13410     13412     13407     13410     13413
     13408     13407     13409     13408     13407     13410     13409     13407     13410
     13410     13413     13414     13410     13413     13415     13410     13413     13416
     13411     13410     13412     13411     13410     13413     13412     13410     13413
     13414     13413     13415     13414     13413     13416     13415     13413     13416
     13417     13418     13419     13417     13418     13420     13417     13418     13433
     13417     13421     13422     13417     13421     13423     13417     13421     13424
     13417     13425     13426     13417     13425     13427     13417     13425     13428
     13417     13429     13430     13417     13429     13431     13417     13429     13432
     13418     13417     13421     13418     13417     13425     13418     13417     13429
     13418     13433     13434     13418     13433     13435     13418     13433     13439
     13419     13418     13420     13419     13418     13433     13420     13418     13433
     13421     13417     13425     13421     13417     13429     13422     13421     13423
     13422     13421     13424     13423     13421     13424     13425     13417     13429
     13426     13425     13427     13426     13425     13428     13427     13425     13428
     13430     13429     13431     13430     13429     13432     13431     13429     13432
     13433     13439     13436     13434     13433     13435     13434     13433     13439
     13435     13433     13439     13436     13440     13441     13437     13436     13438
     13437     13436     13439     13437     13436     13440     13438     13436     13439
     13438     13436     13440     13439     13436     13440     13440     13441     13442
     13440     13441     13443     13440     13441     13444     13441     13444     13445
     13441     13444     13446     13441     13444     13452     13442     13441     13443
     13442     13441     13444     13443     13441     13444     13444     13446     13447
     13444     13452     13453     13444     13452     13454     13444     13452     13455
     13445     13444     13446     13445     13444     13452     13446     13444     13452
     13446     13447     13448     13446     13447     13449     13447     13449     13450
     13447     13449     13451     13447     13449     13461     13448     13447     13449
     13449     13461     13462     13449     13461     13463     13449     13461     13464
     13450     13449     13451     13450     13449     13461     13451     13449     13461
     13452     13455     13456     13453     13452     13454     13453     13452     13455
     13454     13452     13455     13455     13456     13457     13455     13456     13458
     13456     13458     13459     13456     13458     13460     13456     13458     13508
     13457     13456     13458     13458     13508     13509     13458     13508     13510
     13458     13508     13511     13459     13458     13460     13459     13458     13508
     13460     13458     13508     13461     13464     13465     13461     13464     13466
     13461     13464     13467     13462     13461     13463     13462     13461     13464
     13463     13461     13464     13464     13467     13468     13464     13467     13469
     13464     13467     13470     13465     13464     13466     13465     13464     13467
     13466     13464     13467     13467     13470     13471     13467     13470     13472
     13467     13470     13473     13468     13467     13469     13468     13467     13470
     13469     13467     13470     13470     13473     13474     13470     13473     13475
     13470     13473     13476     13471     13470     13472     13471     13470     13473
     13472     13470     13473     13473     13476     13477     13473     13476     13478
     13473     13476     13479     13474     13473     13475     13474     13473     13476
     13475     13473     13476     13476     13479     13480     13476     13479     13481
     13477     13476     13478     13477     13476     13479     13478     13476     13479
     13479     13481     13482     13479     13481     13483     13480     13479     13481
     13481     13483     13484     13481     13483     13485     13481     13483     13486
     13482     13481     13483     13483     13486     13487     13483     13486     13488
     13483     13486     13489     13484     13483     13485     13484     13483     13486
     13485     13483     13486     13486     13489     13490     13486     13489     13491
     13486     13489     13492     13487     13486     13488     13487     13486     13489
     13488     13486     13489     13489     13492     13493     13489     13492     13494
     13489     13492     13495     13490     13489     13491     13490     13489     13492
     13491     13489     13492     13492     13495     13496     13492     13495     13497
     13492     13495     13498     13493     13492     13494     13493     13492     13495
     13494     13492     13495     13495     13498     13499     13495     13498     13500
     13495     13498     13501     13496     13495     13497     13496     13495     13498
     13497     13495     13498     13498     13501     13502     13498     13501     13503
     13498     13501     13504     13499     13498     13500     13499     13498     13501
     13500     13498     13501     13501     13504     13505     13501     13504     13506
     13501     13504     13507     13502     13501     13503     13502     13501     13504
     13503     13501     13504     13505     13504     13506     13505     13504     13507
     13506     13504     13507     13508     13511     13512     13508     13511     13513
     13508     13511     13514     13509     13508     13510     13509     13508     13511
     13510     13508     13511     13511     13514     13515     13511     13514     13516
     13511     13514     13517     13512     13511     13513     13512     13511     13514
     13513     13511     13514     13514     13517     13518     13514     13517     13519
     13514     13517     13520     13515     13514     13516     13515     13514     13517
     13516     13514     13517     13517     13520     13521     13517     13520     13522
     13517     13520     13523     13518     13517     13519     13518     13517     13520
     13519     13517     13520     13520     13523     13524     13520     13523     13525
     13520     13523     13526     13521     13520     13522     13521     13520     13523
     13522     13520     13523     13523     13526     13527     13523     13526     13528
     13523     13526     13529     13524     13523     13525     13524     13523     13526
     13525     13523     13526     13526     13529     13530     13526     13529     13531
     13526     13529     13532     13527     13526     13528     13527     13526     13529
     13528     13526     13529     13529     13532     13533     13529     13532     13534
     13529     13532     13535     13530     13529     13531     13530     13529     13532
     13531     13529     13532     13532     13535     13536     13532     13535     13537
     13532     13535     13538     13533     13532     13534     13533     13532     13535
     13534     13532     13535     13535     13538     13539     13535     13538     13540
     13535     13538     13541     13536     13535     13537     13536     13535     13538
     13537     13535     13538     13538     13541     13542     13538     13541     13543
     13538     13541     13544     13539     13538     13540     13539     13538     13541
     13540     13538     13541     13541     13544     13545     13541     13544     13546
     13541     13544     13547     13542     13541     13543     13542     13541     13544
     13543     13541     13544     13544     13547     13548     13544     13547     13549
     13544     13547     13550     13545     13544     13546     13545     13544     13547
     13546     13544     13547     13548     13547     13549     13548     13547     13550
     13549     13547     13550     13551     13552     13553     13551     13552     13554
     13551     13552     13567     13551     13555     13556     13551     13555     13557
     13551     13555     13558     13551     13559     13560     13551     13559     13561
     13551     13559     13562     13551     13563     13564     13551     13563     13565
     13551     13563     13566     13552     13551     13555     13552     13551     13559
     13552     13551     13563     13552     13567     13568     13552     13567     13569
     13552     13567     13573     13553     13552     13554     13553     13552     13567
     13554     13552     13567     13555     13551     13559     13555     13551     13563
     13556     13555     13557     13556     13555     13558     13557     13555     13558
     13559     13551     13563     13560     13559     13561     13560     13559     13562
     13561     13559     13562     13564     13563     13565     13564     13563     13566
     13565     13563     13566     13567     13573     13570     13568     13567     13569
     13568     13567     13573     13569     13567     13573     13570     13574     13575
     13571     13570     13572     13571     13570     13573     13571     13570     13574
     13572     13570     13573     13572     13570     13574     13573     13570     13574
     13574     13575     13576     13574     13575     13577     13574     13575     13578
     13575     13578     13579     13575     13578     13580     13575     13578     13586
     13576     13575     13577     13576     13575     13578     13577     13575     13578
     13578     13580     13581     13578     13586     13587     13578     13586     13588
     13578     13586     13589     13579     13578     13580     13579     13578     13586
     13580     13578     13586     13580     13581     13582     13580     13581     13583
     13581     13583     13584     13581     13583     13585     13581     13583     13595
     13582     13581     13583     13583     13595     13596     13583     13595     13597
     13583     13595     13598     13584     13583     13585     13584     13583     13595
     13585     13583     13595     13586     13589     13590     13587     13586     13588
     13587     13586     13589     13588     13586     13589     13589     13590     13591
     13589     13590     13592     13590     13592     13593     13590     13592     13594
     13590     13592     13642     13591     13590     13592     13592     13642     13643
     13592     13642     13644     13592     13642     13645     13593     13592     13594
     13593     13592     13642     13594     13592     13642     13595     13598     13599
     13595     13598     13600     13595     13598     13601     13596     13595     13597
     13596     13595     13598     13597     13595     13598     13598     13601     13602
     13598     13601     13603     13598     13601     13604     13599     13598     13600
     13599     13598     13601     13600     13598     13601     13601     13604     13605
     13601     13604     13606     13601     13604     13607     13602     13601     13603
     13602     13601     13604     13603     13601     13604     13604     13607     13608
     13604     13607     13609     13604     13607     13610     13605     13604     13606
     13605     13604     13607     13606     13604     13607     13607     13610     13611
     13607     13610     13612     13607     13610     13613     13608     13607     13609
     13608     13607     13610     13609     13607     13610     13610     13613     13614
     13610     13613     13615     13611     13610     13612     13611     13610     13613
     13612     13610     13613     13613     13615     13616     13613     13615     13617
     13614     13613     13615     13615     13617     13618     13615     13617     13619
     13615     13617     13620     13616     13615     13617     13617     13620     13621
     13617     13620     13622     13617     13620     13623     13618     13617     13619
     13618     13617     13620     13619     13617     13620     13620     13623     13624
     13620     13623     13625     13620     13623     13626     13621     13620     13622
     13621     13620     13623     13622     13620     13623     13623     13626     13627
     13623     13626     13628     13623     13626     13629     13624     13623     13625
     13624     13623     13626     13625     13623     13626     13626     13629     13630
     13626     13629     13631     13626     13629     13632     13627     13626     13628
     13627     13626     13629     13628     13626     13629     13629     13632     13633
     13629     13632     13634     13629     13632     13635     13630     13629     13631
     13630     13629     13632     13631     13629     13632     13632     13635     13636
     13632     13635     13637     13632     13635     13638     13633     13632     13634
     13633     13632     13635     13634     13632     13635     13635     13638     13639
     13635     13638     13640     13635     13638     13641     13636     13635     13637
     13636     13635     13638     13637     13635     13638     13639     13638     13640
     13639     13638     13641     13640     13638     13641     13642     13645     13646
     13642     13645     13647     13642     13645     13648     13643     13642     13644
     13643     13642     13645     13644     13642     13645     13645     13648     13649
     13645     13648     13650     13645     13648     13651     13646     13645     13647
     13646     13645     13648     13647     13645     13648     13648     13651     13652
     13648     13651     13653     13648     13651     13654     13649     13648     13650
     13649     13648     13651     13650     13648     13651     13651     13654     13655
     13651     13654     13656     13651     13654     13657     13652     13651     13653
     13652     13651     13654     13653     13651     13654     13654     13657     13658
     13654     13657     13659     13654     13657     13660     13655     13654     13656
     13655     13654     13657     13656     13654     13657     13657     13660     13661
     13657     13660     13662     13657     13660     13663     13658     13657     13659
     13658     13657     13660     13659     13657     13660     13660     13663     13664
     13660     13663     13665     13660     13663     13666     13661     13660     13662
     13661     13660     13663     13662     13660     13663     13663     13666     13667
     13663     13666     13668     13663     13666     13669     13664     13663     13665
     13664     13663     13666     13665     13663     13666     13666     13669     13670
     13666     13669     13671     13666     13669     13672     13667     13666     13668
     13667     13666     13669     13668     13666     13669     13669     13672     13673
     13669     13672     13674     13669     13672     13675     13670     13669     13671
     13670     13669     13672     13671     13669     13672     13672     13675     13676
     13672     13675     13677     13672     13675     13678     13673     13672     13674
     13673     13672     13675     13674     13672     13675     13675     13678     13679
     13675     13678     13680     13675     13678     13681     13676     13675     13677
     13676     13675     13678     13677     13675     13678     13678     13681     13682
     13678     13681     13683     13678     13681     13684     13679     13678     13680
     13679     13678     13681     13680     13678     13681     13682     13681     13683
     13682     13681     13684     13683     13681     13684     13685     13686     13687
     13685     13686     13688     13685     13686     13701     13685     13689     13690
     13685     13689     13691     13685     13689     13692     13685     13693     13694
     13685     13693     13695     13685     13693     13696     13685     13697     13698
     13685     13697     13699     13685     13697     13700     13686     13685     13689
     13686     13685     13693     13686     13685     13697     13686     13701     13702
     13686     13701     13703     13686     13701     13707     13687     13686     13688
     13687     13686     13701     13688     13686     13701     13689     13685     13693
     13689     13685     13697     13690     13689     13691     13690     13689     13692
     13691     13689     13692     13693     13685     13697     13694     13693     13695
     13694     13693     13696     13695     13693     13696     13698     13697     13699
     13698     13697     13700     13699     13697     13700     13701     13707     13704
     13702     13701     13703     13702     13701     13707     13703     13701     13707
     13704     13708     13709     13705     13704     13706     13705     13704     13707
     13705     13704     13708     13706     13704     13707     13706     13704     13708
     13707     13704     13708     13708     13709     13710     13708     13709     13711
     13708     13709     13712     13709     13712     13713     13709     13712     13714
     13709     13712     13720     13710     13709     13711     13710     13709     13712
     13711     13709     13712     13712     13714     13715     13712     13720     13721
     13712     13720     13722     13712     13720     13723     13713     13712     13714
     13713     13712     13720     13714     13712     13720     13714     13715     13716
     13714     13715     13717     13715     13717     13718     13715     13717     13719
     13715     13717     13729     13716     13715     13717     13717     13729     13730
     13717     13729     13731     13717     13729     13732     13718     13717     13719
     13718     13717     13729     13719     13717     13729     13720     13723     13724
     13721     13720     13722     13721     13720     13723     13722     13720     13723
     13723     13724     13725     13723     13724     13726     13724     13726     13727
     13724     13726     13728     13724     13726     13776     13725     13724     13726
     13726     13776     13777     13726     13776     13778     13726     13776     13779
     13727     13726     13728     13727     13726     13776     13728     13726     13776
     13729     13732     13733     13729     13732     13734     13729     13732     13735
     13730     13729     13731     13730     13729     13732     13731     13729     13732
     13732     13735     13736     13732     13735     13737     13732     13735     13738
     13733     13732     13734     13733     13732     13735     13734     13732     13735
     13735     13738     13739     13735     13738     13740     13735     13738     13741
     13736     13735     13737     13736     13735     13738     13737     13735     13738
     13738     13741     13742     13738     13741     13743     13738     13741     13744
     13739     13738     13740     13739     13738     13741     13740     13738     13741
     13741     13744     13745     13741     13744     13746     13741     13744     13747
     13742     13741     13743     13742     13741     13744     13743     13741     13744
     13744     13747     13748     13744     13747     13749     13745     13744     13746
     13745     13744     13747     13746     13744     13747     13747     13749     13750
     13747     13749     13751     13748     13747     13749     13749     13751     13752
     13749     13751     13753     13749     13751     13754     13750     13749     13751
     13751     13754     13755     13751     13754     13756     13751     13754     13757
     13752     13751     13753     13752     13751     13754     13753     13751     13754
     13754     13757     13758     13754     13757     13759     13754     13757     13760
     13755     13754     13756     13755     13754     13757     13756     13754     13757
     13757     13760     13761     13757     13760     13762     13757     13760     13763
     13758     13757     13759     13758     13757     13760     13759     13757     13760
     13760     13763     13764     13760     13763     13765     13760     13763     13766
     13761     13760     13762     13761     13760     13763     13762     13760     13763
     13763     13766     13767     13763     13766     13768     13763     13766     13769
     13764     13763     13765     13764     13763     13766     13765     13763     13766
     13766     13769     13770     13766     13769     13771     13766     13769     13772
     13767     13766     13768     13767     13766     13769     13768     13766     13769
     13769     13772     13773     13769     13772     13774     13769     13772     13775
     13770     13769     13771     13770     13769     13772     13771     13769     13772
     13773     13772     13774     13773     13772     13775     13774     13772     13775
     13776     13779     13780     13776     13779     13781     13776     13779     13782
     13777     13776     13778     13777     13776     13779     13778     13776     13779
     13779     13782     13783     13779     13782     13784     13779     13782     13785
     13780     13779     13781     13780     13779     13782     13781     13779     13782
     13782     13785     13786     13782     13785     13787     13782     13785     13788
     13783     13782     13784     13783     13782     13785     13784     13782     13785
     13785     13788     13789     13785     13788     13790     13785     13788     13791
     13786     13785     13787     13786     13785     13788     13787     13785     13788
     13788     13791     13792     13788     13791     13793     13788     13791     13794
     13789     13788     13790     13789     13788     13791     13790     13788     13791
     13791     13794     13795     13791     13794     13796     13791     13794     13797
     13792     13791     13793     13792     13791     13794     13793     13791     13794
     13794     13797     13798     13794     13797     13799     13794     13797     13800
     13795     13794     13796     13795     13794     13797     13796     13794     13797
     13797     13800     13801     13797     13800     13802     13797     13800     13803
     13798     13797     13799     13798     13797     13800     13799     13797     13800
     13800     13803     13804     13800     13803     13805     13800     13803     13806
     13801     13800     13802     13801     13800     13803     13802     13800     13803
     13803     13806     13807     13803     13806     13808     13803     13806     13809
     13804     13803     13805     13804     13803     13806     13805     13803     13806
     13806     13809     13810     13806     13809     13811     13806     13809     13812
     13807     13806     13808     13807     13806     13809     13808     13806     13809
     13809     13812     13813     13809     13812     13814     13809     13812     13815
     13810     13809     13811     13810     13809     13812     13811     13809     13812
     13812     13815     13816     13812     13815     13817     13812     13815     13818
     13813     13812     13814     13813     13812     13815     13814     13812     13815
     13816     13815     13817     13816     13815     13818     13817     13815     13818
     13819     13820     13821     13819     13820     13822     13819     13820     13835
     13819     13823     13824     13819     13823     13825     13819     13823     13826
     13819     13827     13828     13819     13827     13829     13819     13827     13830
     13819     13831     13832     13819     13831     13833     13819     13831     13834
     13820     13819     13823     13820     13819     13827     13820     13819     13831
     13820     13835     13836     13820     13835     13837     13820     13835     13841
     13821     13820     13822     13821     13820     13835     13822     13820     13835
     13823     13819     13827     13823     13819     13831     13824     13823     13825
     13824     13823     13826     13825     13823     13826     13827     13819     13831
     13828     13827     13829     13828     13827     13830     13829     13827     13830
     13832     13831     13833     13832     13831     13834     13833     13831     13834
     13835     13841     13838     13836     13835     13837     13836     13835     13841
     13837     13835     13841     13838     13842     13843     13839     13838     13840
     13839     13838     13841     13839     13838     13842     13840     13838     13841
     13840     13838     13842     13841     13838     13842     13842     13843     13844
     13842     13843     13845     13842     13843     13846     13843     13846     13847
     13843     13846     13848     13843     13846     13854     13844     13843     13845
     13844     13843     13846     13845     13843     13846     13846     13848     13849
     13846     13854     13855     13846     13854     13856     13846     13854     13857
     13847     13846     13848     13847     13846     13854     13848     13846     13854
     13848     13849     13850     13848     13849     13851     13849     13851     13852
     13849     13851     13853     13849     13851     13863     13850     13849     13851
     13851     13863     13864     13851     13863     13865     13851     13863     13866
     13852     13851     13853     13852     13851     13863     13853     13851     13863
     13854     13857     13858     13855     13854     13856     13855     13854     13857
     13856     13854     13857     13857     13858     13859     13857     13858     13860
     13858     13860     13861     13858     13860     13862     13858     13860     13910
     13859     13858     13860     13860     13910     13911     13860     13910     13912
     13860     13910     13913     13861     13860     13862     13861     13860     13910
     13862     13860     13910     13863     13866     13867     13863     13866     13868
     13863     13866     13869     13864     13863     13865     13864     13863     13866
     13865     13863     13866     13866     13869     13870     13866     13869     13871
     13866     13869     13872     13867     13866     13868     13867     13866     13869
     13868     13866     13869     13869     13872     13873     13869     13872     13874
     13869     13872     13875     13870     13869     13871     13870     13869     13872
     13871     13869     13872     13872     13875     13876     13872     13875     13877
     13872     13875     13878     13873     13872     13874     13873     13872     13875
     13874     13872     13875     13875     13878     13879     13875     13878     13880
     13875     13878     13881     13876     13875     13877     13876     13875     13878
     13877     13875     13878     13878     13881     13882     13878     13881     13883
     13879     13878     13880     13879     13878     13881     13880     13878     13881
     13881     13883     13884     13881     13883     13885     13882     13881     13883
     13883     13885     13886     13883     13885     13887     13883     13885     13888
     13884     13883     13885     13885     13888     13889     13885     13888     13890
     13885     13888     13891     13886     13885     13887     13886     13885     13888
     13887     13885     13888     13888     13891     13892     13888     13891     13893
     13888     13891     13894     13889     13888     13890     13889     13888     13891
     13890     13888     13891     13891     13894     13895     13891     13894     13896
     13891     13894     13897     13892     13891     13893     13892     13891     13894
     13893     13891     13894     13894     13897     13898     13894     13897     13899
     13894     13897     13900     13895     13894     13896     13895     13894     13897
     13896     13894     13897     13897     13900     13901     13897     13900     13902
     13897     13900     13903     13898     13897     13899     13898     13897     13900
     13899     13897     13900     13900     13903     13904     13900     13903     13905
     13900     13903     13906     13901     13900     13902     13901     13900     13903
     13902     13900     13903     13903     13906     13907     13903     13906     13908
     13903     13906     13909     13904     13903     13905     13904     13903     13906
     13905     13903     13906     13907     13906     13908     13907     13906     13909
     13908     13906     13909     13910     13913     13914     13910     13913     13915
     13910     13913     13916     13911     13910     13912     13911     13910     13913
     13912     13910     13913     13913     13916     13917     13913     13916     13918
     13913     13916     13919     13914     13913     13915     13914     13913     13916
     13915     13913     13916     13916     13919     13920     13916     13919     13921
     13916     13919     13922     13917     13916     13918     13917     13916     13919
     13918     13916     13919     13919     13922     13923     13919     13922     13924
     13919     13922     13925     13920     13919     13921     13920     13919     13922
     13921     13919     13922     13922     13925     13926     13922     13925     13927
     13922     13925     13928     13923     13922     13924     13923     13922     13925
     13924     13922     13925     13925     13928     13929     13925     13928     13930
     13925     13928     13931     13926     13925     13927     13926     13925     13928
     13927     13925     13928     13928     13931     13932     13928     13931     13933
     13928     13931     13934     13929     13928     13930     13929     13928     13931
     13930     13928     13931     13931     13934     13935     13931     13934     13936
     13931     13934     13937     13932     13931     13933     13932     13931     13934
     13933     13931     13934     13934     13937     13938     13934     13937     13939
     13934     13937     13940     13935     13934     13936     13935     13934     13937
     13936     13934     13937     13937     13940     13941     13937     13940     13942
     13937     13940     13943     13938     13937     13939     13938     13937     13940
     13939     13937     13940     13940     13943     13944     13940     13943     13945
     13940     13943     13946     13941     13940     13942     13941     13940     13943
     13942     13940     13943     13943     13946     13947     13943     13946     13948
     13943     13946     13949     13944     13943     13945     13944     13943     13946
     13945     13943     13946     13946     13949     13950     13946     13949     13951
     13946     13949     13952     13947     13946     13948     13947     13946     13949
     13948     13946     13949     13950     13949     13951     13950     13949     13952
     13951     13949     13952     13953     13954     13955     13953     13954     13956
     13953     13954     13969     13953     13957     13958     13953     13957     13959
     13953     13957     13960     13953     13961     13962     13953     13961     13963
     13953     13961     13964     13953     13965     13966     13953     13965     13967
     13953     13965     13968     13954     13953     13957     13954     13953     13961
     13954     13953     13965     13954     13969     13970     13954     13969     13971
     13954     13969     13975     13955     13954     13956     13955     13954     13969
     13956     13954     13969     13957     13953     13961     13957     13953     13965
     13958     13957     13959     13958     13957     13960     13959     13957     13960
     13961     13953     13965     13962     13961     13963     13962     13961     13964
     13963     13961     13964     13966     13965     13967     13966     13965     13968
     13967     13965     13968     13969     13975     13972     13970     13969     13971
     13970     13969     13975     13971     13969     13975     13972     13976     13977
     13973     13972     13974     13973     13972     13975     13973     13972     13976
     13974     13972     13975     13974     13972     13976     13975     13972     13976
     13976     13977     13978     13976     13977     13979     13976     13977     13980
     13977     13980     13981     13977     13980     13982     13977     13980     13988
     13978     13977     13979     13978     13977     13980     13979     13977     13980
     13980     13982     13983     13980     13988     13989     13980     13988     13990
     13980     13988     13991     13981     13980     13982     13981     13980     13988
     13982     13980     13988     13982     13983     13984     13982     13983     13985
     13983     13985     13986     13983     13985     13987     13983     13985     13997
     13984     13983     13985     13985     13997     13998     13985     13997     13999
     13985     13997     14000     13986     13985     13987     13986     13985     13997
     13987     13985     13997     13988     13991     13992     13989     13988     13990
     13989     13988     13991     13990     13988     13991     13991     13992     13993
     13991     13992     13994     13992     13994     13995     13992     13994     13996
     13992     13994     14044     13993     13992     13994     13994     14044     14045
     13994     14044     14046     13994     14044     14047     13995     13994     13996
     13995     13994     14044     13996     13994     14044     13997     14000     14001
     13997     14000     14002     13997     14000     14003     13998     13997     13999
     13998     13997     14000     13999     13997     14000     14000     14003     14004
     14000     14003     14005     14000     14003     14006     14001     14000     14002
     14001     14000     14003     14002     14000     14003     14003     14006     14007
     14003     14006     14008     14003     14006     14009     14004     14003     14005
     14004     14003     14006     14005     14003     14006     14006     14009     14010
     14006     14009     14011     14006     14009     14012     14007     14006     14008
     14007     14006     14009     14008     14006     14009     14009     14012     14013
     14009     14012     14014     14009     14012     14015     14010     14009     14011
     14010     14009     14012     14011     14009     14012     14012     14015     14016
     14012     14015     14017     14013     14012     14014     14013     14012     14015
     14014     14012     14015     14015     14017     14018     14015     14017     14019
     14016     14015     14017     14017     14019     14020     14017     14019     14021
     14017     14019     14022     14018     14017     14019     14019     14022     14023
     14019     14022     14024     14019     14022     14025     14020     14019     14021
     14020     14019     14022     14021     14019     14022     14022     14025     14026
     14022     14025     14027     14022     14025     14028     14023     14022     14024
     14023     14022     14025     14024     14022     14025     14025     14028     14029
     14025     14028     14030     14025     14028     14031     14026     14025     14027
     14026     14025     14028     14027     14025     14028     14028     14031     14032
     14028     14031     14033     14028     14031     14034     14029     14028     14030
     14029     14028     14031     14030     14028     14031     14031     14034     14035
     14031     14034     14036     14031     14034     14037     14032     14031     14033
     14032     14031     14034     14033     14031     14034     14034     14037     14038
     14034     14037     14039     14034     14037     14040     14035     14034     14036
     14035     14034     14037     14036     14034     14037     14037     14040     14041
     14037     14040     14042     14037     14040     14043     14038     14037     14039
     14038     14037     14040     14039     14037     14040     14041     14040     14042
     14041     14040     14043     14042     14040     14043     14044     14047     14048
     14044     14047     14049     14044     14047     14050     14045     14044     14046
     14045     14044     14047     14046     14044     14047     14047     14050     14051
     14047     14050     14052     14047     14050     14053     14048     14047     14049
     14048     14047     14050     14049     14047     14050     14050     14053     14054
     14050     14053     14055     14050     14053     14056     14051     14050     14052
     14051     14050     14053     14052     14050     14053     14053     14056     14057
     14053     14056     14058     14053     14056     14059     14054     14053     14055
     14054     14053     14056     14055     14053     14056     14056     14059     14060
     14056     14059     14061     14056     14059     14062     14057     14056     14058
     14057     14056     14059     14058     14056     14059     14059     14062     14063
     14059     14062     14064     14059     14062     14065     14060     14059     14061
     14060     14059     14062     14061     14059     14062     14062     14065     14066
     14062     14065     14067     14062     14065     14068     14063     14062     14064
     14063     14062     14065     14064     14062     14065     14065     14068     14069
     14065     14068     14070     14065     14068     14071     14066     14065     14067
     14066     14065     14068     14067     14065     14068     14068     14071     14072
     14068     14071     14073     14068     14071     14074     14069     14068     14070
     14069     14068     14071     14070     14068     14071     14071     14074     14075
     14071     14074     14076     14071     14074     14077     14072     14071     14073
     14072     14071     14074     14073     14071     14074     14074     14077     14078
     14074     14077     14079     14074     14077     14080     14075     14074     14076
     14075     14074     14077     14076     14074     14077     14077     14080     14081
     14077     14080     14082     14077     14080     14083     14078     14077     14079
     14078     14077     14080     14079     14077     14080     14080     14083     14084
     14080     14083     14085     14080     14083     14086     14081     14080     14082
     14081     14080     14083     14082     14080     14083     14084     14083     14085
     14084     14083     14086     14085     14083     14086     14087     14088     14089
     14087     14088     14090     14087     14088     14103     14087     14091     14092
     14087     14091     14093     14087     14091     14094     14087     14095     14096
     14087     14095     14097     14087     14095     14098     14087     14099     14100
     14087     14099     14101     14087     14099     14102     14088     14087     14091
     14088     14087     14095     14088     14087     14099     14088     14103     14104
     14088     14103     14105     14088     14103     14109     14089     14088     14090
     14089     14088     14103     14090     14088     14103     14091     14087     14095
     14091     14087     14099     14092     14091     14093     14092     14091     14094
     14093     14091     14094     14095     14087     14099     14096     14095     14097
     14096     14095     14098     14097     14095     14098     14100     14099     14101
     14100     14099     14102     14101     14099     14102     14103     14109     14106
     14104     14103     14105     14104     14103     14109     14105     14103     14109
     14106     14110     14111     14107     14106     14108     14107     14106     14109
     14107     14106     14110     14108     14106     14109     14108     14106     14110
     14109     14106     14110     14110     14111     14112     14110     14111     14113
     14110     14111     14114     14111     14114     14115     14111     14114     14116
     14111     14114     14122     14112     14111     14113     14112     14111     14114
     14113     14111     14114     14114     14116     14117     14114     14122     14123
     14114     14122     14124     14114     14122     14125     14115     14114     14116
     14115     14114     14122     14116     14114     14122     14116     14117     14118
     14116     14117     14119     14117     14119     14120     14117     14119     14121
     14117     14119     14131     14118     14117     14119     14119     14131     14132
     14119     14131     14133     14119     14131     14134     14120     14119     14121
     14120     14119     14131     14121     14119     14131     14122     14125     14126
     14123     14122     14124     14123     14122     14125     14124     14122     14125
     14125     14126     14127     14125     14126     14128     14126     14128     14129
     14126     14128     14130     14126     14128     14178     14127     14126     14128
     14128     14178     14179     14128     14178     14180     14128     14178     14181
     14129     14128     14130     14129     14128     14178     14130     14128     14178
     14131     14134     14135     14131     14134     14136     14131     14134     14137
     14132     14131     14133     14132     14131     14134     14133     14131     14134
     14134     14137     14138     14134     14137     14139     14134     14137     14140
     14135     14134     14136     14135     14134     14137     14136     14134     14137
     14137     14140     14141     14137     14140     14142     14137     14140     14143
     14138     14137     14139     14138     14137     14140     14139     14137     14140
     14140     14143     14144     14140     14143     14145     14140     14143     14146
     14141     14140     14142     14141     14140     14143     14142     14140     14143
     14143     14146     14147     14143     14146     14148     14143     14146     14149
     14144     14143     14145     14144     14143     14146     14145     14143     14146
     14146     14149     14150     14146     14149     14151     14147     14146     14148
     14147     14146     14149     14148     14146     14149     14149     14151     14152
     14149     14151     14153     14150     14149     14151     14151     14153     14154
     14151     14153     14155     14151     14153     14156     14152     14151     14153
     14153     14156     14157     14153     14156     14158     14153     14156     14159
     14154     14153     14155     14154     14153     14156     14155     14153     14156
     14156     14159     14160     14156     14159     14161     14156     14159     14162
     14157     14156     14158     14157     14156     14159     14158     14156     14159
     14159     14162     14163     14159     14162     14164     14159     14162     14165
     14160     14159     14161     14160     14159     14162     14161     14159     14162
     14162     14165     14166     14162     14165     14167     14162     14165     14168
     14163     14162     14164     14163     14162     14165     14164     14162     14165
     14165     14168     14169     14165     14168     14170     14165     14168     14171
     14166     14165     14167     14166     14165     14168     14167     14165     14168
     14168     14171     14172     14168     14171     14173     14168     14171     14174
     14169     14168     14170     14169     14168     14171     14170     14168     14171
     14171     14174     14175     14171     14174     14176     14171     14174     14177
     14172     14171     14173     14172     14171     14174     14173     14171     14174
     14175     14174     14176     14175     14174     14177     14176     14174     14177
     14178     14181     14182     14178     14181     14183     14178     14181     14184
     14179     14178     14180     14179     14178     14181     14180     14178     14181
     14181     14184     14185     14181     14184     14186     14181     14184     14187
     14182     14181     14183     14182     14181     14184     14183     14181     14184
     14184     14187     14188     14184     14187     14189     14184     14187     14190
     14185     14184     14186     14185     14184     14187     14186     14184     14187
     14187     14190     14191     14187     14190     14192     14187     14190     14193
     14188     14187     14189     14188     14187     14190     14189     14187     14190
     14190     14193     14194     14190     14193     14195     14190     14193     14196
     14191     14190     14192     14191     14190     14193     14192     14190     14193
     14193     14196     14197     14193     14196     14198     14193     14196     14199
     14194     14193     14195     14194     14193     14196     14195     14193     14196
     14196     14199     14200     14196     14199     14201     14196     14199     14202
     14197     14196     14198     14197     14196     14199     14198     14196     14199
     14199     14202     14203     14199     14202     14204     14199     14202     14205
     14200     14199     14201     14200     14199     14202     14201     14199     14202
     14202     14205     14206     14202     14205     14207     14202     14205     14208
     14203     14202     14204     14203     14202     14205     14204     14202     14205
     14205     14208     14209     14205     14208     14210     14205     14208     14211
     14206     14205     14207     14206     14205     14208     14207     14205     14208
     14208     14211     14212     14208     14211     14213     14208     14211     14214
     14209     14208     14210     14209     14208     14211     14210     14208     14211
     14211     14214     14215     14211     14214     14216     14211     14214     14217
     14212     14211     14213     14212     14211     14214     14213     14211     14214
     14214     14217     14218     14214     14217     14219     14214     14217     14220
     14215     14214     14216     14215     14214     14217     14216     14214     14217
     14218     14217     14219     14218     14217     14220     14219     14217     14220
     14221     14222     14223     14221     14222     14224     14221     14222     14237
     14221     14225     14226     14221     14225     14227     14221     14225     14228
     14221     14229     14230     14221     14229     14231     14221     14229     14232
     14221     14233     14234     14221     14233     14235     14221     14233     14236
     14222     14221     14225     14222     14221     14229     14222     14221     14233
     14222     14237     14238     14222     14237     14239     14222     14237     14243
     14223     14222     14224     14223     14222     14237     14224     14222     14237
     14225     14221     14229     14225     14221     14233     14226     14225     14227
     14226     14225     14228     14227     14225     14228     14229     14221     14233
     14230     14229     14231     14230     14229     14232     14231     14229     14232
     14234     14233     14235     14234     14233     14236     14235     14233     14236
     14237     14243     14240     14238     14237     14239     14238     14237     14243
     14239     14237     14243     14240     14244     14245     14241     14240     14242
     14241     14240     14243     14241     14240     14244     14242     14240     14243
     14242     14240     14244     14243     14240     14244     14244     14245     14246
     14244     14245     14247     14244     14245     14248     14245     14248     14249
     14245     14248     14250     14245     14248     14256     14246     14245     14247
     14246     14245     14248     14247     14245     14248     14248     14250     14251
     14248     14256     14257     14248     14256     14258     14248     14256     14259
     14249     14248     14250     14249     14248     14256     14250     14248     14256
     14250     14251     14252     14250     14251     14253     14251     14253     14254
     14251     14253     14255     14251     14253     14265     14252     14251     14253
     14253     14265     14266     14253     14265     14267     14253     14265     14268
     14254     14253     14255     14254     14253     14265     14255     14253     14265
     14256     14259     14260     14257     14256     14258     14257     14256     14259
     14258     14256     14259     14259     14260     14261     14259     14260     14262
     14260     14262     14263     14260     14262     14264     14260     14262     14312
     14261     14260     14262     14262     14312     14313     14262     14312     14314
     14262     14312     14315     14263     14262     14264     14263     14262     14312
     14264     14262     14312     14265     14268     14269     14265     14268     14270
     14265     14268     14271     14266     14265     14267     14266     14265     14268
     14267     14265     14268     14268     14271     14272     14268     14271     14273
     14268     14271     14274     14269     14268     14270     14269     14268     14271
     14270     14268     14271     14271     14274     14275     14271     14274     14276
     14271     14274     14277     14272     14271     14273     14272     14271     14274
     14273     14271     14274     14274     14277     14278     14274     14277     14279
     14274     14277     14280     14275     14274     14276     14275     14274     14277
     14276     14274     14277     14277     14280     14281     14277     14280     14282
     14277     14280     14283     14278     14277     14279     14278     14277     14280
     14279     14277     14280     14280     14283     14284     14280     14283     14285
     14281     14280     14282     14281     14280     14283     14282     14280     14283
     14283     14285     14286     14283     14285     14287     14284     14283     14285
     14285     14287     14288     14285     14287     14289     14285     14287     14290
     14286     14285     14287     14287     14290     14291     14287     14290     14292
     14287     14290     14293     14288     14287     14289     14288     14287     14290
     14289     14287     14290     14290     14293     14294     14290     14293     14295
     14290     14293     14296     14291     14290     14292     14291     14290     14293
     14292     14290     14293     14293     14296     14297     14293     14296     14298
     14293     14296     14299     14294     14293     14295     14294     14293     14296
     14295     14293     14296     14296     14299     14300     14296     14299     14301
     14296     14299     14302     14297     14296     14298     14297     14296     14299
     14298     14296     14299     14299     14302     14303     14299     14302     14304
     14299     14302     14305     14300     14299     14301     14300     14299     14302
     14301     14299     14302     14302     14305     14306     14302     14305     14307
     14302     14305     14308     14303     14302     14304     14303     14302     14305
     14304     14302     14305     14305     14308     14309     14305     14308     14310
     14305     14308     14311     14306     14305     14307     14306     14305     14308
     14307     14305     14308     14309     14308     14310     14309     14308     14311
     14310     14308     14311     14312     14315     14316     14312     14315     14317
     14312     14315     14318     14313     14312     14314     14313     14312     14315
     14314     14312     14315     14315     14318     14319     14315     14318     14320
     14315     14318     14321     14316     14315     14317     14316     14315     14318
     14317     14315     14318     14318     14321     14322     14318     14321     14323
     14318     14321     14324     14319     14318     14320     14319     14318     14321
     14320     14318     14321     14321     14324     14325     14321     14324     14326
     14321     14324     14327     14322     14321     14323     14322     14321     14324
     14323     14321     14324     14324     14327     14328     14324     14327     14329
     14324     14327     14330     14325     14324     14326     14325     14324     14327
     14326     14324     14327     14327     14330     14331     14327     14330     14332
     14327     14330     14333     14328     14327     14329     14328     14327     14330
     14329     14327     14330     14330     14333     14334     14330     14333     14335
     14330     14333     14336     14331     14330     14332     14331     14330     14333
     14332     14330     14333     14333     14336     14337     14333     14336     14338
     14333     14336     14339     14334     14333     14335     14334     14333     14336
     14335     14333     14336     14336     14339     14340     14336     14339     14341
     14336     14339     14342     14337     14336     14338     14337     14336     14339
     14338     14336     14339     14339     14342     14343     14339     14342     14344
     14339     14342     14345     14340     14339     14341     14340     14339     14342
     14341     14339     14342     14342     14345     14346     14342     14345     14347
     14342     14345     14348     14343     14342     14344     14343     14342     14345
     14344     14342     14345     14345     14348     14349     14345     14348     14350
     14345     14348     14351     14346     14345     14347     14346     14345     14348
     14347     14345     14348     14348     14351     14352     14348     14351     14353
     14348     14351     14354     14349     14348     14350     14349     14348     14351
     14350     14348     14351     14352     14351     14353     14352     14351     14354
     14353     14351     14354     14355     14356     14357     14355     14356     14358
     14355     14356     14371     14355     14359     14360     14355     14359     14361
     14355     14359     14362     14355     14363     14364     14355     14363     14365
     14355     14363     14366     14355     14367     14368     14355     14367     14369
     14355     14367     14370     14356     14355     14359     14356     14355     14363
     14356     14355     14367     14356     14371     14372     14356     14371     14373
     14356     14371     14377     14357     14356     14358     14357     14356     14371
     14358     14356     14371     14359     14355     14363     14359     14355     14367
     14360     14359     14361     14360     14359     14362     14361     14359     14362
     14363     14355     14367     14364     14363     14365     14364     14363     14366
     14365     14363     14366     14368     14367     14369     14368     14367     14370
     14369     14367     14370     14371     14377     14374     14372     14371     14373
     14372     14371     14377     14373     14371     14377     14374     14378     14379
     14375     14374     14376     14375     14374     14377     14375     14374     14378
     14376     14374     14377     14376     14374     14378     14377     14374     14378
     14378     14379     14380     14378     14379     14381     14378     14379     14382
     14379     14382     14383     14379     14382     14384     14379     14382     14390
     14380     14379     14381     14380     14379     14382     14381     14379     14382
     14382     14384     14385     14382     14390     14391     14382     14390     14392
     14382     14390     14393     14383     14382     14384     14383     14382     14390
     14384     14382     14390     14384     14385     14386     14384     14385     14387
     14385     14387     14388     14385     14387     14389     14385     14387     14399
     14386     14385     14387     14387     14399     14400     14387     14399     14401
     14387     14399     14402     14388     14387     14389     14388     14387     14399
     14389     14387     14399     14390     14393     14394     14391     14390     14392
     14391     14390     14393     14392     14390     14393     14393     14394     14395
     14393     14394     14396     14394     14396     14397     14394     14396     14398
     14394     14396     14446     14395     14394     14396     14396     14446     14447
     14396     14446     14448     14396     14446     14449     14397     14396     14398
     14397     14396     14446     14398     14396     14446     14399     14402     14403
     14399     14402     14404     14399     14402     14405     14400     14399     14401
     14400     14399     14402     14401     14399     14402     14402     14405     14406
     14402     14405     14407     14402     14405     14408     14403     14402     14404
     14403     14402     14405     14404     14402     14405     14405     14408     14409
     14405     14408     14410     14405     14408     14411     14406     14405     14407
     14406     14405     14408     14407     14405     14408     14408     14411     14412
     14408     14411     14413     14408     14411     14414     14409     14408     14410
     14409     14408     14411     14410     14408     14411     14411     14414     14415
     14411     14414     14416     14411     14414     14417     14412     14411     14413
     14412     14411     14414     14413     14411     14414     14414     14417     14418
     14414     14417     14419     14415     14414     14416     14415     14414     14417
     14416     14414     14417     14417     14419     14420     14417     14419     14421
     14418     14417     14419     14419     14421     14422     14419     14421     14423
     14419     14421     14424     14420     14419     14421     14421     14424     14425
     14421     14424     14426     14421     14424     14427     14422     14421     14423
     14422     14421     14424     14423     14421     14424     14424     14427     14428
     14424     14427     14429     14424     14427     14430     14425     14424     14426
     14425     14424     14427     14426     14424     14427     14427     14430     14431
     14427     14430     14432     14427     14430     14433     14428     14427     14429
     14428     14427     14430     14429     14427     14430     14430     14433     14434
     14430     14433     14435     14430     14433     14436     14431     14430     14432
     14431     14430     14433     14432     14430     14433     14433     14436     14437
     14433     14436     14438     14433     14436     14439     14434     14433     14435
     14434     14433     14436     14435     14433     14436     14436     14439     14440
     14436     14439     14441     14436     14439     14442     14437     14436     14438
     14437     14436     14439     14438     14436     14439     14439     14442     14443
     14439     14442     14444     14439     14442     14445     14440     14439     14441
     14440     14439     14442     14441     14439     14442     14443     14442     14444
     14443     14442     14445     14444     14442     14445     14446     14449     14450
     14446     14449     14451     14446     14449     14452     14447     14446     14448
     14447     14446     14449     14448     14446     14449     14449     14452     14453
     14449     14452     14454     14449     14452     14455     14450     14449     14451
     14450     14449     14452     14451     14449     14452     14452     14455     14456
     14452     14455     14457     14452     14455     14458     14453     14452     14454
     14453     14452     14455     14454     14452     14455     14455     14458     14459
     14455     14458     14460     14455     14458     14461     14456     14455     14457
     14456     14455     14458     14457     14455     14458     14458     14461     14462
     14458     14461     14463     14458     14461     14464     14459     14458     14460
     14459     14458     14461     14460     14458     14461     14461     14464     14465
     14461     14464     14466     14461     14464     14467     14462     14461     14463
     14462     14461     14464     14463     14461     14464     14464     14467     14468
     14464     14467     14469     14464     14467     14470     14465     14464     14466
     14465     14464     14467     14466     14464     14467     14467     14470     14471
     14467     14470     14472     14467     14470     14473     14468     14467     14469
     14468     14467     14470     14469     14467     14470     14470     14473     14474
     14470     14473     14475     14470     14473     14476     14471     14470     14472
     14471     14470     14473     14472     14470     14473     14473     14476     14477
     14473     14476     14478     14473     14476     14479     14474     14473     14475
     14474     14473     14476     14475     14473     14476     14476     14479     14480
     14476     14479     14481     14476     14479     14482     14477     14476     14478
     14477     14476     14479     14478     14476     14479     14479     14482     14483
     14479     14482     14484     14479     14482     14485     14480     14479     14481
     14480     14479     14482     14481     14479     14482     14482     14485     14486
     14482     14485     14487     14482     14485     14488     14483     14482     14484
     14483     14482     14485     14484     14482     14485     14486     14485     14487
     14486     14485     14488     14487     14485     14488     14489     14490     14491
     14489     14490     14492     14489     14490     14505     14489     14493     14494
     14489     14493     14495     14489     14493     14496     14489     14497     14498
     14489     14497     14499     14489     14497     14500     14489     14501     14502
     14489     14501     14503     14489     14501     14504     14490     14489     14493
     14490     14489     14497     14490     14489     14501     14490     14505     14506
     14490     14505     14507     14490     14505     14511     14491     14490     14492
     14491     14490     14505     14492     14490     14505     14493     14489     14497
     14493     14489     14501     14494     14493     14495     14494     14493     14496
     14495     14493     14496     14497     14489     14501     14498     14497     14499
     14498     14497     14500     14499     14497     14500     14502     14501     14503
     14502     14501     14504     14503     14501     14504     14505     14511     14508
     14506     14505     14507     14506     14505     14511     14507     14505     14511
     14508     14512     14513     14509     14508     14510     14509     14508     14511
     14509     14508     14512     14510     14508     14511     14510     14508     14512
     14511     14508     14512     14512     14513     14514     14512     14513     14515
     14512     14513     14516     14513     14516     14517     14513     14516     14518
     14513     14516     14524     14514     14513     14515     14514     14513     14516
     14515     14513     14516     14516     14518     14519     14516     14524     14525
     14516     14524     14526     14516     14524     14527     14517     14516     14518
     14517     14516     14524     14518     14516     14524     14518     14519     14520
     14518     14519     14521     14519     14521     14522     14519     14521     14523
     14519     14521     14533     14520     14519     14521     14521     14533     14534
     14521     14533     14535     14521     14533     14536     14522     14521     14523
     14522     14521     14533     14523     14521     14533     14524     14527     14528
     14525     14524     14526     14525     14524     14527     14526     14524     14527
     14527     14528     14529     14527     14528     14530     14528     14530     14531
     14528     14530     14532     14528     14530     14580     14529     14528     14530
     14530     14580     14581     14530     14580     14582     14530     14580     14583
     14531     14530     14532     14531     14530     14580     14532     14530     14580
     14533     14536     14537     14533     14536     14538     14533     14536     14539
     14534     14533     14535     14534     14533     14536     14535     14533     14536
     14536     14539     14540     14536     14539     14541     14536     14539     14542
     14537     14536     14538     14537     14536     14539     14538     14536     14539
     14539     14542     14543     14539     14542     14544     14539     14542     14545
     14540     14539     14541     14540     14539     14542     14541     14539     14542
     14542     14545     14546     14542     14545     14547     14542     14545     14548
     14543     14542     14544     14543     14542     14545     14544     14542     14545
     14545     14548     14549     14545     14548     14550     14545     14548     14551
     14546     14545     14547     14546     14545     14548     14547     14545     14548
     14548     14551     14552     14548     14551     14553     14549     14548     14550
     14549     14548     14551     14550     14548     14551     14551     14553     14554
     14551     14553     14555     14552     14551     14553     14553     14555     14556
     14553     14555     14557     14553     14555     14558     14554     14553     14555
     14555     14558     14559     14555     14558     14560     14555     14558     14561
     14556     14555     14557     14556     14555     14558     14557     14555     14558
     14558     14561     14562     14558     14561     14563     14558     14561     14564
     14559     14558     14560     14559     14558     14561     14560     14558     14561
     14561     14564     14565     14561     14564     14566     14561     14564     14567
     14562     14561     14563     14562     14561     14564     14563     14561     14564
     14564     14567     14568     14564     14567     14569     14564     14567     14570
     14565     14564     14566     14565     14564     14567     14566     14564     14567
     14567     14570     14571     14567     14570     14572     14567     14570     14573
     14568     14567     14569     14568     14567     14570     14569     14567     14570
     14570     14573     14574     14570     14573     14575     14570     14573     14576
     14571     14570     14572     14571     14570     14573     14572     14570     14573
     14573     14576     14577     14573     14576     14578     14573     14576     14579
     14574     14573     14575     14574     14573     14576     14575     14573     14576
     14577     14576     14578     14577     14576     14579     14578     14576     14579
     14580     14583     14584     14580     14583     14585     14580     14583     14586
     14581     14580     14582     14581     14580     14583     14582     14580     14583
     14583     14586     14587     14583     14586     14588     14583     14586     14589
     14584     14583     14585     14584     14583     14586     14585     14583     14586
     14586     14589     14590     14586     14589     14591     14586     14589     14592
     14587     14586     14588     14587     14586     14589     14588     14586     14589
     14589     14592     14593     14589     14592     14594     14589     14592     14595
     14590     14589     14591     14590     14589     14592     14591     14589     14592
     14592     14595     14596     14592     14595     14597     14592     14595     14598
     14593     14592     14594     14593     14592     14595     14594     14592     14595
     14595     14598     14599     14595     14598     14600     14595     14598     14601
     14596     14595     14597     14596     14595     14598     14597     14595     14598
     14598     14601     14602     14598     14601     14603     14598     14601     14604
     14599     14598     14600     14599     14598     14601     14600     14598     14601
     14601     14604     14605     14601     14604     14606     14601     14604     14607
     14602     14601     14603     14602     14601     14604     14603     14601     14604
     14604     14607     14608     14604     14607     14609     14604     14607     14610
     14605     14604     14606     14605     14604     14607     14606     14604     14607
     14607     14610     14611     14607     14610     14612     14607     14610     14613
     14608     14607     14609     14608     14607     14610     14609     14607     14610
     14610     14613     14614     14610     14613     14615     14610     14613     14616
     14611     14610     14612     14611     14610     14613     14612     14610     14613
     14613     14616     14617     14613     14616     14618     14613     14616     14619
     14614     14613     14615     14614     14613     14616     14615     14613     14616
     14616     14619     14620     14616     14619     14621     14616     14619     14622
     14617     14616     14618     14617     14616     14619     14618     14616     14619
     14620     14619     14621     14620     14619     14622     14621     14619     14622
     14623     14624     14625     14623     14624     14626     14623     14624     14639
     14623     14627     14628     14623     14627     14629     14623     14627     14630
     14623     14631     14632     14623     14631     14633     14623     14631     14634
     14623     14635     14636     14623     14635     14637     14623     14635     14638
     14624     14623     14627     14624     14623     14631     14624     14623     14635
     14624     14639     14640     14624     14639     14641     14624     14639     14645
     14625     14624     14626     14625     14624     14639     14626     14624     14639
     14627     14623     14631     14627     14623     14635     14628     14627     14629
     14628     14627     14630     14629     14627     14630     14631     14623     14635
     14632     14631     14633     14632     14631     14634     14633     14631     14634
     14636     14635     14637     14636     14635     14638     14637     14635     14638
     14639     14645     14642     14640     14639     14641     14640     14639     14645
     14641     14639     14645     14642     14646     14647     14643     14642     14644
     14643     14642     14645     14643     14642     14646     14644     14642     14645
     14644     14642     14646     14645     14642     14646     14646     14647     14648
     14646     14647     14649     14646     14647     14650     14647     14650     14651
     14647     14650     14652     14647     14650     14658     14648     14647     14649
     14648     14647     14650     14649     14647     14650     14650     14652     14653
     14650     14658     14659     14650     14658     14660     14650     14658     14661
     14651     14650     14652     14651     14650     14658     14652     14650     14658
     14652     14653     14654     14652     14653     14655     14653     14655     14656
     14653     14655     14657     14653     14655     14667     14654     14653     14655
     14655     14667     14668     14655     14667     14669     14655     14667     14670
     14656     14655     14657     14656     14655     14667     14657     14655     14667
     14658     14661     14662     14659     14658     14660     14659     14658     14661
     14660     14658     14661     14661     14662     14663     14661     14662     14664
     14662     14664     14665     14662     14664     14666     14662     14664     14714
     14663     14662     14664     14664     14714     14715     14664     14714     14716
     14664     14714     14717     14665     14664     14666     14665     14664     14714
     14666     14664     14714     14667     14670     14671     14667     14670     14672
     14667     14670     14673     14668     14667     14669     14668     14667     14670
     14669     14667     14670     14670     14673     14674     14670     14673     14675
     14670     14673     14676     14671     14670     14672     14671     14670     14673
     14672     14670     14673     14673     14676     14677     14673     14676     14678
     14673     14676     14679     14674     14673     14675     14674     14673     14676
     14675     14673     14676     14676     14679     14680     14676     14679     14681
     14676     14679     14682     14677     14676     14678     14677     14676     14679
     14678     14676     14679     14679     14682     14683     14679     14682     14684
     14679     14682     14685     14680     14679     14681     14680     14679     14682
     14681     14679     14682     14682     14685     14686     14682     14685     14687
     14683     14682     14684     14683     14682     14685     14684     14682     14685
     14685     14687     14688     14685     14687     14689     14686     14685     14687
     14687     14689     14690     14687     14689     14691     14687     14689     14692
     14688     14687     14689     14689     14692     14693     14689     14692     14694
     14689     14692     14695     14690     14689     14691     14690     14689     14692
     14691     14689     14692     14692     14695     14696     14692     14695     14697
     14692     14695     14698     14693     14692     14694     14693     14692     14695
     14694     14692     14695     14695     14698     14699     14695     14698     14700
     14695     14698     14701     14696     14695     14697     14696     14695     14698
     14697     14695     14698     14698     14701     14702     14698     14701     14703
     14698     14701     14704     14699     14698     14700     14699     14698     14701
     14700     14698     14701     14701     14704     14705     14701     14704     14706
     14701     14704     14707     14702     14701     14703     14702     14701     14704
     14703     14701     14704     14704     14707     14708     14704     14707     14709
     14704     14707     14710     14705     14704     14706     14705     14704     14707
     14706     14704     14707     14707     14710     14711     14707     14710     14712
     14707     14710     14713     14708     14707     14709     14708     14707     14710
     14709     14707     14710     14711     14710     14712     14711     14710     14713
     14712     14710     14713     14714     14717     14718     14714     14717     14719
     14714     14717     14720     14715     14714     14716     14715     14714     14717
     14716     14714     14717     14717     14720     14721     14717     14720     14722
     14717     14720     14723     14718     14717     14719     14718     14717     14720
     14719     14717     14720     14720     14723     14724     14720     14723     14725
     14720     14723     14726     14721     14720     14722     14721     14720     14723
     14722     14720     14723     14723     14726     14727     14723     14726     14728
     14723     14726     14729     14724     14723     14725     14724     14723     14726
     14725     14723     14726     14726     14729     14730     14726     14729     14731
     14726     14729     14732     14727     14726     14728     14727     14726     14729
     14728     14726     14729     14729     14732     14733     14729     14732     14734
     14729     14732     14735     14730     14729     14731     14730     14729     14732
     14731     14729     14732     14732     14735     14736     14732     14735     14737
     14732     14735     14738     14733     14732     14734     14733     14732     14735
     14734     14732     14735     14735     14738     14739     14735     14738     14740
     14735     14738     14741     14736     14735     14737     14736     14735     14738
     14737     14735     14738     14738     14741     14742     14738     14741     14743
     14738     14741     14744     14739     14738     14740     14739     14738     14741
     14740     14738     14741     14741     14744     14745     14741     14744     14746
     14741     14744     14747     14742     14741     14743     14742     14741     14744
     14743     14741     14744     14744     14747     14748     14744     14747     14749
     14744     14747     14750     14745     14744     14746     14745     14744     14747
     14746     14744     14747     14747     14750     14751     14747     14750     14752
     14747     14750     14753     14748     14747     14749     14748     14747     14750
     14749     14747     14750     14750     14753     14754     14750     14753     14755
     14750     14753     14756     14751     14750     14752     14751     14750     14753
     14752     14750     14753     14754     14753     14755     14754     14753     14756
     14755     14753     14756     14757     14758     14759     14757     14758     14760
     14757     14758     14773     14757     14761     14762     14757     14761     14763
     14757     14761     14764     14757     14765     14766     14757     14765     14767
     14757     14765     14768     14757     14769     14770     14757     14769     14771
     14757     14769     14772     14758     14757     14761     14758     14757     14765
     14758     14757     14769     14758     14773     14774     14758     14773     14775
     14758     14773     14779     14759     14758     14760     14759     14758     14773
     14760     14758     14773     14761     14757     14765     14761     14757     14769
     14762     14761     14763     14762     14761     14764     14763     14761     14764
     14765     14757     14769     14766     14765     14767     14766     14765     14768
     14767     14765     14768     14770     14769     14771     14770     14769     14772
     14771     14769     14772     14773     14779     14776     14774     14773     14775
     14774     14773     14779     14775     14773     14779     14776     14780     14781
     14777     14776     14778     14777     14776     14779     14777     14776     14780
     14778     14776     14779     14778     14776     14780     14779     14776     14780
     14780     14781     14782     14780     14781     14783     14780     14781     14784
     14781     14784     14785     14781     14784     14786     14781     14784     14792
     14782     14781     14783     14782     14781     14784     14783     14781     14784
     14784     14786     14787     14784     14792     14793     14784     14792     14794
     14784     14792     14795     14785     14784     14786     14785     14784     14792
     14786     14784     14792     14786     14787     14788     14786     14787     14789
     14787     14789     14790     14787     14789     14791     14787     14789     14801
     14788     14787     14789     14789     14801     14802     14789     14801     14803
     14789     14801     14804     14790     14789     14791     14790     14789     14801
     14791     14789     14801     14792     14795     14796     14793     14792     14794
     14793     14792     14795     14794     14792     14795     14795     14796     14797
     14795     14796     14798     14796     14798     14799     14796     14798     14800
     14796     14798     14848     14797     14796     14798     14798     14848     14849
     14798     14848     14850     14798     14848     14851     14799     14798     14800
     14799     14798     14848     14800     14798     14848     14801     14804     14805
     14801     14804     14806     14801     14804     14807     14802     14801     14803
     14802     14801     14804     14803     14801     14804     14804     14807     14808
     14804     14807     14809     14804     14807     14810     14805     14804     14806
     14805     14804     14807     14806     14804     14807     14807     14810     14811
     14807     14810     14812     14807     14810     14813     14808     14807     14809
     14808     14807     14810     14809     14807     14810     14810     14813     14814
     14810     14813     14815     14810     14813     14816     14811     14810     14812
     14811     14810     14813     14812     14810     14813     14813     14816     14817
     14813     14816     14818     14813     14816     14819     14814     14813     14815
     14814     14813     14816     14815     14813     14816     14816     14819     14820
     14816     14819     14821     14817     14816     14818     14817     14816     14819
     14818     14816     14819     14819     14821     14822     14819     14821     14823
     14820     14819     14821     14821     14823     14824     14821     14823     14825
     14821     14823     14826     14822     14821     14823     14823     14826     14827
     14823     14826     14828     14823     14826     14829     14824     14823     14825
     14824     14823     14826     14825     14823     14826     14826     14829     14830
     14826     14829     14831     14826     14829     14832     14827     14826     14828
     14827     14826     14829     14828     14826     14829     14829     14832     14833
     14829     14832     14834     14829     14832     14835     14830     14829     14831
     14830     14829     14832     14831     14829     14832     14832     14835     14836
     14832     14835     14837     14832     14835     14838     14833     14832     14834
     14833     14832     14835     14834     14832     14835     14835     14838     14839
     14835     14838     14840     14835     14838     14841     14836     14835     14837
     14836     14835     14838     14837     14835     14838     14838     14841     14842
     14838     14841     14843     14838     14841     14844     14839     14838     14840
     14839     14838     14841     14840     14838     14841     14841     14844     14845
     14841     14844     14846     14841     14844     14847     14842     14841     14843
     14842     14841     14844     14843     14841     14844     14845     14844     14846
     14845     14844     14847     14846     14844     14847     14848     14851     14852
     14848     14851     14853     14848     14851     14854     14849     14848     14850
     14849     14848     14851     14850     14848     14851     14851     14854     14855
     14851     14854     14856     14851     14854     14857     14852     14851     14853
     14852     14851     14854     14853     14851     14854     14854     14857     14858
     14854     14857     14859     14854     14857     14860     14855     14854     14856
     14855     14854     14857     14856     14854     14857     14857     14860     14861
     14857     14860     14862     14857     14860     14863     14858     14857     14859
     14858     14857     14860     14859     14857     14860     14860     14863     14864
     14860     14863     14865     14860     14863     14866     14861     14860     14862
     14861     14860     14863     14862     14860     14863     14863     14866     14867
     14863     14866     14868     14863     14866     14869     14864     14863     14865
     14864     14863     14866     14865     14863     14866     14866     14869     14870
     14866     14869     14871     14866     14869     14872     14867     14866     14868
     14867     14866     14869     14868     14866     14869     14869     14872     14873
     14869     14872     14874     14869     14872     14875     14870     14869     14871
     14870     14869     14872     14871     14869     14872     14872     14875     14876
     14872     14875     14877     14872     14875     14878     14873     14872     14874
     14873     14872     14875     14874     14872     14875     14875     14878     14879
     14875     14878     14880     14875     14878     14881     14876     14875     14877
     14876     14875     14878     14877     14875     14878     14878     14881     14882
     14878     14881     14883     14878     14881     14884     14879     14878     14880
     14879     14878     14881     14880     14878     14881     14881     14884     14885
     14881     14884     14886     14881     14884     14887     14882     14881     14883
     14882     14881     14884     14883     14881     14884     14884     14887     14888
     14884     14887     14889     14884     14887     14890     14885     14884     14886
     14885     14884     14887     14886     14884     14887     14888     14887     14889
     14888     14887     14890     14889     14887     14890     14891     14892     14893
     14891     14892     14894     14891     14892     14907     14891     14895     14896
     14891     14895     14897     14891     14895     14898     14891     14899     14900
     14891     14899     14901     14891     14899     14902     14891     14903     14904
     14891     14903     14905     14891     14903     14906     14892     14891     14895
     14892     14891     14899     14892     14891     14903     14892     14907     14908
     14892     14907     14909     14892     14907     14913     14893     14892     14894
     14893     14892     14907     14894     14892     14907     14895     14891     14899
     14895     14891     14903     14896     14895     14897     14896     14895     14898
     14897     14895     14898     14899     14891     14903     14900     14899     14901
     14900     14899     14902     14901     14899     14902     14904     14903     14905
     14904     14903     14906     14905     14903     14906     14907     14913     14910
     14908     14907     14909     14908     14907     14913     14909     14907     14913
     14910     14914     14915     14911     14910     14912     14911     14910     14913
     14911     14910     14914     14912     14910     14913     14912     14910     14914
     14913     14910     14914     14914     14915     14916     14914     14915     14917
     14914     14915     14918     14915     14918     14919     14915     14918     14920
     14915     14918     14926     14916     14915     14917     14916     14915     14918
     14917     14915     14918     14918     14920     14921     14918     14926     14927
     14918     14926     14928     14918     14926     14929     14919     14918     14920
     14919     14918     14926     14920     14918     14926     14920     14921     14922
     14920     14921     14923     14921     14923     14924     14921     14923     14925
     14921     14923     14935     14922     14921     14923     14923     14935     14936
     14923     14935     14937     14923     14935     14938     14924     14923     14925
     14924     14923     14935     14925     14923     14935     14926     14929     14930
     14927     14926     14928     14927     14926     14929     14928     14926     14929
     14929     14930     14931     14929     14930     14932     14930     14932     14933
     14930     14932     14934     14930     14932     14982     14931     14930     14932
     14932     14982     14983     14932     14982     14984     14932     14982     14985
     14933     14932     14934     14933     14932     14982     14934     14932     14982
     14935     14938     14939     14935     14938     14940     14935     14938     14941
     14936     14935     14937     14936     14935     14938     14937     14935     14938
     14938     14941     14942     14938     14941     14943     14938     14941     14944
     14939     14938     14940     14939     14938     14941     14940     14938     14941
     14941     14944     14945     14941     14944     14946     14941     14944     14947
     14942     14941     14943     14942     14941     14944     14943     14941     14944
     14944     14947     14948     14944     14947     14949     14944     14947     14950
     14945     14944     14946     14945     14944     14947     14946     14944     14947
     14947     14950     14951     14947     14950     14952     14947     14950     14953
     14948     14947     14949     14948     14947     14950     14949     14947     14950
     14950     14953     14954     14950     14953     14955     14951     14950     14952
     14951     14950     14953     14952     14950     14953     14953     14955     14956
     14953     14955     14957     14954     14953     14955     14955     14957     14958
     14955     14957     14959     14955     14957     14960     14956     14955     14957
     14957     14960     14961     14957     14960     14962     14957     14960     14963
     14958     14957     14959     14958     14957     14960     14959     14957     14960
     14960     14963     14964     14960     14963     14965     14960     14963     14966
     14961     14960     14962     14961     14960     14963     14962     14960     14963
     14963     14966     14967     14963     14966     14968     14963     14966     14969
     14964     14963     14965     14964     14963     14966     14965     14963     14966
     14966     14969     14970     14966     14969     14971     14966     14969     14972
     14967     14966     14968     14967     14966     14969     14968     14966     14969
     14969     14972     14973     14969     14972     14974     14969     14972     14975
     14970     14969     14971     14970     14969     14972     14971     14969     14972
     14972     14975     14976     14972     14975     14977     14972     14975     14978
     14973     14972     14974     14973     14972     14975     14974     14972     14975
     14975     14978     14979     14975     14978     14980     14975     14978     14981
     14976     14975     14977     14976     14975     14978     14977     14975     14978
     14979     14978     14980     14979     14978     14981     14980     14978     14981
     14982     14985     14986     14982     14985     14987     14982     14985     14988
     14983     14982     14984     14983     14982     14985     14984     14982     14985
     14985     14988     14989     14985     14988     14990     14985     14988     14991
     14986     14985     14987     14986     14985     14988     14987     14985     14988
     14988     14991     14992     14988     14991     14993     14988     14991     14994
     14989     14988     14990     14989     14988     14991     14990     14988     14991
     14991     14994     14995     14991     14994     14996     14991     14994     14997
     14992     14991     14993     14992     14991     14994     14993     14991     14994
     14994     14997     14998     14994     14997     14999     14994     14997     15000
     14995     14994     14996     14995     14994     14997     14996     14994     14997
     14997     15000     15001     14997     15000     15002     14997     15000     15003
     14998     14997     14999     14998     14997     15000     14999     14997     15000
     15000     15003     15004     15000     15003     15005     15000     15003     15006
     15001     15000     15002     15001     15000     15003     15002     15000     15003
     15003     15006     15007     15003     15006     15008     15003     15006     15009
     15004     15003     15005     15004     15003     15006     15005     15003     15006
     15006     15009     15010     15006     15009     15011     15006     15009     15012
     15007     15006     15008     15007     15006     15009     15008     15006     15009
     15009     15012     15013     15009     15012     15014     15009     15012     15015
     15010     15009     15011     15010     15009     15012     15011     15009     15012
     15012     15015     15016     15012     15015     15017     15012     15015     15018
     15013     15012     15014     15013     15012     15015     15014     15012     15015
     15015     15018     15019     15015     15018     15020     15015     15018     15021
     15016     15015     15017     15016     15015     15018     15017     15015     15018
     15018     15021     15022     15018     15021     15023     15018     15021     15024
     15019     15018     15020     15019     15018     15021     15020     15018     15021
     15022     15021     15023     15022     15021     15024     15023     15021     15024
     15025     15026     15027     15025     15026     15028     15025     15026     15041
     15025     15029     15030     15025     15029     15031     15025     15029     15032
     15025     15033     15034     15025     15033     15035     15025     15033     15036
     15025     15037     15038     15025     15037     15039     15025     15037     15040
     15026     15025     15029     15026     15025     15033     15026     15025     15037
     15026     15041     15042     15026     15041     15043     15026     15041     15047
     15027     15026     15028     15027     15026     15041     15028     15026     15041
     15029     15025     15033     15029     15025     15037     15030     15029     15031
     15030     15029     15032     15031     15029     15032     15033     15025     15037
     15034     15033     15035     15034     15033     15036     15035     15033     15036
     15038     15037     15039     15038     15037     15040     15039     15037     15040
     15041     15047     15044     15042     15041     15043     15042     15041     15047
     15043     15041     15047     15044     15048     15049     15045     15044     15046
     15045     15044     15047     15045     15044     15048     15046     15044     15047
     15046     15044     15048     15047     15044     15048     15048     15049     15050
     15048     15049     15051     15048     15049     15052     15049     15052     15053
     15049     15052     15054     15049     15052     15060     15050     15049     15051
     15050     15049     15052     15051     15049     15052     15052     15054     15055
     15052     15060     15061     15052     15060     15062     15052     15060     15063
     15053     15052     15054     15053     15052     15060     15054     15052     15060
     15054     15055     15056     15054     15055     15057     15055     15057     15058
     15055     15057     15059     15055     15057     15069     15056     15055     15057
     15057     15069     15070     15057     15069     15071     15057     15069     15072
     15058     15057     15059     15058     15057     15069     15059     15057     15069
     15060     15063     15064     15061     15060     15062     15061     15060     15063
     15062     15060     15063     15063     15064     15065     15063     15064     15066
     15064     15066     15067     15064     15066     15068     15064     15066     15116
     15065     15064     15066     15066     15116     15117     15066     15116     15118
     15066     15116     15119     15067     15066     15068     15067     15066     15116
     15068     15066     15116     15069     15072     15073     15069     15072     15074
     15069     15072     15075     15070     15069     15071     15070     15069     15072
     15071     15069     15072     15072     15075     15076     15072     15075     15077
     15072     15075     15078     15073     15072     15074     15073     15072     15075
     15074     15072     15075     15075     15078     15079     15075     15078     15080
     15075     15078     15081     15076     15075     15077     15076     15075     15078
     15077     15075     15078     15078     15081     15082     15078     15081     15083
     15078     15081     15084     15079     15078     15080     15079     15078     15081
     15080     15078     15081     15081     15084     15085     15081     15084     15086
     15081     15084     15087     15082     15081     15083     15082     15081     15084
     15083     15081     15084     15084     15087     15088     15084     15087     15089
     15085     15084     15086     15085     15084     15087     15086     15084     15087
     15087     15089     15090     15087     15089     15091     15088     15087     15089
     15089     15091     15092     15089     15091     15093     15089     15091     15094
     15090     15089     15091     15091     15094     15095     15091     15094     15096
     15091     15094     15097     15092     15091     15093     15092     15091     15094
     15093     15091     15094     15094     15097     15098     15094     15097     15099
     15094     15097     15100     15095     15094     15096     15095     15094     15097
     15096     15094     15097     15097     15100     15101     15097     15100     15102
     15097     15100     15103     15098     15097     15099     15098     15097     15100
     15099     15097     15100     15100     15103     15104     15100     15103     15105
     15100     15103     15106     15101     15100     15102     15101     15100     15103
     15102     15100     15103     15103     15106     15107     15103     15106     15108
     15103     15106     15109     15104     15103     15105     15104     15103     15106
     15105     15103     15106     15106     15109     15110     15106     15109     15111
     15106     15109     15112     15107     15106     15108     15107     15106     15109
     15108     15106     15109     15109     15112     15113     15109     15112     15114
     15109     15112     15115     15110     15109     15111     15110     15109     15112
     15111     15109     15112     15113     15112     15114     15113     15112     15115
     15114     15112     15115     15116     15119     15120     15116     15119     15121
     15116     15119     15122     15117     15116     15118     15117     15116     15119
     15118     15116     15119     15119     15122     15123     15119     15122     15124
     15119     15122     15125     15120     15119     15121     15120     15119     15122
     15121     15119     15122     15122     15125     15126     15122     15125     15127
     15122     15125     15128     15123     15122     15124     15123     15122     15125
     15124     15122     15125     15125     15128     15129     15125     15128     15130
     15125     15128     15131     15126     15125     15127     15126     15125     15128
     15127     15125     15128     15128     15131     15132     15128     15131     15133
     15128     15131     15134     15129     15128     15130     15129     15128     15131
     15130     15128     15131     15131     15134     15135     15131     15134     15136
     15131     15134     15137     15132     15131     15133     15132     15131     15134
     15133     15131     15134     15134     15137     15138     15134     15137     15139
     15134     15137     15140     15135     15134     15136     15135     15134     15137
     15136     15134     15137     15137     15140     15141     15137     15140     15142
     15137     15140     15143     15138     15137     15139     15138     15137     15140
     15139     15137     15140     15140     15143     15144     15140     15143     15145
     15140     15143     15146     15141     15140     15142     15141     15140     15143
     15142     15140     15143     15143     15146     15147     15143     15146     15148
     15143     15146     15149     15144     15143     15145     15144     15143     15146
     15145     15143     15146     15146     15149     15150     15146     15149     15151
     15146     15149     15152     15147     15146     15148     15147     15146     15149
     15148     15146     15149     15149     15152     15153     15149     15152     15154
     15149     15152     15155     15150     15149     15151     15150     15149     15152
     15151     15149     15152     15152     15155     15156     15152     15155     15157
     15152     15155     15158     15153     15152     15154     15153     15152     15155
     15154     15152     15155     15156     15155     15157     15156     15155     15158
     15157     15155     15158     15159     15160     15161     15159     15160     15162
     15159     15160     15175     15159     15163     15164     15159     15163     15165
     15159     15163     15166     15159     15167     15168     15159     15167     15169
     15159     15167     15170     15159     15171     15172     15159     15171     15173
     15159     15171     15174     15160     15159     15163     15160     15159     15167
     15160     15159     15171     15160     15175     15176     15160     15175     15177
     15160     15175     15181     15161     15160     15162     15161     15160     15175
     15162     15160     15175     15163     15159     15167     15163     15159     15171
     15164     15163     15165     15164     15163     15166     15165     15163     15166
     15167     15159     15171     15168     15167     15169     15168     15167     15170
     15169     15167     15170     15172     15171     15173     15172     15171     15174
     15173     15171     15174     15175     15181     15178     15176     15175     15177
     15176     15175     15181     15177     15175     15181     15178     15182     15183
     15179     15178     15180     15179     15178     15181     15179     15178     15182
     15180     15178     15181     15180     15178     15182     15181     15178     15182
     15182     15183     15184     15182     15183     15185     15182     15183     15186
     15183     15186     15187     15183     15186     15188     15183     15186     15194
     15184     15183     15185     15184     15183     15186     15185     15183     15186
     15186     15188     15189     15186     15194     15195     15186     15194     15196
     15186     15194     15197     15187     15186     15188     15187     15186     15194
     15188     15186     15194     15188     15189     15190     15188     15189     15191
     15189     15191     15192     15189     15191     15193     15189     15191     15203
     15190     15189     15191     15191     15203     15204     15191     15203     15205
     15191     15203     15206     15192     15191     15193     15192     15191     15203
     15193     15191     15203     15194     15197     15198     15195     15194     15196
     15195     15194     15197     15196     15194     15197     15197     15198     15199
     15197     15198     15200     15198     15200     15201     15198     15200     15202
     15198     15200     15250     15199     15198     15200     15200     15250     15251
     15200     15250     15252     15200     15250     15253     15201     15200     15202
     15201     15200     15250     15202     15200     15250     15203     15206     15207
     15203     15206     15208     15203     15206     15209     15204     15203     15205
     15204     15203     15206     15205     15203     15206     15206     15209     15210
     15206     15209     15211     15206     15209     15212     15207     15206     15208
     15207     15206     15209     15208     15206     15209     15209     15212     15213
     15209     15212     15214     15209     15212     15215     15210     15209     15211
     15210     15209     15212     15211     15209     15212     15212     15215     15216
     15212     15215     15217     15212     15215     15218     15213     15212     15214
     15213     15212     15215     15214     15212     15215     15215     15218     15219
     15215     15218     15220     15215     15218     15221     15216     15215     15217
     15216     15215     15218     15217     15215     15218     15218     15221     15222
     15218     15221     15223     15219     15218     15220     15219     15218     15221
     15220     15218     15221     15221     15223     15224     15221     15223     15225
     15222     15221     15223     15223     15225     15226     15223     15225     15227
     15223     15225     15228     15224     15223     15225     15225     15228     15229
     15225     15228     15230     15225     15228     15231     15226     15225     15227
     15226     15225     15228     15227     15225     15228     15228     15231     15232
     15228     15231     15233     15228     15231     15234     15229     15228     15230
     15229     15228     15231     15230     15228     15231     15231     15234     15235
     15231     15234     15236     15231     15234     15237     15232     15231     15233
     15232     15231     15234     15233     15231     15234     15234     15237     15238
     15234     15237     15239     15234     15237     15240     15235     15234     15236
     15235     15234     15237     15236     15234     15237     15237     15240     15241
     15237     15240     15242     15237     15240     15243     15238     15237     15239
     15238     15237     15240     15239     15237     15240     15240     15243     15244
     15240     15243     15245     15240     15243     15246     15241     15240     15242
     15241     15240     15243     15242     15240     15243     15243     15246     15247
     15243     15246     15248     15243     15246     15249     15244     15243     15245
     15244     15243     15246     15245     15243     15246     15247     15246     15248
     15247     15246     15249     15248     15246     15249     15250     15253     15254
     15250     15253     15255     15250     15253     15256     15251     15250     15252
     15251     15250     15253     15252     15250     15253     15253     15256     15257
     15253     15256     15258     15253     15256     15259     15254     15253     15255
     15254     15253     15256     15255     15253     15256     15256     15259     15260
     15256     15259     15261     15256     15259     15262     15257     15256     15258
     15257     15256     15259     15258     15256     15259     15259     15262     15263
     15259     15262     15264     15259     15262     15265     15260     15259     15261
     15260     15259     15262     15261     15259     15262     15262     15265     15266
     15262     15265     15267     15262     15265     15268     15263     15262     15264
     15263     15262     15265     15264     15262     15265     15265     15268     15269
     15265     15268     15270     15265     15268     15271     15266     15265     15267
     15266     15265     15268     15267     15265     15268     15268     15271     15272
     15268     15271     15273     15268     15271     15274     15269     15268     15270
     15269     15268     15271     15270     15268     15271     15271     15274     15275
     15271     15274     15276     15271     15274     15277     15272     15271     15273
     15272     15271     15274     15273     15271     15274     15274     15277     15278
     15274     15277     15279     15274     15277     15280     15275     15274     15276
     15275     15274     15277     15276     15274     15277     15277     15280     15281
     15277     15280     15282     15277     15280     15283     15278     15277     15279
     15278     15277     15280     15279     15277     15280     15280     15283     15284
     15280     15283     15285     15280     15283     15286     15281     15280     15282
     15281     15280     15283     15282     15280     15283     15283     15286     15287
     15283     15286     15288     15283     15286     15289     15284     15283     15285
     15284     15283     15286     15285     15283     15286     15286     15289     15290
     15286     15289     15291     15286     15289     15292     15287     15286     15288
     15287     15286     15289     15288     15286     15289     15290     15289     15291
     15290     15289     15292     15291     15289     15292     15293     15294     15295
     15293     15294     15296     15293     15294     15309     15293     15297     15298
     15293     15297     15299     15293     15297     15300     15293     15301     15302
     15293     15301     15303     15293     15301     15304     15293     15305     15306
     15293     15305     15307     15293     15305     15308     15294     15293     15297
     15294     15293     15301     15294     15293     15305     15294     15309     15310
     15294     15309     15311     15294     15309     15315     15295     15294     15296
     15295     15294     15309     15296     15294     15309     15297     15293     15301
     15297     15293     15305     15298     15297     15299     15298     15297     15300
     15299     15297     15300     15301     15293     15305     15302     15301     15303
     15302     15301     15304     15303     15301     15304     15306     15305     15307
     15306     15305     15308     15307     15305     15308     15309     15315     15312
     15310     15309     15311     15310     15309     15315     15311     15309     15315
     15312     15316     15317     15313     15312     15314     15313     15312     15315
     15313     15312     15316     15314     15312     15315     15314     15312     15316
     15315     15312     15316     15316     15317     15318     15316     15317     15319
     15316     15317     15320     15317     15320     15321     15317     15320     15322
     15317     15320     15328     15318     15317     15319     15318     15317     15320
     15319     15317     15320     15320     15322     15323     15320     15328     15329
     15320     15328     15330     15320     15328     15331     15321     15320     15322
     15321     15320     15328     15322     15320     15328     15322     15323     15324
     15322     15323     15325     15323     15325     15326     15323     15325     15327
     15323     15325     15337     15324     15323     15325     15325     15337     15338
     15325     15337     15339     15325     15337     15340     15326     15325     15327
     15326     15325     15337     15327     15325     15337     15328     15331     15332
     15329     15328     15330     15329     15328     15331     15330     15328     15331
     15331     15332     15333     15331     15332     15334     15332     15334     15335
     15332     15334     15336     15332     15334     15384     15333     15332     15334
     15334     15384     15385     15334     15384     15386     15334     15384     15387
     15335     15334     15336     15335     15334     15384     15336     15334     15384
     15337     15340     15341     15337     15340     15342     15337     15340     15343
     15338     15337     15339     15338     15337     15340     15339     15337     15340
     15340     15343     15344     15340     15343     15345     15340     15343     15346
     15341     15340     15342     15341     15340     15343     15342     15340     15343
     15343     15346     15347     15343     15346     15348     15343     15346     15349
     15344     15343     15345     15344     15343     15346     15345     15343     15346
     15346     15349     15350     15346     15349     15351     15346     15349     15352
     15347     15346     15348     15347     15346     15349     15348     15346     15349
     15349     15352     15353     15349     15352     15354     15349     15352     15355
     15350     15349     15351     15350     15349     15352     15351     15349     15352
     15352     15355     15356     15352     15355     15357     15353     15352     15354
     15353     15352     15355     15354     15352     15355     15355     15357     15358
     15355     15357     15359     15356     15355     15357     15357     15359     15360
     15357     15359     15361     15357     15359     15362     15358     15357     15359
     15359     15362     15363     15359     15362     15364     15359     15362     15365
     15360     15359     15361     15360     15359     15362     15361     15359     15362
     15362     15365     15366     15362     15365     15367     15362     15365     15368
     15363     15362     15364     15363     15362     15365     15364     15362     15365
     15365     15368     15369     15365     15368     15370     15365     15368     15371
     15366     15365     15367     15366     15365     15368     15367     15365     15368
     15368     15371     15372     15368     15371     15373     15368     15371     15374
     15369     15368     15370     15369     15368     15371     15370     15368     15371
     15371     15374     15375     15371     15374     15376     15371     15374     15377
     15372     15371     15373     15372     15371     15374     15373     15371     15374
     15374     15377     15378     15374     15377     15379     15374     15377     15380
     15375     15374     15376     15375     15374     15377     15376     15374     15377
     15377     15380     15381     15377     15380     15382     15377     15380     15383
     15378     15377     15379     15378     15377     15380     15379     15377     15380
     15381     15380     15382     15381     15380     15383     15382     15380     15383
     15384     15387     15388     15384     15387     15389     15384     15387     15390
     15385     15384     15386     15385     15384     15387     15386     15384     15387
     15387     15390     15391     15387     15390     15392     15387     15390     15393
     15388     15387     15389     15388     15387     15390     15389     15387     15390
     15390     15393     15394     15390     15393     15395     15390     15393     15396
     15391     15390     15392     15391     15390     15393     15392     15390     15393
     15393     15396     15397     15393     15396     15398     15393     15396     15399
     15394     15393     15395     15394     15393     15396     15395     15393     15396
     15396     15399     15400     15396     15399     15401     15396     15399     15402
     15397     15396     15398     15397     15396     15399     15398     15396     15399
     15399     15402     15403     15399     15402     15404     15399     15402     15405
     15400     15399     15401     15400     15399     15402     15401     15399     15402
     15402     15405     15406     15402     15405     15407     15402     15405     15408
     15403     15402     15404     15403     15402     15405     15404     15402     15405
     15405     15408     15409     15405     15408     15410     15405     15408     15411
     15406     15405     15407     15406     15405     15408     15407     15405     15408
     15408     15411     15412     15408     15411     15413     15408     15411     15414
     15409     15408     15410     15409     15408     15411     15410     15408     15411
     15411     15414     15415     15411     15414     15416     15411     15414     15417
     15412     15411     15413     15412     15411     15414     15413     15411     15414
     15414     15417     15418     15414     15417     15419     15414     15417     15420
     15415     15414     15416     15415     15414     15417     15416     15414     15417
     15417     15420     15421     15417     15420     15422     15417     15420     15423
     15418     15417     15419     15418     15417     15420     15419     15417     15420
     15420     15423     15424     15420     15423     15425     15420     15423     15426
     15421     15420     15422     15421     15420     15423     15422     15420     15423
     15424     15423     15425     15424     15423     15426     15425     15423     15426
     15427     15428     15429     15427     15428     15430     15427     15428     15443
     15427     15431     15432     15427     15431     15433     15427     15431     15434
     15427     15435     15436     15427     15435     15437     15427     15435     15438
     15427     15439     15440     15427     15439     15441     15427     15439     15442
     15428     15427     15431     15428     15427     15435     15428     15427     15439
     15428     15443     15444     15428     15443     15445     15428     15443     15449
     15429     15428     15430     15429     15428     15443     15430     15428     15443
     15431     15427     15435     15431     15427     15439     15432     15431     15433
     15432     15431     15434     15433     15431     15434     15435     15427     15439
     15436     15435     15437     15436     15435     15438     15437     15435     15438
     15440     15439     15441     15440     15439     15442     15441     15439     15442
     15443     15449     15446     15444     15443     15445     15444     15443     15449
     15445     15443     15449     15446     15450     15451     15447     15446     15448
     15447     15446     15449     15447     15446     15450     15448     15446     15449
     15448     15446     15450     15449     15446     15450     15450     15451     15452
     15450     15451     15453     15450     15451     15454     15451     15454     15455
     15451     15454     15456     15451     15454     15462     15452     15451     15453
     15452     15451     15454     15453     15451     15454     15454     15456     15457
     15454     15462     15463     15454     15462     15464     15454     15462     15465
     15455     15454     15456     15455     15454     15462     15456     15454     15462
     15456     15457     15458     15456     15457     15459     15457     15459     15460
     15457     15459     15461     15457     15459     15471     15458     15457     15459
     15459     15471     15472     15459     15471     15473     15459     15471     15474
     15460     15459     15461     15460     15459     15471     15461     15459     15471
     15462     15465     15466     15463     15462     15464     15463     15462     15465
     15464     15462     15465     15465     15466     15467     15465     15466     15468
     15466     15468     15469     15466     15468     15470     15466     15468     15518
     15467     15466     15468     15468     15518     15519     15468     15518     15520
     15468     15518     15521     15469     15468     15470     15469     15468     15518
     15470     15468     15518     15471     15474     15475     15471     15474     15476
     15471     15474     15477     15472     15471     15473     15472     15471     15474
     15473     15471     15474     15474     15477     15478     15474     15477     15479
     15474     15477     15480     15475     15474     15476     15475     15474     15477
     15476     15474     15477     15477     15480     15481     15477     15480     15482
     15477     15480     15483     15478     15477     15479     15478     15477     15480
     15479     15477     15480     15480     15483     15484     15480     15483     15485
     15480     15483     15486     15481     15480     15482     15481     15480     15483
     15482     15480     15483     15483     15486     15487     15483     15486     15488
     15483     15486     15489     15484     15483     15485     15484     15483     15486
     15485     15483     15486     15486     15489     15490     15486     15489     15491
     15487     15486     15488     15487     15486     15489     15488     15486     15489
     15489     15491     15492     15489     15491     15493     15490     15489     15491
     15491     15493     15494     15491     15493     15495     15491     15493     15496
     15492     15491     15493     15493     15496     15497     15493     15496     15498
     15493     15496     15499     15494     15493     15495     15494     15493     15496
     15495     15493     15496     15496     15499     15500     15496     15499     15501
     15496     15499     15502     15497     15496     15498     15497     15496     15499
     15498     15496     15499     15499     15502     15503     15499     15502     15504
     15499     15502     15505     15500     15499     15501     15500     15499     15502
     15501     15499     15502     15502     15505     15506     15502     15505     15507
     15502     15505     15508     15503     15502     15504     15503     15502     15505
     15504     15502     15505     15505     15508     15509     15505     15508     15510
     15505     15508     15511     15506     15505     15507     15506     15505     15508
     15507     15505     15508     15508     15511     15512     15508     15511     15513
     15508     15511     15514     15509     15508     15510     15509     15508     15511
     15510     15508     15511     15511     15514     15515     15511     15514     15516
     15511     15514     15517     15512     15511     15513     15512     15511     15514
     15513     15511     15514     15515     15514     15516     15515     15514     15517
     15516     15514     15517     15518     15521     15522     15518     15521     15523
     15518     15521     15524     15519     15518     15520     15519     15518     15521
     15520     15518     15521     15521     15524     15525     15521     15524     15526
     15521     15524     15527     15522     15521     15523     15522     15521     15524
     15523     15521     15524     15524     15527     15528     15524     15527     15529
     15524     15527     15530     15525     15524     15526     15525     15524     15527
     15526     15524     15527     15527     15530     15531     15527     15530     15532
     15527     15530     15533     15528     15527     15529     15528     15527     15530
     15529     15527     15530     15530     15533     15534     15530     15533     15535
     15530     15533     15536     15531     15530     15532     15531     15530     15533
     15532     15530     15533     15533     15536     15537     15533     15536     15538
     15533     15536     15539     15534     15533     15535     15534     15533     15536
     15535     15533     15536     15536     15539     15540     15536     15539     15541
     15536     15539     15542     15537     15536     15538     15537     15536     15539
     15538     15536     15539     15539     15542     15543     15539     15542     15544
     15539     15542     15545     15540     15539     15541     15540     15539     15542
     15541     15539     15542     15542     15545     15546     15542     15545     15547
     15542     15545     15548     15543     15542     15544     15543     15542     15545
     15544     15542     15545     15545     15548     15549     15545     15548     15550
     15545     15548     15551     15546     15545     15547     15546     15545     15548
     15547     15545     15548     15548     15551     15552     15548     15551     15553
     15548     15551     15554     15549     15548     15550     15549     15548     15551
     15550     15548     15551     15551     15554     15555     15551     15554     15556
     15551     15554     15557     15552     15551     15553     15552     15551     15554
     15553     15551     15554     15554     15557     15558     15554     15557     15559
     15554     15557     15560     15555     15554     15556     15555     15554     15557
     15556     15554     15557     15558     15557     15559     15558     15557     15560
     15559     15557     15560     15561     15562     15563     15561     15562     15564
     15561     15562     15577     15561     15565     15566     15561     15565     15567
     15561     15565     15568     15561     15569     15570     15561     15569     15571
     15561     15569     15572     15561     15573     15574     15561     15573     15575
     15561     15573     15576     15562     15561     15565     15562     15561     15569
     15562     15561     15573     15562     15577     15578     15562     15577     15579
     15562     15577     15583     15563     15562     15564     15563     15562     15577
     15564     15562     15577     15565     15561     15569     15565     15561     15573
     15566     15565     15567     15566     15565     15568     15567     15565     15568
     15569     15561     15573     15570     15569     15571     15570     15569     15572
     15571     15569     15572     15574     15573     15575     15574     15573     15576
     15575     15573     15576     15577     15583     15580     15578     15577     15579
     15578     15577     15583     15579     15577     15583     15580     15584     15585
     15581     15580     15582     15581     15580     15583     15581     15580     15584
     15582     15580     15583     15582     15580     15584     15583     15580     15584
     15584     15585     15586     15584     15585     15587     15584     15585     15588
     15585     15588     15589     15585     15588     15590     15585     15588     15596
     15586     15585     15587     15586     15585     15588     15587     15585     15588
     15588     15590     15591     15588     15596     15597     15588     15596     15598
     15588     15596     15599     15589     15588     15590     15589     15588     15596
     15590     15588     15596     15590     15591     15592     15590     15591     15593
     15591     15593     15594     15591     15593     15595     15591     15593     15605
     15592     15591     15593     15593     15605     15606     15593     15605     15607
     15593     15605     15608     15594     15593     15595     15594     15593     15605
     15595     15593     15605     15596     15599     15600     15597     15596     15598
     15597     15596     15599     15598     15596     15599     15599     15600     15601
     15599     15600     15602     15600     15602     15603     15600     15602     15604
     15600     15602     15652     15601     15600     15602     15602     15652     15653
     15602     15652     15654     15602     15652     15655     15603     15602     15604
     15603     15602     15652     15604     15602     15652     15605     15608     15609
     15605     15608     15610     15605     15608     15611     15606     15605     15607
     15606     15605     15608     15607     15605     15608     15608     15611     15612
     15608     15611     15613     15608     15611     15614     15609     15608     15610
     15609     15608     15611     15610     15608     15611     15611     15614     15615
     15611     15614     15616     15611     15614     15617     15612     15611     15613
     15612     15611     15614     15613     15611     15614     15614     15617     15618
     15614     15617     15619     15614     15617     15620     15615     15614     15616
     15615     15614     15617     15616     15614     15617     15617     15620     15621
     15617     15620     15622     15617     15620     15623     15618     15617     15619
     15618     15617     15620     15619     15617     15620     15620     15623     15624
     15620     15623     15625     15621     15620     15622     15621     15620     15623
     15622     15620     15623     15623     15625     15626     15623     15625     15627
     15624     15623     15625     15625     15627     15628     15625     15627     15629
     15625     15627     15630     15626     15625     15627     15627     15630     15631
     15627     15630     15632     15627     15630     15633     15628     15627     15629
     15628     15627     15630     15629     15627     15630     15630     15633     15634
     15630     15633     15635     15630     15633     15636     15631     15630     15632
     15631     15630     15633     15632     15630     15633     15633     15636     15637
     15633     15636     15638     15633     15636     15639     15634     15633     15635
     15634     15633     15636     15635     15633     15636     15636     15639     15640
     15636     15639     15641     15636     15639     15642     15637     15636     15638
     15637     15636     15639     15638     15636     15639     15639     15642     15643
     15639     15642     15644     15639     15642     15645     15640     15639     15641
     15640     15639     15642     15641     15639     15642     15642     15645     15646
     15642     15645     15647     15642     15645     15648     15643     15642     15644
     15643     15642     15645     15644     15642     15645     15645     15648     15649
     15645     15648     15650     15645     15648     15651     15646     15645     15647
     15646     15645     15648     15647     15645     15648     15649     15648     15650
     15649     15648     15651     15650     15648     15651     15652     15655     15656
     15652     15655     15657     15652     15655     15658     15653     15652     15654
     15653     15652     15655     15654     15652     15655     15655     15658     15659
     15655     15658     15660     15655     15658     15661     15656     15655     15657
     15656     15655     15658     15657     15655     15658     15658     15661     15662
     15658     15661     15663     15658     15661     15664     15659     15658     15660
     15659     15658     15661     15660     15658     15661     15661     15664     15665
     15661     15664     15666     15661     15664     15667     15662     15661     15663
     15662     15661     15664     15663     15661     15664     15664     15667     15668
     15664     15667     15669     15664     15667     15670     15665     15664     15666
     15665     15664     15667     15666     15664     15667     15667     15670     15671
     15667     15670     15672     15667     15670     15673     15668     15667     15669
     15668     15667     15670     15669     15667     15670     15670     15673     15674
     15670     15673     15675     15670     15673     15676     15671     15670     15672
     15671     15670     15673     15672     15670     15673     15673     15676     15677
     15673     15676     15678     15673     15676     15679     15674     15673     15675
     15674     15673     15676     15675     15673     15676     15676     15679     15680
     15676     15679     15681     15676     15679     15682     15677     15676     15678
     15677     15676     15679     15678     15676     15679     15679     15682     15683
     15679     15682     15684     15679     15682     15685     15680     15679     15681
     15680     15679     15682     15681     15679     15682     15682     15685     15686
     15682     15685     15687     15682     15685     15688     15683     15682     15684
     15683     15682     15685     15684     15682     15685     15685     15688     15689
     15685     15688     15690     15685     15688     15691     15686     15685     15687
     15686     15685     15688     15687     15685     15688     15688     15691     15692
     15688     15691     15693     15688     15691     15694     15689     15688     15690
     15689     15688     15691     15690     15688     15691     15692     15691     15693
     15692     15691     15694     15693     15691     15694     15695     15696     15697
     15695     15696     15698     15695     15696     15711     15695     15699     15700
     15695     15699     15701     15695     15699     15702     15695     15703     15704
     15695     15703     15705     15695     15703     15706     15695     15707     15708
     15695     15707     15709     15695     15707     15710     15696     15695     15699
     15696     15695     15703     15696     15695     15707     15696     15711     15712
     15696     15711     15713     15696     15711     15717     15697     15696     15698
     15697     15696     15711     15698     15696     15711     15699     15695     15703
     15699     15695     15707     15700     15699     15701     15700     15699     15702
     15701     15699     15702     15703     15695     15707     15704     15703     15705
     15704     15703     15706     15705     15703     15706     15708     15707     15709
     15708     15707     15710     15709     15707     15710     15711     15717     15714
     15712     15711     15713     15712     15711     15717     15713     15711     15717
     15714     15718     15719     15715     15714     15716     15715     15714     15717
     15715     15714     15718     15716     15714     15717     15716     15714     15718
     15717     15714     15718     15718     15719     15720     15718     15719     15721
     15718     15719     15722     15719     15722     15723     15719     15722     15724
     15719     15722     15730     15720     15719     15721     15720     15719     15722
     15721     15719     15722     15722     15724     15725     15722     15730     15731
     15722     15730     15732     15722     15730     15733     15723     15722     15724
     15723     15722     15730     15724     15722     15730     15724     15725     15726
     15724     15725     15727     15725     15727     15728     15725     15727     15729
     15725     15727     15739     15726     15725     15727     15727     15739     15740
     15727     15739     15741     15727     15739     15742     15728     15727     15729
     15728     15727     15739     15729     15727     15739     15730     15733     15734
     15731     15730     15732     15731     15730     15733     15732     15730     15733
     15733     15734     15735     15733     15734     15736     15734     15736     15737
     15734     15736     15738     15734     15736     15786     15735     15734     15736
     15736     15786     15787     15736     15786     15788     15736     15786     15789
     15737     15736     15738     15737     15736     15786     15738     15736     15786
     15739     15742     15743     15739     15742     15744     15739     15742     15745
     15740     15739     15741     15740     15739     15742     15741     15739     15742
     15742     15745     15746     15742     15745     15747     15742     15745     15748
     15743     15742     15744     15743     15742     15745     15744     15742     15745
     15745     15748     15749     15745     15748     15750     15745     15748     15751
     15746     15745     15747     15746     15745     15748     15747     15745     15748
     15748     15751     15752     15748     15751     15753     15748     15751     15754
     15749     15748     15750     15749     15748     15751     15750     15748     15751
     15751     15754     15755     15751     15754     15756     15751     15754     15757
     15752     15751     15753     15752     15751     15754     15753     15751     15754
     15754     15757     15758     15754     15757     15759     15755     15754     15756
     15755     15754     15757     15756     15754     15757     15757     15759     15760
     15757     15759     15761     15758     15757     15759     15759     15761     15762
     15759     15761     15763     15759     15761     15764     15760     15759     15761
     15761     15764     15765     15761     15764     15766     15761     15764     15767
     15762     15761     15763     15762     15761     15764     15763     15761     15764
     15764     15767     15768     15764     15767     15769     15764     15767     15770
     15765     15764     15766     15765     15764     15767     15766     15764     15767
     15767     15770     15771     15767     15770     15772     15767     15770     15773
     15768     15767     15769     15768     15767     15770     15769     15767     15770
     15770     15773     15774     15770     15773     15775     15770     15773     15776
     15771     15770     15772     15771     15770     15773     15772     15770     15773
     15773     15776     15777     15773     15776     15778     15773     15776     15779
     15774     15773     15775     15774     15773     15776     15775     15773     15776
     15776     15779     15780     15776     15779     15781     15776     15779     15782
     15777     15776     15778     15777     15776     15779     15778     15776     15779
     15779     15782     15783     15779     15782     15784     15779     15782     15785
     15780     15779     15781     15780     15779     15782     15781     15779     15782
     15783     15782     15784     15783     15782     15785     15784     15782     15785
     15786     15789     15790     15786     15789     15791     15786     15789     15792
     15787     15786     15788     15787     15786     15789     15788     15786     15789
     15789     15792     15793     15789     15792     15794     15789     15792     15795
     15790     15789     15791     15790     15789     15792     15791     15789     15792
     15792     15795     15796     15792     15795     15797     15792     15795     15798
     15793     15792     15794     15793     15792     15795     15794     15792     15795
     15795     15798     15799     15795     15798     15800     15795     15798     15801
     15796     15795     15797     15796     15795     15798     15797     15795     15798
     15798     15801     15802     15798     15801     15803     15798     15801     15804
     15799     15798     15800     15799     15798     15801     15800     15798     15801
     15801     15804     15805     15801     15804     15806     15801     15804     15807
     15802     15801     15803     15802     15801     15804     15803     15801     15804
     15804     15807     15808     15804     15807     15809     15804     15807     15810
     15805     15804     15806     15805     15804     15807     15806     15804     15807
     15807     15810     15811     15807     15810     15812     15807     15810     15813
     15808     15807     15809     15808     15807     15810     15809     15807     15810
     15810     15813     15814     15810     15813     15815     15810     15813     15816
     15811     15810     15812     15811     15810     15813     15812     15810     15813
     15813     15816     15817     15813     15816     15818     15813     15816     15819
     15814     15813     15815     15814     15813     15816     15815     15813     15816
     15816     15819     15820     15816     15819     15821     15816     15819     15822
     15817     15816     15818     15817     15816     15819     15818     15816     15819
     15819     15822     15823     15819     15822     15824     15819     15822     15825
     15820     15819     15821     15820     15819     15822     15821     15819     15822
     15822     15825     15826     15822     15825     15827     15822     15825     15828
     15823     15822     15824     15823     15822     15825     15824     15822     15825
     15826     15825     15827     15826     15825     15828     15827     15825     15828
     15829     15830     15831     15829     15830     15832     15829     15830     15845
     15829     15833     15834     15829     15833     15835     15829     15833     15836
     15829     15837     15838     15829     15837     15839     15829     15837     15840
     15829     15841     15842     15829     15841     15843     15829     15841     15844
     15830     15829     15833     15830     15829     15837     15830     15829     15841
     15830     15845     15846     15830     15845     15847     15830     15845     15851
     15831     15830     15832     15831     15830     15845     15832     15830     15845
     15833     15829     15837     15833     15829     15841     15834     15833     15835
     15834     15833     15836     15835     15833     15836     15837     15829     15841
     15838     15837     15839     15838     15837     15840     15839     15837     15840
     15842     15841     15843     15842     15841     15844     15843     15841     15844
     15845     15851     15848     15846     15845     15847     15846     15845     15851
     15847     15845     15851     15848     15852     15853     15849     15848     15850
     15849     15848     15851     15849     15848     15852     15850     15848     15851
     15850     15848     15852     15851     15848     15852     15852     15853     15854
     15852     15853     15855     15852     15853     15856     15853     15856     15857
     15853     15856     15858     15853     15856     15864     15854     15853     15855
     15854     15853     15856     15855     15853     15856     15856     15858     15859
     15856     15864     15865     15856     15864     15866     15856     15864     15867
     15857     15856     15858     15857     15856     15864     15858     15856     15864
     15858     15859     15860     15858     15859     15861     15859     15861     15862
     15859     15861     15863     15859     15861     15873     15860     15859     15861
     15861     15873     15874     15861     15873     15875     15861     15873     15876
     15862     15861     15863     15862     15861     15873     15863     15861     15873
     15864     15867     15868     15865     15864     15866     15865     15864     15867
     15866     15864     15867     15867     15868     15869     15867     15868     15870
     15868     15870     15871     15868     15870     15872     15868     15870     15920
     15869     15868     15870     15870     15920     15921     15870     15920     15922
     15870     15920     15923     15871     15870     15872     15871     15870     15920
     15872     15870     15920     15873     15876     15877     15873     15876     15878
     15873     15876     15879     15874     15873     15875     15874     15873     15876
     15875     15873     15876     15876     15879     15880     15876     15879     15881
     15876     15879     15882     15877     15876     15878     15877     15876     15879
     15878     15876     15879     15879     15882     15883     15879     15882     15884
     15879     15882     15885     15880     15879     15881     15880     15879     15882
     15881     15879     15882     15882     15885     15886     15882     15885     15887
     15882     15885     15888     15883     15882     15884     15883     15882     15885
     15884     15882     15885     15885     15888     15889     15885     15888     15890
     15885     15888     15891     15886     15885     15887     15886     15885     15888
     15887     15885     15888     15888     15891     15892     15888     15891     15893
     15889     15888     15890     15889     15888     15891     15890     15888     15891
     15891     15893     15894     15891     15893     15895     15892     15891     15893
     15893     15895     15896     15893     15895     15897     15893     15895     15898
     15894     15893     15895     15895     15898     15899     15895     15898     15900
     15895     15898     15901     15896     15895     15897     15896     15895     15898
     15897     15895     15898     15898     15901     15902     15898     15901     15903
     15898     15901     15904     15899     15898     15900     15899     15898     15901
     15900     15898     15901     15901     15904     15905     15901     15904     15906
     15901     15904     15907     15902     15901     15903     15902     15901     15904
     15903     15901     15904     15904     15907     15908     15904     15907     15909
     15904     15907     15910     15905     15904     15906     15905     15904     15907
     15906     15904     15907     15907     15910     15911     15907     15910     15912
     15907     15910     15913     15908     15907     15909     15908     15907     15910
     15909     15907     15910     15910     15913     15914     15910     15913     15915
     15910     15913     15916     15911     15910     15912     15911     15910     15913
     15912     15910     15913     15913     15916     15917     15913     15916     15918
     15913     15916     15919     15914     15913     15915     15914     15913     15916
     15915     15913     15916     15917     15916     15918     15917     15916     15919
     15918     15916     15919     15920     15923     15924     15920     15923     15925
     15920     15923     15926     15921     15920     15922     15921     15920     15923
     15922     15920     15923     15923     15926     15927     15923     15926     15928
     15923     15926     15929     15924     15923     15925     15924     15923     15926
     15925     15923     15926     15926     15929     15930     15926     15929     15931
     15926     15929     15932     15927     15926     15928     15927     15926     15929
     15928     15926     15929     15929     15932     15933     15929     15932     15934
     15929     15932     15935     15930     15929     15931     15930     15929     15932
     15931     15929     15932     15932     15935     15936     15932     15935     15937
     15932     15935     15938     15933     15932     15934     15933     15932     15935
     15934     15932     15935     15935     15938     15939     15935     15938     15940
     15935     15938     15941     15936     15935     15937     15936     15935     15938
     15937     15935     15938     15938     15941     15942     15938     15941     15943
     15938     15941     15944     15939     15938     15940     15939     15938     15941
     15940     15938     15941     15941     15944     15945     15941     15944     15946
     15941     15944     15947     15942     15941     15943     15942     15941     15944
     15943     15941     15944     15944     15947     15948     15944     15947     15949
     15944     15947     15950     15945     15944     15946     15945     15944     15947
     15946     15944     15947     15947     15950     15951     15947     15950     15952
     15947     15950     15953     15948     15947     15949     15948     15947     15950
     15949     15947     15950     15950     15953     15954     15950     15953     15955
     15950     15953     15956     15951     15950     15952     15951     15950     15953
     15952     15950     15953     15953     15956     15957     15953     15956     15958
     15953     15956     15959     15954     15953     15955     15954     15953     15956
     15955     15953     15956     15956     15959     15960     15956     15959     15961
     15956     15959     15962     15957     15956     15958     15957     15956     15959
     15958     15956     15959     15960     15959     15961     15960     15959     15962
     15961     15959     15962     15963     15964     15965     15963     15964     15966
     15963     15964     15979     15963     15967     15968     15963     15967     15969
     15963     15967     15970     15963     15971     15972     15963     15971     15973
     15963     15971     15974     15963     15975     15976     15963     15975     15977
     15963     15975     15978     15964     15963     15967     15964     15963     15971
     15964     15963     15975     15964     15979     15980     15964     15979     15981
     15964     15979     15985     15965     15964     15966     15965     15964     15979
     15966     15964     15979     15967     15963     15971     15967     15963     15975
     15968     15967     15969     15968     15967     15970     15969     15967     15970
     15971     15963     15975     15972     15971     15973     15972     15971     15974
     15973     15971     15974     15976     15975     15977     15976     15975     15978
     15977     15975     15978     15979     15985     15982     15980     15979     15981
     15980     15979     15985     15981     15979     15985     15982     15986     15987
     15983     15982     15984     15983     15982     15985     15983     15982     15986
     15984     15982     15985     15984     15982     15986     15985     15982     15986
     15986     15987     15988     15986     15987     15989     15986     15987     15990
     15987     15990     15991     15987     15990     15992     15987     15990     15998
     15988     15987     15989     15988     15987     15990     15989     15987     15990
     15990     15992     15993     15990     15998     15999     15990     15998     16000
     15990     15998     16001     15991     15990     15992     15991     15990     15998
     15992     15990     15998     15992     15993     15994     15992     15993     15995
     15993     15995     15996     15993     15995     15997     15993     15995     16007
     15994     15993     15995     15995     16007     16008     15995     16007     16009
     15995     16007     16010     15996     15995     15997     15996     15995     16007
     15997     15995     16007     15998     16001     16002     15999     15998     16000
     15999     15998     16001     16000     15998     16001     16001     16002     16003
     16001     16002     16004     16002     16004     16005     16002     16004     16006
     16002     16004     16054     16003     16002     16004     16004     16054     16055
     16004     16054     16056     16004     16054     16057     16005     16004     16006
     16005     16004     16054     16006     16004     16054     16007     16010     16011
     16007     16010     16012     16007     16010     16013     16008     16007     16009
     16008     16007     16010     16009     16007     16010     16010     16013     16014
     16010     16013     16015     16010     16013     16016     16011     16010     16012
     16011     16010     16013     16012     16010     16013     16013     16016     16017
     16013     16016     16018     16013     16016     16019     16014     16013     16015
     16014     16013     16016     16015     16013     16016     16016     16019     16020
     16016     16019     16021     16016     16019     16022     16017     16016     16018
     16017     16016     16019     16018     16016     16019     16019     16022     16023
     16019     16022     16024     16019     16022     16025     16020     16019     16021
     16020     16019     16022     16021     16019     16022     16022     16025     16026
     16022     16025     16027     16023     16022     16024     16023     16022     16025
     16024     16022     16025     16025     16027     16028     16025     16027     16029
     16026     16025     16027     16027     16029     16030     16027     16029     16031
     16027     16029     16032     16028     16027     16029     16029     16032     16033
     16029     16032     16034     16029     16032     16035     16030     16029     16031
     16030     16029     16032     16031     16029     16032     16032     16035     16036
     16032     16035     16037     16032     16035     16038     16033     16032     16034
     16033     16032     16035     16034     16032     16035     16035     16038     16039
     16035     16038     16040     16035     16038     16041     16036     16035     16037
     16036     16035     16038     16037     16035     16038     16038     16041     16042
     16038     16041     16043     16038     16041     16044     16039     16038     16040
     16039     16038     16041     16040     16038     16041     16041     16044     16045
     16041     16044     16046     16041     16044     16047     16042     16041     16043
     16042     16041     16044     16043     16041     16044     16044     16047     16048
     16044     16047     16049     16044     16047     16050     16045     16044     16046
     16045     16044     16047     16046     16044     16047     16047     16050     16051
     16047     16050     16052     16047     16050     16053     16048     16047     16049
     16048     16047     16050     16049     16047     16050     16051     16050     16052
     16051     16050     16053     16052     16050     16053     16054     16057     16058
     16054     16057     16059     16054     16057     16060     16055     16054     16056
     16055     16054     16057     16056     16054     16057     16057     16060     16061
     16057     16060     16062     16057     16060     16063     16058     16057     16059
     16058     16057     16060     16059     16057     16060     16060     16063     16064
     16060     16063     16065     16060     16063     16066     16061     16060     16062
     16061     16060     16063     16062     16060     16063     16063     16066     16067
     16063     16066     16068     16063     16066     16069     16064     16063     16065
     16064     16063     16066     16065     16063     16066     16066     16069     16070
     16066     16069     16071     16066     16069     16072     16067     16066     16068
     16067     16066     16069     16068     16066     16069     16069     16072     16073
     16069     16072     16074     16069     16072     16075     16070     16069     16071
     16070     16069     16072     16071     16069     16072     16072     16075     16076
     16072     16075     16077     16072     16075     16078     16073     16072     16074
     16073     16072     16075     16074     16072     16075     16075     16078     16079
     16075     16078     16080     16075     16078     16081     16076     16075     16077
     16076     16075     16078     16077     16075     16078     16078     16081     16082
     16078     16081     16083     16078     16081     16084     16079     16078     16080
     16079     16078     16081     16080     16078     16081     16081     16084     16085
     16081     16084     16086     16081     16084     16087     16082     16081     16083
     16082     16081     16084     16083     16081     16084     16084     16087     16088
     16084     16087     16089     16084     16087     16090     16085     16084     16086
     16085     16084     16087     16086     16084     16087     16087     16090     16091
     16087     16090     16092     16087     16090     16093     16088     16087     16089
     16088     16087     16090     16089     16087     16090     16090     16093     16094
     16090     16093     16095     16090     16093     16096     16091     16090     16092
     16091     16090     16093     16092     16090     16093     16094     16093     16095
     16094     16093     16096     16095     16093     16096     16097     16098     16099
     16097     16098     16100     16097     16098     16113     16097     16101     16102
     16097     16101     16103     16097     16101     16104     16097     16105     16106
     16097     16105     16107     16097     16105     16108     16097     16109     16110
     16097     16109     16111     16097     16109     16112     16098     16097     16101
     16098     16097     16105     16098     16097     16109     16098     16113     16114
     16098     16113     16115     16098     16113     16119     16099     16098     16100
     16099     16098     16113     16100     16098     16113     16101     16097     16105
     16101     16097     16109     16102     16101     16103     16102     16101     16104
     16103     16101     16104     16105     16097     16109     16106     16105     16107
     16106     16105     16108     16107     16105     16108     16110     16109     16111
     16110     16109     16112     16111     16109     16112     16113     16119     16116
     16114     16113     16115     16114     16113     16119     16115     16113     16119
     16116     16120     16121     16117     16116     16118     16117     16116     16119
     16117     16116     16120     16118     16116     16119     16118     16116     16120
     16119     16116     16120     16120     16121     16122     16120     16121     16123
     16120     16121     16124     16121     16124     16125     16121     16124     16126
     16121     16124     16132     16122     16121     16123     16122     16121     16124
     16123     16121     16124     16124     16126     16127     16124     16132     16133
     16124     16132     16134     16124     16132     16135     16125     16124     16126
     16125     16124     16132     16126     16124     16132     16126     16127     16128
     16126     16127     16129     16127     16129     16130     16127     16129     16131
     16127     16129     16141     16128     16127     16129     16129     16141     16142
     16129     16141     16143     16129     16141     16144     16130     16129     16131
     16130     16129     16141     16131     16129     16141     16132     16135     16136
     16133     16132     16134     16133     16132     16135     16134     16132     16135
     16135     16136     16137     16135     16136     16138     16136     16138     16139
     16136     16138     16140     16136     16138     16188     16137     16136     16138
     16138     16188     16189     16138     16188     16190     16138     16188     16191
     16139     16138     16140     16139     16138     16188     16140     16138     16188
     16141     16144     16145     16141     16144     16146     16141     16144     16147
     16142     16141     16143     16142     16141     16144     16143     16141     16144
     16144     16147     16148     16144     16147     16149     16144     16147     16150
     16145     16144     16146     16145     16144     16147     16146     16144     16147
     16147     16150     16151     16147     16150     16152     16147     16150     16153
     16148     16147     16149     16148     16147     16150     16149     16147     16150
     16150     16153     16154     16150     16153     16155     16150     16153     16156
     16151     16150     16152     16151     16150     16153     16152     16150     16153
     16153     16156     16157     16153     16156     16158     16153     16156     16159
     16154     16153     16155     16154     16153     16156     16155     16153     16156
     16156     16159     16160     16156     16159     16161     16157     16156     16158
     16157     16156     16159     16158     16156     16159     16159     16161     16162
     16159     16161     16163     16160     16159     16161     16161     16163     16164
     16161     16163     16165     16161     16163     16166     16162     16161     16163
     16163     16166     16167     16163     16166     16168     16163     16166     16169
     16164     16163     16165     16164     16163     16166     16165     16163     16166
     16166     16169     16170     16166     16169     16171     16166     16169     16172
     16167     16166     16168     16167     16166     16169     16168     16166     16169
     16169     16172     16173     16169     16172     16174     16169     16172     16175
     16170     16169     16171     16170     16169     16172     16171     16169     16172
     16172     16175     16176     16172     16175     16177     16172     16175     16178
     16173     16172     16174     16173     16172     16175     16174     16172     16175
     16175     16178     16179     16175     16178     16180     16175     16178     16181
     16176     16175     16177     16176     16175     16178     16177     16175     16178
     16178     16181     16182     16178     16181     16183     16178     16181     16184
     16179     16178     16180     16179     16178     16181     16180     16178     16181
     16181     16184     16185     16181     16184     16186     16181     16184     16187
     16182     16181     16183     16182     16181     16184     16183     16181     16184
     16185     16184     16186     16185     16184     16187     16186     16184     16187
     16188     16191     16192     16188     16191     16193     16188     16191     16194
     16189     16188     16190     16189     16188     16191     16190     16188     16191
     16191     16194     16195     16191     16194     16196     16191     16194     16197
     16192     16191     16193     16192     16191     16194     16193     16191     16194
     16194     16197     16198     16194     16197     16199     16194     16197     16200
     16195     16194     16196     16195     16194     16197     16196     16194     16197
     16197     16200     16201     16197     16200     16202     16197     16200     16203
     16198     16197     16199     16198     16197     16200     16199     16197     16200
     16200     16203     16204     16200     16203     16205     16200     16203     16206
     16201     16200     16202     16201     16200     16203     16202     16200     16203
     16203     16206     16207     16203     16206     16208     16203     16206     16209
     16204     16203     16205     16204     16203     16206     16205     16203     16206
     16206     16209     16210     16206     16209     16211     16206     16209     16212
     16207     16206     16208     16207     16206     16209     16208     16206     16209
     16209     16212     16213     16209     16212     16214     16209     16212     16215
     16210     16209     16211     16210     16209     16212     16211     16209     16212
     16212     16215     16216     16212     16215     16217     16212     16215     16218
     16213     16212     16214     16213     16212     16215     16214     16212     16215
     16215     16218     16219     16215     16218     16220     16215     16218     16221
     16216     16215     16217     16216     16215     16218     16217     16215     16218
     16218     16221     16222     16218     16221     16223     16218     16221     16224
     16219     16218     16220     16219     16218     16221     16220     16218     16221
     16221     16224     16225     16221     16224     16226     16221     16224     16227
     16222     16221     16223     16222     16221     16224     16223     16221     16224
     16224     16227     16228     16224     16227     16229     16224     16227     16230
     16225     16224     16226     16225     16224     16227     16226     16224     16227
     16228     16227     16229     16228     16227     16230     16229     16227     16230
     16231     16232     16233     16231     16232     16234     16231     16232     16247
     16231     16235     16236     16231     16235     16237     16231     16235     16238
     16231     16239     16240     16231     16239     16241     16231     16239     16242
     16231     16243     16244     16231     16243     16245     16231     16243     16246
     16232     16231     16235     16232     16231     16239     16232     16231     16243
     16232     16247     16248     16232     16247     16249     16232     16247     16253
     16233     16232     16234     16233     16232     16247     16234     16232     16247
     16235     16231     16239     16235     16231     16243     16236     16235     16237
     16236     16235     16238     16237     16235     16238     16239     16231     16243
     16240     16239     16241     16240     16239     16242     16241     16239     16242
     16244     16243     16245     16244     16243     16246     16245     16243     16246
     16247     16253     16250     16248     16247     16249     16248     16247     16253
     16249     16247     16253     16250     16254     16255     16251     16250     16252
     16251     16250     16253     16251     16250     16254     16252     16250     16253
     16252     16250     16254     16253     16250     16254     16254     16255     16256
     16254     16255     16257     16254     16255     16258     16255     16258     16259
     16255     16258     16260     16255     16258     16266     16256     16255     16257
     16256     16255     16258     16257     16255     16258     16258     16260     16261
     16258     16266     16267     16258     16266     16268     16258     16266     16269
     16259     16258     16260     16259     16258     16266     16260     16258     16266
     16260     16261     16262     16260     16261     16263     16261     16263     16264
     16261     16263     16265     16261     16263     16275     16262     16261     16263
     16263     16275     16276     16263     16275     16277     16263     16275     16278
     16264     16263     16265     16264     16263     16275     16265     16263     16275
     16266     16269     16270     16267     16266     16268     16267     16266     16269
     16268     16266     16269     16269     16270     16271     16269     16270     16272
     16270     16272     16273     16270     16272     16274     16270     16272     16322
     16271     16270     16272     16272     16322     16323     16272     16322     16324
     16272     16322     16325     16273     16272     16274     16273     16272     16322
     16274     16272     16322     16275     16278     16279     16275     16278     16280
     16275     16278     16281     16276     16275     16277     16276     16275     16278
     16277     16275     16278     16278     16281     16282     16278     16281     16283
     16278     16281     16284     16279     16278     16280     16279     16278     16281
     16280     16278     16281     16281     16284     16285     16281     16284     16286
     16281     16284     16287     16282     16281     16283     16282     16281     16284
     16283     16281     16284     16284     16287     16288     16284     16287     16289
     16284     16287     16290     16285     16284     16286     16285     16284     16287
     16286     16284     16287     16287     16290     16291     16287     16290     16292
     16287     16290     16293     16288     16287     16289     16288     16287     16290
     16289     16287     16290     16290     16293     16294     16290     16293     16295
     16291     16290     16292     16291     16290     16293     16292     16290     16293
     16293     16295     16296     16293     16295     16297     16294     16293     16295
     16295     16297     16298     16295     16297     16299     16295     16297     16300
     16296     16295     16297     16297     16300     16301     16297     16300     16302
     16297     16300     16303     16298     16297     16299     16298     16297     16300
     16299     16297     16300     16300     16303     16304     16300     16303     16305
     16300     16303     16306     16301     16300     16302     16301     16300     16303
     16302     16300     16303     16303     16306     16307     16303     16306     16308
     16303     16306     16309     16304     16303     16305     16304     16303     16306
     16305     16303     16306     16306     16309     16310     16306     16309     16311
     16306     16309     16312     16307     16306     16308     16307     16306     16309
     16308     16306     16309     16309     16312     16313     16309     16312     16314
     16309     16312     16315     16310     16309     16311     16310     16309     16312
     16311     16309     16312     16312     16315     16316     16312     16315     16317
     16312     16315     16318     16313     16312     16314     16313     16312     16315
     16314     16312     16315     16315     16318     16319     16315     16318     16320
     16315     16318     16321     16316     16315     16317     16316     16315     16318
     16317     16315     16318     16319     16318     16320     16319     16318     16321
     16320     16318     16321     16322     16325     16326     16322     16325     16327
     16322     16325     16328     16323     16322     16324     16323     16322     16325
     16324     16322     16325     16325     16328     16329     16325     16328     16330
     16325     16328     16331     16326     16325     16327     16326     16325     16328
     16327     16325     16328     16328     16331     16332     16328     16331     16333
     16328     16331     16334     16329     16328     16330     16329     16328     16331
     16330     16328     16331     16331     16334     16335     16331     16334     16336
     16331     16334     16337     16332     16331     16333     16332     16331     16334
     16333     16331     16334     16334     16337     16338     16334     16337     16339
     16334     16337     16340     16335     16334     16336     16335     16334     16337
     16336     16334     16337     16337     16340     16341     16337     16340     16342
     16337     16340     16343     16338     16337     16339     16338     16337     16340
     16339     16337     16340     16340     16343     16344     16340     16343     16345
     16340     16343     16346     16341     16340     16342     16341     16340     16343
     16342     16340     16343     16343     16346     16347     16343     16346     16348
     16343     16346     16349     16344     16343     16345     16344     16343     16346
     16345     16343     16346     16346     16349     16350     16346     16349     16351
     16346     16349     16352     16347     16346     16348     16347     16346     16349
     16348     16346     16349     16349     16352     16353     16349     16352     16354
     16349     16352     16355     16350     16349     16351     16350     16349     16352
     16351     16349     16352     16352     16355     16356     16352     16355     16357
     16352     16355     16358     16353     16352     16354     16353     16352     16355
     16354     16352     16355     16355     16358     16359     16355     16358     16360
     16355     16358     16361     16356     16355     16357     16356     16355     16358
     16357     16355     16358     16358     16361     16362     16358     16361     16363
     16358     16361     16364     16359     16358     16360     16359     16358     16361
     16360     16358     16361     16362     16361     16363     16362     16361     16364
     16363     16361     16364     16365     16366     16367     16365     16366     16368
     16365     16366     16381     16365     16369     16370     16365     16369     16371
     16365     16369     16372     16365     16373     16374     16365     16373     16375
     16365     16373     16376     16365     16377     16378     16365     16377     16379
     16365     16377     16380     16366     16365     16369     16366     16365     16373
     16366     16365     16377     16366     16381     16382     16366     16381     16383
     16366     16381     16387     16367     16366     16368     16367     16366     16381
     16368     16366     16381     16369     16365     16373     16369     16365     16377
     16370     16369     16371     16370     16369     16372     16371     16369     16372
     16373     16365     16377     16374     16373     16375     16374     16373     16376
     16375     16373     16376     16378     16377     16379     16378     16377     16380
     16379     16377     16380     16381     16387     16384     16382     16381     16383
     16382     16381     16387     16383     16381     16387     16384     16388     16389
     16385     16384     16386     16385     16384     16387     16385     16384     16388
     16386     16384     16387     16386     16384     16388     16387     16384     16388
     16388     16389     16390     16388     16389     16391     16388     16389     16392
     16389     16392     16393     16389     16392     16394     16389     16392     16400
     16390     16389     16391     16390     16389     16392     16391     16389     16392
     16392     16394     16395     16392     16400     16401     16392     16400     16402
     16392     16400     16403     16393     16392     16394     16393     16392     16400
     16394     16392     16400     16394     16395     16396     16394     16395     16397
     16395     16397     16398     16395     16397     16399     16395     16397     16409
     16396     16395     16397     16397     16409     16410     16397     16409     16411
     16397     16409     16412     16398     16397     16399     16398     16397     16409
     16399     16397     16409     16400     16403     16404     16401     16400     16402
     16401     16400     16403     16402     16400     16403     16403     16404     16405
     16403     16404     16406     16404     16406     16407     16404     16406     16408
     16404     16406     16456     16405     16404     16406     16406     16456     16457
     16406     16456     16458     16406     16456     16459     16407     16406     16408
     16407     16406     16456     16408     16406     16456     16409     16412     16413
     16409     16412     16414     16409     16412     16415     16410     16409     16411
     16410     16409     16412     16411     16409     16412     16412     16415     16416
     16412     16415     16417     16412     16415     16418     16413     16412     16414
     16413     16412     16415     16414     16412     16415     16415     16418     16419
     16415     16418     16420     16415     16418     16421     16416     16415     16417
     16416     16415     16418     16417     16415     16418     16418     16421     16422
     16418     16421     16423     16418     16421     16424     16419     16418     16420
     16419     16418     16421     16420     16418     16421     16421     16424     16425
     16421     16424     16426     16421     16424     16427     16422     16421     16423
     16422     16421     16424     16423     16421     16424     16424     16427     16428
     16424     16427     16429     16425     16424     16426     16425     16424     16427
     16426     16424     16427     16427     16429     16430     16427     16429     16431
     16428     16427     16429     16429     16431     16432     16429     16431     16433
     16429     16431     16434     16430     16429     16431     16431     16434     16435
     16431     16434     16436     16431     16434     16437     16432     16431     16433
     16432     16431     16434     16433     16431     16434     16434     16437     16438
     16434     16437     16439     16434     16437     16440     16435     16434     16436
     16435     16434     16437     16436     16434     16437     16437     16440     16441
     16437     16440     16442     16437     16440     16443     16438     16437     16439
     16438     16437     16440     16439     16437     16440     16440     16443     16444
     16440     16443     16445     16440     16443     16446     16441     16440     16442
     16441     16440     16443     16442     16440     16443     16443     16446     16447
     16443     16446     16448     16443     16446     16449     16444     16443     16445
     16444     16443     16446     16445     16443     16446     16446     16449     16450
     16446     16449     16451     16446     16449     16452     16447     16446     16448
     16447     16446     16449     16448     16446     16449     16449     16452     16453
     16449     16452     16454     16449     16452     16455     16450     16449     16451
     16450     16449     16452     16451     16449     16452     16453     16452     16454
     16453     16452     16455     16454     16452     16455     16456     16459     16460
     16456     16459     16461     16456     16459     16462     16457     16456     16458
     16457     16456     16459     16458     16456     16459     16459     16462     16463
     16459     16462     16464     16459     16462     16465     16460     16459     16461
     16460     16459     16462     16461     16459     16462     16462     16465     16466
     16462     16465     16467     16462     16465     16468     16463     16462     16464
     16463     16462     16465     16464     16462     16465     16465     16468     16469
     16465     16468     16470     16465     16468     16471     16466     16465     16467
     16466     16465     16468     16467     16465     16468     16468     16471     16472
     16468     16471     16473     16468     16471     16474     16469     16468     16470
     16469     16468     16471     16470     16468     16471     16471     16474     16475
     16471     16474     16476     16471     16474     16477     16472     16471     16473
     16472     16471     16474     16473     16471     16474     16474     16477     16478
     16474     16477     16479     16474     16477     16480     16475     16474     16476
     16475     16474     16477     16476     16474     16477     16477     16480     16481
     16477     16480     16482     16477     16480     16483     16478     16477     16479
     16478     16477     16480     16479     16477     16480     16480     16483     16484
     16480     16483     16485     16480     16483     16486     16481     16480     16482
     16481     16480     16483     16482     16480     16483     16483     16486     16487
     16483     16486     16488     16483     16486     16489     16484     16483     16485
     16484     16483     16486     16485     16483     16486     16486     16489     16490
     16486     16489     16491     16486     16489     16492     16487     16486     16488
     16487     16486     16489     16488     16486     16489     16489     16492     16493
     16489     16492     16494     16489     16492     16495     16490     16489     16491
     16490     16489     16492     16491     16489     16492     16492     16495     16496
     16492     16495     16497     16492     16495     16498     16493     16492     16494
     16493     16492     16495     16494     16492     16495     16496     16495     16497
     16496     16495     16498     16497     16495     16498     16499     16500     16501
     16499     16500     16502     16499     16500     16515     16499     16503     16504
     16499     16503     16505     16499     16503     16506     16499     16507     16508
     16499     16507     16509     16499     16507     16510     16499     16511     16512
     16499     16511     16513     16499     16511     16514     16500     16499     16503
     16500     16499     16507     16500     16499     16511     16500     16515     16516
     16500     16515     16517     16500     16515     16521     16501     16500     16502
     16501     16500     16515     16502     16500     16515     16503     16499     16507
     16503     16499     16511     16504     16503     16505     16504     16503     16506
     16505     16503     16506     16507     16499     16511     16508     16507     16509
     16508     16507     16510     16509     16507     16510     16512     16511     16513
     16512     16511     16514     16513     16511     16514     16515     16521     16518
     16516     16515     16517     16516     16515     16521     16517     16515     16521
     16518     16522     16523     16519     16518     16520     16519     16518     16521
     16519     16518     16522     16520     16518     16521     16520     16518     16522
     16521     16518     16522     16522     16523     16524     16522     16523     16525
     16522     16523     16526     16523     16526     16527     16523     16526     16528
     16523     16526     16534     16524     16523     16525     16524     16523     16526
     16525     16523     16526     16526     16528     16529     16526     16534     16535
     16526     16534     16536     16526     16534     16537     16527     16526     16528
     16527     16526     16534     16528     16526     16534     16528     16529     16530
     16528     16529     16531     16529     16531     16532     16529     16531     16533
     16529     16531     16543     16530     16529     16531     16531     16543     16544
     16531     16543     16545     16531     16543     16546     16532     16531     16533
     16532     16531     16543     16533     16531     16543     16534     16537     16538
     16535     16534     16536     16535     16534     16537     16536     16534     16537
     16537     16538     16539     16537     16538     16540     16538     16540     16541
     16538     16540     16542     16538     16540     16590     16539     16538     16540
     16540     16590     16591     16540     16590     16592     16540     16590     16593
     16541     16540     16542     16541     16540     16590     16542     16540     16590
     16543     16546     16547     16543     16546     16548     16543     16546     16549
     16544     16543     16545     16544     16543     16546     16545     16543     16546
     16546     16549     16550     16546     16549     16551     16546     16549     16552
     16547     16546     16548     16547     16546     16549     16548     16546     16549
     16549     16552     16553     16549     16552     16554     16549     16552     16555
     16550     16549     16551     16550     16549     16552     16551     16549     16552
     16552     16555     16556     16552     16555     16557     16552     16555     16558
     16553     16552     16554     16553     16552     16555     16554     16552     16555
     16555     16558     16559     16555     16558     16560     16555     16558     16561
     16556     16555     16557     16556     16555     16558     16557     16555     16558
     16558     16561     16562     16558     16561     16563     16559     16558     16560
     16559     16558     16561     16560     16558     16561     16561     16563     16564
     16561     16563     16565     16562     16561     16563     16563     16565     16566
     16563     16565     16567     16563     16565     16568     16564     16563     16565
     16565     16568     16569     16565     16568     16570     16565     16568     16571
     16566     16565     16567     16566     16565     16568     16567     16565     16568
     16568     16571     16572     16568     16571     16573     16568     16571     16574
     16569     16568     16570     16569     16568     16571     16570     16568     16571
     16571     16574     16575     16571     16574     16576     16571     16574     16577
     16572     16571     16573     16572     16571     16574     16573     16571     16574
     16574     16577     16578     16574     16577     16579     16574     16577     16580
     16575     16574     16576     16575     16574     16577     16576     16574     16577
     16577     16580     16581     16577     16580     16582     16577     16580     16583
     16578     16577     16579     16578     16577     16580     16579     16577     16580
     16580     16583     16584     16580     16583     16585     16580     16583     16586
     16581     16580     16582     16581     16580     16583     16582     16580     16583
     16583     16586     16587     16583     16586     16588     16583     16586     16589
     16584     16583     16585     16584     16583     16586     16585     16583     16586
     16587     16586     16588     16587     16586     16589     16588     16586     16589
     16590     16593     16594     16590     16593     16595     16590     16593     16596
     16591     16590     16592     16591     16590     16593     16592     16590     16593
     16593     16596     16597     16593     16596     16598     16593     16596     16599
     16594     16593     16595     16594     16593     16596     16595     16593     16596
     16596     16599     16600     16596     16599     16601     16596     16599     16602
     16597     16596     16598     16597     16596     16599     16598     16596     16599
     16599     16602     16603     16599     16602     16604     16599     16602     16605
     16600     16599     16601     16600     16599     16602     16601     16599     16602
     16602     16605     16606     16602     16605     16607     16602     16605     16608
     16603     16602     16604     16603     16602     16605     16604     16602     16605
     16605     16608     16609     16605     16608     16610     16605     16608     16611
     16606     16605     16607     16606     16605     16608     16607     16605     16608
     16608     16611     16612     16608     16611     16613     16608     16611     16614
     16609     16608     16610     16609     16608     16611     16610     16608     16611
     16611     16614     16615     16611     16614     16616     16611     16614     16617
     16612     16611     16613     16612     16611     16614     16613     16611     16614
     16614     16617     16618     16614     16617     16619     16614     16617     16620
     16615     16614     16616     16615     16614     16617     16616     16614     16617
     16617     16620     16621     16617     16620     16622     16617     16620     16623
     16618     16617     16619     16618     16617     16620     16619     16617     16620
     16620     16623     16624     16620     16623     16625     16620     16623     16626
     16621     16620     16622     16621     16620     16623     16622     16620     16623
     16623     16626     16627     16623     16626     16628     16623     16626     16629
     16624     16623     16625     16624     16623     16626     16625     16623     16626
     16626     16629     16630     16626     16629     16631     16626     16629     16632
     16627     16626     16628     16627     16626     16629     16628     16626     16629
     16630     16629     16631     16630     16629     16632     16631     16629     16632
     16633     16634     16635     16633     16634     16636     16633     16634     16649
     16633     16637     16638     16633     16637     16639     16633     16637     16640
     16633     16641     16642     16633     16641     16643     16633     16641     16644
     16633     16645     16646     16633     16645     16647     16633     16645     16648
     16634     16633     16637     16634     16633     16641     16634     16633     16645
     16634     16649     16650     16634     16649     16651     16634     16649     16655
     16635     16634     16636     16635     16634     16649     16636     16634     16649
     16637     16633     16641     16637     16633     16645     16638     16637     16639
     16638     16637     16640     16639     16637     16640     16641     16633     16645
     16642     16641     16643     16642     16641     16644     16643     16641     16644
     16646     16645     16647     16646     16645     16648     16647     16645     16648
     16649     16655     16652     16650     16649     16651     16650     16649     16655
     16651     16649     16655     16652     16656     16657     16653     16652     16654
     16653     16652     16655     16653     16652     16656     16654     16652     16655
     16654     16652     16656     16655     16652     16656     16656     16657     16658
     16656     16657     16659     16656     16657     16660     16657     16660     16661
     16657     16660     16662     16657     16660     16668     16658     16657     16659
     16658     16657     16660     16659     16657     16660     16660     16662     16663
     16660     16668     16669     16660     16668     16670     16660     16668     16671
     16661     16660     16662     16661     16660     16668     16662     16660     16668
     16662     16663     16664     16662     16663     16665     16663     16665     16666
     16663     16665     16667     16663     16665     16677     16664     16663     16665
     16665     16677     16678     16665     16677     16679     16665     16677     16680
     16666     16665     16667     16666     16665     16677     16667     16665     16677
     16668     16671     16672     16669     16668     16670     16669     16668     16671
     16670     16668     16671     16671     16672     16673     16671     16672     16674
     16672     16674     16675     16672     16674     16676     16672     16674     16724
     16673     16672     16674     16674     16724     16725     16674     16724     16726
     16674     16724     16727     16675     16674     16676     16675     16674     16724
     16676     16674     16724     16677     16680     16681     16677     16680     16682
     16677     16680     16683     16678     16677     16679     16678     16677     16680
     16679     16677     16680     16680     16683     16684     16680     16683     16685
     16680     16683     16686     16681     16680     16682     16681     16680     16683
     16682     16680     16683     16683     16686     16687     16683     16686     16688
     16683     16686     16689     16684     16683     16685     16684     16683     16686
     16685     16683     16686     16686     16689     16690     16686     16689     16691
     16686     16689     16692     16687     16686     16688     16687     16686     16689
     16688     16686     16689     16689     16692     16693     16689     16692     16694
     16689     16692     16695     16690     16689     16691     16690     16689     16692
     16691     16689     16692     16692     16695     16696     16692     16695     16697
     16693     16692     16694     16693     16692     16695     16694     16692     16695
     16695     16697     16698     16695     16697     16699     16696     16695     16697
     16697     16699     16700     16697     16699     16701     16697     16699     16702
     16698     16697     16699     16699     16702     16703     16699     16702     16704
     16699     16702     16705     16700     16699     16701     16700     16699     16702
     16701     16699     16702     16702     16705     16706     16702     16705     16707
     16702     16705     16708     16703     16702     16704     16703     16702     16705
     16704     16702     16705     16705     16708     16709     16705     16708     16710
     16705     16708     16711     16706     16705     16707     16706     16705     16708
     16707     16705     16708     16708     16711     16712     16708     16711     16713
     16708     16711     16714     16709     16708     16710     16709     16708     16711
     16710     16708     16711     16711     16714     16715     16711     16714     16716
     16711     16714     16717     16712     16711     16713     16712     16711     16714
     16713     16711     16714     16714     16717     16718     16714     16717     16719
     16714     16717     16720     16715     16714     16716     16715     16714     16717
     16716     16714     16717     16717     16720     16721     16717     16720     16722
     16717     16720     16723     16718     16717     16719     16718     16717     16720
     16719     16717     16720     16721     16720     16722     16721     16720     16723
     16722     16720     16723     16724     16727     16728     16724     16727     16729
     16724     16727     16730     16725     16724     16726     16725     16724     16727
     16726     16724     16727     16727     16730     16731     16727     16730     16732
     16727     16730     16733     16728     16727     16729     16728     16727     16730
     16729     16727     16730     16730     16733     16734     16730     16733     16735
     16730     16733     16736     16731     16730     16732     16731     16730     16733
     16732     16730     16733     16733     16736     16737     16733     16736     16738
     16733     16736     16739     16734     16733     16735     16734     16733     16736
     16735     16733     16736     16736     16739     16740     16736     16739     16741
     16736     16739     16742     16737     16736     16738     16737     16736     16739
     16738     16736     16739     16739     16742     16743     16739     16742     16744
     16739     16742     16745     16740     16739     16741     16740     16739     16742
     16741     16739     16742     16742     16745     16746     16742     16745     16747
     16742     16745     16748     16743     16742     16744     16743     16742     16745
     16744     16742     16745     16745     16748     16749     16745     16748     16750
     16745     16748     16751     16746     16745     16747     16746     16745     16748
     16747     16745     16748     16748     16751     16752     16748     16751     16753
     16748     16751     16754     16749     16748     16750     16749     16748     16751
     16750     16748     16751     16751     16754     16755     16751     16754     16756
     16751     16754     16757     16752     16751     16753     16752     16751     16754
     16753     16751     16754     16754     16757     16758     16754     16757     16759
     16754     16757     16760     16755     16754     16756     16755     16754     16757
     16756     16754     16757     16757     16760     16761     16757     16760     16762
     16757     16760     16763     16758     16757     16759     16758     16757     16760
     16759     16757     16760     16760     16763     16764     16760     16763     16765
     16760     16763     16766     16761     16760     16762     16761     16760     16763
     16762     16760     16763     16764     16763     16765     16764     16763     16766
     16765     16763     16766     16767     16768     16769     16767     16768     16770
     16767     16768     16783     16767     16771     16772     16767     16771     16773
     16767     16771     16774     16767     16775     16776     16767     16775     16777
     16767     16775     16778     16767     16779     16780     16767     16779     16781
     16767     16779     16782     16768     16767     16771     16768     16767     16775
     16768     16767     16779     16768     16783     16784     16768     16783     16785
     16768     16783     16789     16769     16768     16770     16769     16768     16783
     16770     16768     16783     16771     16767     16775     16771     16767     16779
     16772     16771     16773     16772     16771     16774     16773     16771     16774
     16775     16767     16779     16776     16775     16777     16776     16775     16778
     16777     16775     16778     16780     16779     16781     16780     16779     16782
     16781     16779     16782     16783     16789     16786     16784     16783     16785
     16784     16783     16789     16785     16783     16789     16786     16790     16791
     16787     16786     16788     16787     16786     16789     16787     16786     16790
     16788     16786     16789     16788     16786     16790     16789     16786     16790
     16790     16791     16792     16790     16791     16793     16790     16791     16794
     16791     16794     16795     16791     16794     16796     16791     16794     16802
     16792     16791     16793     16792     16791     16794     16793     16791     16794
     16794     16796     16797     16794     16802     16803     16794     16802     16804
     16794     16802     16805     16795     16794     16796     16795     16794     16802
     16796     16794     16802     16796     16797     16798     16796     16797     16799
     16797     16799     16800     16797     16799     16801     16797     16799     16811
     16798     16797     16799     16799     16811     16812     16799     16811     16813
     16799     16811     16814     16800     16799     16801     16800     16799     16811
     16801     16799     16811     16802     16805     16806     16803     16802     16804
     16803     16802     16805     16804     16802     16805     16805     16806     16807
     16805     16806     16808     16806     16808     16809     16806     16808     16810
     16806     16808     16858     16807     16806     16808     16808     16858     16859
     16808     16858     16860     16808     16858     16861     16809     16808     16810
     16809     16808     16858     16810     16808     16858     16811     16814     16815
     16811     16814     16816     16811     16814     16817     16812     16811     16813
     16812     16811     16814     16813     16811     16814     16814     16817     16818
     16814     16817     16819     16814     16817     16820     16815     16814     16816
     16815     16814     16817     16816     16814     16817     16817     16820     16821
     16817     16820     16822     16817     16820     16823     16818     16817     16819
     16818     16817     16820     16819     16817     16820     16820     16823     16824
     16820     16823     16825     16820     16823     16826     16821     16820     16822
     16821     16820     16823     16822     16820     16823     16823     16826     16827
     16823     16826     16828     16823     16826     16829     16824     16823     16825
     16824     16823     16826     16825     16823     16826     16826     16829     16830
     16826     16829     16831     16827     16826     16828     16827     16826     16829
     16828     16826     16829     16829     16831     16832     16829     16831     16833
     16830     16829     16831     16831     16833     16834     16831     16833     16835
     16831     16833     16836     16832     16831     16833     16833     16836     16837
     16833     16836     16838     16833     16836     16839     16834     16833     16835
     16834     16833     16836     16835     16833     16836     16836     16839     16840
     16836     16839     16841     16836     16839     16842     16837     16836     16838
     16837     16836     16839     16838     16836     16839     16839     16842     16843
     16839     16842     16844     16839     16842     16845     16840     16839     16841
     16840     16839     16842     16841     16839     16842     16842     16845     16846
     16842     16845     16847     16842     16845     16848     16843     16842     16844
     16843     16842     16845     16844     16842     16845     16845     16848     16849
     16845     16848     16850     16845     16848     16851     16846     16845     16847
     16846     16845     16848     16847     16845     16848     16848     16851     16852
     16848     16851     16853     16848     16851     16854     16849     16848     16850
     16849     16848     16851     16850     16848     16851     16851     16854     16855
     16851     16854     16856     16851     16854     16857     16852     16851     16853
     16852     16851     16854     16853     16851     16854     16855     16854     16856
     16855     16854     16857     16856     16854     16857     16858     16861     16862
     16858     16861     16863     16858     16861     16864     16859     16858     16860
     16859     16858     16861     16860     16858     16861     16861     16864     16865
     16861     16864     16866     16861     16864     16867     16862     16861     16863
     16862     16861     16864     16863     16861     16864     16864     16867     16868
     16864     16867     16869     16864     16867     16870     16865     16864     16866
     16865     16864     16867     16866     16864     16867     16867     16870     16871
     16867     16870     16872     16867     16870     16873     16868     16867     16869
     16868     16867     16870     16869     16867     16870     16870     16873     16874
     16870     16873     16875     16870     16873     16876     16871     16870     16872
     16871     16870     16873     16872     16870     16873     16873     16876     16877
     16873     16876     16878     16873     16876     16879     16874     16873     16875
     16874     16873     16876     16875     16873     16876     16876     16879     16880
     16876     16879     16881     16876     16879     16882     16877     16876     16878
     16877     16876     16879     16878     16876     16879     16879     16882     16883
     16879     16882     16884     16879     16882     16885     16880     16879     16881
     16880     16879     16882     16881     16879     16882     16882     16885     16886
     16882     16885     16887     16882     16885     16888     16883     16882     16884
     16883     16882     16885     16884     16882     16885     16885     16888     16889
     16885     16888     16890     16885     16888     16891     16886     16885     16887
     16886     16885     16888     16887     16885     16888     16888     16891     16892
     16888     16891     16893     16888     16891     16894     16889     16888     16890
     16889     16888     16891     16890     16888     16891     16891     16894     16895
     16891     16894     16896     16891     16894     16897     16892     16891     16893
     16892     16891     16894     16893     16891     16894     16894     16897     16898
     16894     16897     16899     16894     16897     16900     16895     16894     16896
     16895     16894     16897     16896     16894     16897     16898     16897     16899
     16898     16897     16900     16899     16897     16900     16901     16902     16903
     16901     16902     16904     16901     16902     16917     16901     16905     16906
     16901     16905     16907     16901     16905     16908     16901     16909     16910
     16901     16909     16911     16901     16909     16912     16901     16913     16914
     16901     16913     16915     16901     16913     16916     16902     16901     16905
     16902     16901     16909     16902     16901     16913     16902     16917     16918
     16902     16917     16919     16902     16917     16923     16903     16902     16904
     16903     16902     16917     16904     16902     16917     16905     16901     16909
     16905     16901     16913     16906     16905     16907     16906     16905     16908
     16907     16905     16908     16909     16901     16913     16910     16909     16911
     16910     16909     16912     16911     16909     16912     16914     16913     16915
     16914     16913     16916     16915     16913     16916     16917     16923     16920
     16918     16917     16919     16918     16917     16923     16919     16917     16923
     16920     16924     16925     16921     16920     16922     16921     16920     16923
     16921     16920     16924     16922     16920     16923     16922     16920     16924
     16923     16920     16924     16924     16925     16926     16924     16925     16927
     16924     16925     16928     16925     16928     16929     16925     16928     16930
     16925     16928     16936     16926     16925     16927     16926     16925     16928
     16927     16925     16928     16928     16930     16931     16928     16936     16937
     16928     16936     16938     16928     16936     16939     16929     16928     16930
     16929     16928     16936     16930     16928     16936     16930     16931     16932
     16930     16931     16933     16931     16933     16934     16931     16933     16935
     16931     16933     16945     16932     16931     16933     16933     16945     16946
     16933     16945     16947     16933     16945     16948     16934     16933     16935
     16934     16933     16945     16935     16933     16945     16936     16939     16940
     16937     16936     16938     16937     16936     16939     16938     16936     16939
     16939     16940     16941     16939     16940     16942     16940     16942     16943
     16940     16942     16944     16940     16942     16992     16941     16940     16942
     16942     16992     16993     16942     16992     16994     16942     16992     16995
     16943     16942     16944     16943     16942     16992     16944     16942     16992
     16945     16948     16949     16945     16948     16950     16945     16948     16951
     16946     16945     16947     16946     16945     16948     16947     16945     16948
     16948     16951     16952     16948     16951     16953     16948     16951     16954
     16949     16948     16950     16949     16948     16951     16950     16948     16951
     16951     16954     16955     16951     16954     16956     16951     16954     16957
     16952     16951     16953     16952     16951     16954     16953     16951     16954
     16954     16957     16958     16954     16957     16959     16954     16957     16960
     16955     16954     16956     16955     16954     16957     16956     16954     16957
     16957     16960     16961     16957     16960     16962     16957     16960     16963
     16958     16957     16959     16958     16957     16960     16959     16957     16960
     16960     16963     16964     16960     16963     16965     16961     16960     16962
     16961     16960     16963     16962     16960     16963     16963     16965     16966
     16963     16965     16967     16964     16963     16965     16965     16967     16968
     16965     16967     16969     16965     16967     16970     16966     16965     16967
     16967     16970     16971     16967     16970     16972     16967     16970     16973
     16968     16967     16969     16968     16967     16970     16969     16967     16970
     16970     16973     16974     16970     16973     16975     16970     16973     16976
     16971     16970     16972     16971     16970     16973     16972     16970     16973
     16973     16976     16977     16973     16976     16978     16973     16976     16979
     16974     16973     16975     16974     16973     16976     16975     16973     16976
     16976     16979     16980     16976     16979     16981     16976     16979     16982
     16977     16976     16978     16977     16976     16979     16978     16976     16979
     16979     16982     16983     16979     16982     16984     16979     16982     16985
     16980     16979     16981     16980     16979     16982     16981     16979     16982
     16982     16985     16986     16982     16985     16987     16982     16985     16988
     16983     16982     16984     16983     16982     16985     16984     16982     16985
     16985     16988     16989     16985     16988     16990     16985     16988     16991
     16986     16985     16987     16986     16985     16988     16987     16985     16988
     16989     16988     16990     16989     16988     16991     16990     16988     16991
     16992     16995     16996     16992     16995     16997     16992     16995     16998
     16993     16992     16994     16993     16992     16995     16994     16992     16995
     16995     16998     16999     16995     16998     17000     16995     16998     17001
     16996     16995     16997     16996     16995     16998     16997     16995     16998
     16998     17001     17002     16998     17001     17003     16998     17001     17004
     16999     16998     17000     16999     16998     17001     17000     16998     17001
     17001     17004     17005     17001     17004     17006     17001     17004     17007
     17002     17001     17003     17002     17001     17004     17003     17001     17004
     17004     17007     17008     17004     17007     17009     17004     17007     17010
     17005     17004     17006     17005     17004     17007     17006     17004     17007
     17007     17010     17011     17007     17010     17012     17007     17010     17013
     17008     17007     17009     17008     17007     17010     17009     17007     17010
     17010     17013     17014     17010     17013     17015     17010     17013     17016
     17011     17010     17012     17011     17010     17013     17012     17010     17013
     17013     17016     17017     17013     17016     17018     17013     17016     17019
     17014     17013     17015     17014     17013     17016     17015     17013     17016
     17016     17019     17020     17016     17019     17021     17016     17019     17022
     17017     17016     17018     17017     17016     17019     17018     17016     17019
     17019     17022     17023     17019     17022     17024     17019     17022     17025
     17020     17019     17021     17020     17019     17022     17021     17019     17022
     17022     17025     17026     17022     17025     17027     17022     17025     17028
     17023     17022     17024     17023     17022     17025     17024     17022     17025
     17025     17028     17029     17025     17028     17030     17025     17028     17031
     17026     17025     17027     17026     17025     17028     17027     17025     17028
     17028     17031     17032     17028     17031     17033     17028     17031     17034
     17029     17028     17030     17029     17028     17031     17030     17028     17031
     17032     17031     17033     17032     17031     17034     17033     17031     17034
     17035     17036     17037     17035     17036     17038     17035     17036     17051
     17035     17039     17040     17035     17039     17041     17035     17039     17042
     17035     17043     17044     17035     17043     17045     17035     17043     17046
     17035     17047     17048     17035     17047     17049     17035     17047     17050
     17036     17035     17039     17036     17035     17043     17036     17035     17047
     17036     17051     17052     17036     17051     17053     17036     17051     17057
     17037     17036     17038     17037     17036     17051     17038     17036     17051
     17039     17035     17043     17039     17035     17047     17040     17039     17041
     17040     17039     17042     17041     17039     17042     17043     17035     17047
     17044     17043     17045     17044     17043     17046     17045     17043     17046
     17048     17047     17049     17048     17047     17050     17049     17047     17050
     17051     17057     17054     17052     17051     17053     17052     17051     17057
     17053     17051     17057     17054     17058     17059     17055     17054     17056
     17055     17054     17057     17055     17054     17058     17056     17054     17057
     17056     17054     17058     17057     17054     17058     17058     17059     17060
     17058     17059     17061     17058     17059     17062     17059     17062     17063
     17059     17062     17064     17059     17062     17070     17060     17059     17061
     17060     17059     17062     17061     17059     17062     17062     17064     17065
     17062     17070     17071     17062     17070     17072     17062     17070     17073
     17063     17062     17064     17063     17062     17070     17064     17062     17070
     17064     17065     17066     17064     17065     17067     17065     17067     17068
     17065     17067     17069     17065     17067     17079     17066     17065     17067
     17067     17079     17080     17067     17079     17081     17067     17079     17082
     17068     17067     17069     17068     17067     17079     17069     17067     17079
     17070     17073     17074     17071     17070     17072     17071     17070     17073
     17072     17070     17073     17073     17074     17075     17073     17074     17076
     17074     17076     17077     17074     17076     17078     17074     17076     17126
     17075     17074     17076     17076     17126     17127     17076     17126     17128
     17076     17126     17129     17077     17076     17078     17077     17076     17126
     17078     17076     17126     17079     17082     17083     17079     17082     17084
     17079     17082     17085     17080     17079     17081     17080     17079     17082
     17081     17079     17082     17082     17085     17086     17082     17085     17087
     17082     17085     17088     17083     17082     17084     17083     17082     17085
     17084     17082     17085     17085     17088     17089     17085     17088     17090
     17085     17088     17091     17086     17085     17087     17086     17085     17088
     17087     17085     17088     17088     17091     17092     17088     17091     17093
     17088     17091     17094     17089     17088     17090     17089     17088     17091
     17090     17088     17091     17091     17094     17095     17091     17094     17096
     17091     17094     17097     17092     17091     17093     17092     17091     17094
     17093     17091     17094     17094     17097     17098     17094     17097     17099
     17095     17094     17096     17095     17094     17097     17096     17094     17097
     17097     17099     17100     17097     17099     17101     17098     17097     17099
     17099     17101     17102     17099     17101     17103     17099     17101     17104
     17100     17099     17101     17101     17104     17105     17101     17104     17106
     17101     17104     17107     17102     17101     17103     17102     17101     17104
     17103     17101     17104     17104     17107     17108     17104     17107     17109
     17104     17107     17110     17105     17104     17106     17105     17104     17107
     17106     17104     17107     17107     17110     17111     17107     17110     17112
     17107     17110     17113     17108     17107     17109     17108     17107     17110
     17109     17107     17110     17110     17113     17114     17110     17113     17115
     17110     17113     17116     17111     17110     17112     17111     17110     17113
     17112     17110     17113     17113     17116     17117     17113     17116     17118
     17113     17116     17119     17114     17113     17115     17114     17113     17116
     17115     17113     17116     17116     17119     17120     17116     17119     17121
     17116     17119     17122     17117     17116     17118     17117     17116     17119
     17118     17116     17119     17119     17122     17123     17119     17122     17124
     17119     17122     17125     17120     17119     17121     17120     17119     17122
     17121     17119     17122     17123     17122     17124     17123     17122     17125
     17124     17122     17125     17126     17129     17130     17126     17129     17131
     17126     17129     17132     17127     17126     17128     17127     17126     17129
     17128     17126     17129     17129     17132     17133     17129     17132     17134
     17129     17132     17135     17130     17129     17131     17130     17129     17132
     17131     17129     17132     17132     17135     17136     17132     17135     17137
     17132     17135     17138     17133     17132     17134     17133     17132     17135
     17134     17132     17135     17135     17138     17139     17135     17138     17140
     17135     17138     17141     17136     17135     17137     17136     17135     17138
     17137     17135     17138     17138     17141     17142     17138     17141     17143
     17138     17141     17144     17139     17138     17140     17139     17138     17141
     17140     17138     17141     17141     17144     17145     17141     17144     17146
     17141     17144     17147     17142     17141     17143     17142     17141     17144
     17143     17141     17144     17144     17147     17148     17144     17147     17149
     17144     17147     17150     17145     17144     17146     17145     17144     17147
     17146     17144     17147     17147     17150     17151     17147     17150     17152
     17147     17150     17153     17148     17147     17149     17148     17147     17150
     17149     17147     17150     17150     17153     17154     17150     17153     17155
     17150     17153     17156     17151     17150     17152     17151     17150     17153
     17152     17150     17153     17153     17156     17157     17153     17156     17158
     17153     17156     17159     17154     17153     17155     17154     17153     17156
     17155     17153     17156     17156     17159     17160     17156     17159     17161
     17156     17159     17162     17157     17156     17158     17157     17156     17159
     17158     17156     17159     17159     17162     17163     17159     17162     17164
     17159     17162     17165     17160     17159     17161     17160     17159     17162
     17161     17159     17162     17162     17165     17166     17162     17165     17167
     17162     17165     17168     17163     17162     17164     17163     17162     17165
     17164     17162     17165     17166     17165     17167     17166     17165     17168
     17167     17165     17168     17169     17170     17171     17169     17170     17172
     17169     17170     17185     17169     17173     17174     17169     17173     17175
     17169     17173     17176     17169     17177     17178     17169     17177     17179
     17169     17177     17180     17169     17181     17182     17169     17181     17183
     17169     17181     17184     17170     17169     17173     17170     17169     17177
     17170     17169     17181     17170     17185     17186     17170     17185     17187
     17170     17185     17191     17171     17170     17172     17171     17170     17185
     17172     17170     17185     17173     17169     17177     17173     17169     17181
     17174     17173     17175     17174     17173     17176     17175     17173     17176
     17177     17169     17181     17178     17177     17179     17178     17177     17180
     17179     17177     17180     17182     17181     17183     17182     17181     17184
     17183     17181     17184     17185     17191     17188     17186     17185     17187
     17186     17185     17191     17187     17185     17191     17188     17192     17193
     17189     17188     17190     17189     17188     17191     17189     17188     17192
     17190     17188     17191     17190     17188     17192     17191     17188     17192
     17192     17193     17194     17192     17193     17195     17192     17193     17196
     17193     17196     17197     17193     17196     17198     17193     17196     17204
     17194     17193     17195     17194     17193     17196     17195     17193     17196
     17196     17198     17199     17196     17204     17205     17196     17204     17206
     17196     17204     17207     17197     17196     17198     17197     17196     17204
     17198     17196     17204     17198     17199     17200     17198     17199     17201
     17199     17201     17202     17199     17201     17203     17199     17201     17213
     17200     17199     17201     17201     17213     17214     17201     17213     17215
     17201     17213     17216     17202     17201     17203     17202     17201     17213
     17203     17201     17213     17204     17207     17208     17205     17204     17206
     17205     17204     17207     17206     17204     17207     17207     17208     17209
     17207     17208     17210     17208     17210     17211     17208     17210     17212
     17208     17210     17260     17209     17208     17210     17210     17260     17261
     17210     17260     17262     17210     17260     17263     17211     17210     17212
     17211     17210     17260     17212     17210     17260     17213     17216     17217
     17213     17216     17218     17213     17216     17219     17214     17213     17215
     17214     17213     17216     17215     17213     17216     17216     17219     17220
     17216     17219     17221     17216     17219     17222     17217     17216     17218
     17217     17216     17219     17218     17216     17219     17219     17222     17223
     17219     17222     17224     17219     17222     17225     17220     17219     17221
     17220     17219     17222     17221     17219     17222     17222     17225     17226
     17222     17225     17227     17222     17225     17228     17223     17222     17224
     17223     17222     17225     17224     17222     17225     17225     17228     17229
     17225     17228     17230     17225     17228     17231     17226     17225     17227
     17226     17225     17228     17227     17225     17228     17228     17231     17232
     17228     17231     17233     17229     17228     17230     17229     17228     17231
     17230     17228     17231     17231     17233     17234     17231     17233     17235
     17232     17231     17233     17233     17235     17236     17233     17235     17237
     17233     17235     17238     17234     17233     17235     17235     17238     17239
     17235     17238     17240     17235     17238     17241     17236     17235     17237
     17236     17235     17238     17237     17235     17238     17238     17241     17242
     17238     17241     17243     17238     17241     17244     17239     17238     17240
     17239     17238     17241     17240     17238     17241     17241     17244     17245
     17241     17244     17246     17241     17244     17247     17242     17241     17243
     17242     17241     17244     17243     17241     17244     17244     17247     17248
     17244     17247     17249     17244     17247     17250     17245     17244     17246
     17245     17244     17247     17246     17244     17247     17247     17250     17251
     17247     17250     17252     17247     17250     17253     17248     17247     17249
     17248     17247     17250     17249     17247     17250     17250     17253     17254
     17250     17253     17255     17250     17253     17256     17251     17250     17252
     17251     17250     17253     17252     17250     17253     17253     17256     17257
     17253     17256     17258     17253     17256     17259     17254     17253     17255
     17254     17253     17256     17255     17253     17256     17257     17256     17258
     17257     17256     17259     17258     17256     17259     17260     17263     17264
     17260     17263     17265     17260     17263     17266     17261     17260     17262
     17261     17260     17263     17262     17260     17263     17263     17266     17267
     17263     17266     17268     17263     17266     17269     17264     17263     17265
     17264     17263     17266     17265     17263     17266     17266     17269     17270
     17266     17269     17271     17266     17269     17272     17267     17266     17268
     17267     17266     17269     17268     17266     17269     17269     17272     17273
     17269     17272     17274     17269     17272     17275     17270     17269     17271
     17270     17269     17272     17271     17269     17272     17272     17275     17276
     17272     17275     17277     17272     17275     17278     17273     17272     17274
     17273     17272     17275     17274     17272     17275     17275     17278     17279
     17275     17278     17280     17275     17278     17281     17276     17275     17277
     17276     17275     17278     17277     17275     17278     17278     17281     17282
     17278     17281     17283     17278     17281     17284     17279     17278     17280
     17279     17278     17281     17280     17278     17281     17281     17284     17285
     17281     17284     17286     17281     17284     17287     17282     17281     17283
     17282     17281     17284     17283     17281     17284     17284     17287     17288
     17284     17287     17289     17284     17287     17290     17285     17284     17286
     17285     17284     17287     17286     17284     17287     17287     17290     17291
     17287     17290     17292     17287     17290     17293     17288     17287     17289
     17288     17287     17290     17289     17287     17290     17290     17293     17294
     17290     17293     17295     17290     17293     17296     17291     17290     17292
     17291     17290     17293     17292     17290     17293     17293     17296     17297
     17293     17296     17298     17293     17296     17299     17294     17293     17295
     17294     17293     17296     17295     17293     17296     17296     17299     17300
     17296     17299     17301     17296     17299     17302     17297     17296     17298
     17297     17296     17299     17298     17296     17299     17300     17299     17301
     17300     17299     17302     17301     17299     17302     17303     17304     17305
     17303     17304     17306     17303     17304     17319     17303     17307     17308
     17303     17307     17309     17303     17307     17310     17303     17311     17312
     17303     17311     17313     17303     17311     17314     17303     17315     17316
     17303     17315     17317     17303     17315     17318     17304     17303     17307
     17304     17303     17311     17304     17303     17315     17304     17319     17320
     17304     17319     17321     17304     17319     17325     17305     17304     17306
     17305     17304     17319     17306     17304     17319     17307     17303     17311
     17307     17303     17315     17308     17307     17309     17308     17307     17310
     17309     17307     17310     17311     17303     17315     17312     17311     17313
     17312     17311     17314     17313     17311     17314     17316     17315     17317
     17316     17315     17318     17317     17315     17318     17319     17325     17322
     17320     17319     17321     17320     17319     17325     17321     17319     17325
     17322     17326     17327     17323     17322     17324     17323     17322     17325
     17323     17322     17326     17324     17322     17325     17324     17322     17326
     17325     17322     17326     17326     17327     17328     17326     17327     17329
     17326     17327     17330     17327     17330     17331     17327     17330     17332
     17327     17330     17338     17328     17327     17329     17328     17327     17330
     17329     17327     17330     17330     17332     17333     17330     17338     17339
     17330     17338     17340     17330     17338     17341     17331     17330     17332
     17331     17330     17338     17332     17330     17338     17332     17333     17334
     17332     17333     17335     17333     17335     17336     17333     17335     17337
     17333     17335     17347     17334     17333     17335     17335     17347     17348
     17335     17347     17349     17335     17347     17350     17336     17335     17337
     17336     17335     17347     17337     17335     17347     17338     17341     17342
     17339     17338     17340     17339     17338     17341     17340     17338     17341
     17341     17342     17343     17341     17342     17344     17342     17344     17345
     17342     17344     17346     17342     17344     17394     17343     17342     17344
     17344     17394     17395     17344     17394     17396     17344     17394     17397
     17345     17344     17346     17345     17344     17394     17346     17344     17394
     17347     17350     17351     17347     17350     17352     17347     17350     17353
     17348     17347     17349     17348     17347     17350     17349     17347     17350
     17350     17353     17354     17350     17353     17355     17350     17353     17356
     17351     17350     17352     17351     17350     17353     17352     17350     17353
     17353     17356     17357     17353     17356     17358     17353     17356     17359
     17354     17353     17355     17354     17353     17356     17355     17353     17356
     17356     17359     17360     17356     17359     17361     17356     17359     17362
     17357     17356     17358     17357     17356     17359     17358     17356     17359
     17359     17362     17363     17359     17362     17364     17359     17362     17365
     17360     17359     17361     17360     17359     17362     17361     17359     17362
     17362     17365     17366     17362     17365     17367     17363     17362     17364
     17363     17362     17365     17364     17362     17365     17365     17367     17368
     17365     17367     17369     17366     17365     17367     17367     17369     17370
     17367     17369     17371     17367     17369     17372     17368     17367     17369
     17369     17372     17373     17369     17372     17374     17369     17372     17375
     17370     17369     17371     17370     17369     17372     17371     17369     17372
     17372     17375     17376     17372     17375     17377     17372     17375     17378
     17373     17372     17374     17373     17372     17375     17374     17372     17375
     17375     17378     17379     17375     17378     17380     17375     17378     17381
     17376     17375     17377     17376     17375     17378     17377     17375     17378
     17378     17381     17382     17378     17381     17383     17378     17381     17384
     17379     17378     17380     17379     17378     17381     17380     17378     17381
     17381     17384     17385     17381     17384     17386     17381     17384     17387
     17382     17381     17383     17382     17381     17384     17383     17381     17384
     17384     17387     17388     17384     17387     17389     17384     17387     17390
     17385     17384     17386     17385     17384     17387     17386     17384     17387
     17387     17390     17391     17387     17390     17392     17387     17390     17393
     17388     17387     17389     17388     17387     17390     17389     17387     17390
     17391     17390     17392     17391     17390     17393     17392     17390     17393
     17394     17397     17398     17394     17397     17399     17394     17397     17400
     17395     17394     17396     17395     17394     17397     17396     17394     17397
     17397     17400     17401     17397     17400     17402     17397     17400     17403
     17398     17397     17399     17398     17397     17400     17399     17397     17400
     17400     17403     17404     17400     17403     17405     17400     17403     17406
     17401     17400     17402     17401     17400     17403     17402     17400     17403
     17403     17406     17407     17403     17406     17408     17403     17406     17409
     17404     17403     17405     17404     17403     17406     17405     17403     17406
     17406     17409     17410     17406     17409     17411     17406     17409     17412
     17407     17406     17408     17407     17406     17409     17408     17406     17409
     17409     17412     17413     17409     17412     17414     17409     17412     17415
     17410     17409     17411     17410     17409     17412     17411     17409     17412
     17412     17415     17416     17412     17415     17417     17412     17415     17418
     17413     17412     17414     17413     17412     17415     17414     17412     17415
     17415     17418     17419     17415     17418     17420     17415     17418     17421
     17416     17415     17417     17416     17415     17418     17417     17415     17418
     17418     17421     17422     17418     17421     17423     17418     17421     17424
     17419     17418     17420     17419     17418     17421     17420     17418     17421
     17421     17424     17425     17421     17424     17426     17421     17424     17427
     17422     17421     17423     17422     17421     17424     17423     17421     17424
     17424     17427     17428     17424     17427     17429     17424     17427     17430
     17425     17424     17426     17425     17424     17427     17426     17424     17427
     17427     17430     17431     17427     17430     17432     17427     17430     17433
     17428     17427     17429     17428     17427     17430     17429     17427     17430
     17430     17433     17434     17430     17433     17435     17430     17433     17436
     17431     17430     17432     17431     17430     17433     17432     17430     17433
     17434     17433     17435     17434     17433     17436     17435     17433     17436
     17437     17438     17439     17437     17438     17440     17437     17438     17453
     17437     17441     17442     17437     17441     17443     17437     17441     17444
     17437     17445     17446     17437     17445     17447     17437     17445     17448
     17437     17449     17450     17437     17449     17451     17437     17449     17452
     17438     17437     17441     17438     17437     17445     17438     17437     17449
     17438     17453     17454     17438     17453     17455     17438     17453     17459
     17439     17438     17440     17439     17438     17453     17440     17438     17453
     17441     17437     17445     17441     17437     17449     17442     17441     17443
     17442     17441     17444     17443     17441     17444     17445     17437     17449
     17446     17445     17447     17446     17445     17448     17447     17445     17448
     17450     17449     17451     17450     17449     17452     17451     17449     17452
     17453     17459     17456     17454     17453     17455     17454     17453     17459
     17455     17453     17459     17456     17460     17461     17457     17456     17458
     17457     17456     17459     17457     17456     17460     17458     17456     17459
     17458     17456     17460     17459     17456     17460     17460     17461     17462
     17460     17461     17463     17460     17461     17464     17461     17464     17465
     17461     17464     17466     17461     17464     17472     17462     17461     17463
     17462     17461     17464     17463     17461     17464     17464     17466     17467
     17464     17472     17473     17464     17472     17474     17464     17472     17475
     17465     17464     17466     17465     17464     17472     17466     17464     17472
     17466     17467     17468     17466     17467     17469     17467     17469     17470
     17467     17469     17471     17467     17469     17481     17468     17467     17469
     17469     17481     17482     17469     17481     17483     17469     17481     17484
     17470     17469     17471     17470     17469     17481     17471     17469     17481
     17472     17475     17476     17473     17472     17474     17473     17472     17475
     17474     17472     17475     17475     17476     17477     17475     17476     17478
     17476     17478     17479     17476     17478     17480     17476     17478     17528
     17477     17476     17478     17478     17528     17529     17478     17528     17530
     17478     17528     17531     17479     17478     17480     17479     17478     17528
     17480     17478     17528     17481     17484     17485     17481     17484     17486
     17481     17484     17487     17482     17481     17483     17482     17481     17484
     17483     17481     17484     17484     17487     17488     17484     17487     17489
     17484     17487     17490     17485     17484     17486     17485     17484     17487
     17486     17484     17487     17487     17490     17491     17487     17490     17492
     17487     17490     17493     17488     17487     17489     17488     17487     17490
     17489     17487     17490     17490     17493     17494     17490     17493     17495
     17490     17493     17496     17491     17490     17492     17491     17490     17493
     17492     17490     17493     17493     17496     17497     17493     17496     17498
     17493     17496     17499     17494     17493     17495     17494     17493     17496
     17495     17493     17496     17496     17499     17500     17496     17499     17501
     17497     17496     17498     17497     17496     17499     17498     17496     17499
     17499     17501     17502     17499     17501     17503     17500     17499     17501
     17501     17503     17504     17501     17503     17505     17501     17503     17506
     17502     17501     17503     17503     17506     17507     17503     17506     17508
     17503     17506     17509     17504     17503     17505     17504     17503     17506
     17505     17503     17506     17506     17509     17510     17506     17509     17511
     17506     17509     17512     17507     17506     17508     17507     17506     17509
     17508     17506     17509     17509     17512     17513     17509     17512     17514
     17509     17512     17515     17510     17509     17511     17510     17509     17512
     17511     17509     17512     17512     17515     17516     17512     17515     17517
     17512     17515     17518     17513     17512     17514     17513     17512     17515
     17514     17512     17515     17515     17518     17519     17515     17518     17520
     17515     17518     17521     17516     17515     17517     17516     17515     17518
     17517     17515     17518     17518     17521     17522     17518     17521     17523
     17518     17521     17524     17519     17518     17520     17519     17518     17521
     17520     17518     17521     17521     17524     17525     17521     17524     17526
     17521     17524     17527     17522     17521     17523     17522     17521     17524
     17523     17521     17524     17525     17524     17526     17525     17524     17527
     17526     17524     17527     17528     17531     17532     17528     17531     17533
     17528     17531     17534     17529     17528     17530     17529     17528     17531
     17530     17528     17531     17531     17534     17535     17531     17534     17536
     17531     17534     17537     17532     17531     17533     17532     17531     17534
     17533     17531     17534     17534     17537     17538     17534     17537     17539
     17534     17537     17540     17535     17534     17536     17535     17534     17537
     17536     17534     17537     17537     17540     17541     17537     17540     17542
     17537     17540     17543     17538     17537     17539     17538     17537     17540
     17539     17537     17540     17540     17543     17544     17540     17543     17545
     17540     17543     17546     17541     17540     17542     17541     17540     17543
     17542     17540     17543     17543     17546     17547     17543     17546     17548
     17543     17546     17549     17544     17543     17545     17544     17543     17546
     17545     17543     17546     17546     17549     17550     17546     17549     17551
     17546     17549     17552     17547     17546     17548     17547     17546     17549
     17548     17546     17549     17549     17552     17553     17549     17552     17554
     17549     17552     17555     17550     17549     17551     17550     17549     17552
     17551     17549     17552     17552     17555     17556     17552     17555     17557
     17552     17555     17558     17553     17552     17554     17553     17552     17555
     17554     17552     17555     17555     17558     17559     17555     17558     17560
     17555     17558     17561     17556     17555     17557     17556     17555     17558
     17557     17555     17558     17558     17561     17562     17558     17561     17563
     17558     17561     17564     17559     17558     17560     17559     17558     17561
     17560     17558     17561     17561     17564     17565     17561     17564     17566
     17561     17564     17567     17562     17561     17563     17562     17561     17564
     17563     17561     17564     17564     17567     17568     17564     17567     17569
     17564     17567     17570     17565     17564     17566     17565     17564     17567
     17566     17564     17567     17568     17567     17569     17568     17567     17570
     17569     17567     17570     17571     17572     17573     17571     17572     17574
     17571     17572     17587     17571     17575     17576     17571     17575     17577
     17571     17575     17578     17571     17579     17580     17571     17579     17581
     17571     17579     17582     17571     17583     17584     17571     17583     17585
     17571     17583     17586     17572     17571     17575     17572     17571     17579
     17572     17571     17583     17572     17587     17588     17572     17587     17589
     17572     17587     17593     17573     17572     17574     17573     17572     17587
     17574     17572     17587     17575     17571     17579     17575     17571     17583
     17576     17575     17577     17576     17575     17578     17577     17575     17578
     17579     17571     17583     17580     17579     17581     17580     17579     17582
     17581     17579     17582     17584     17583     17585     17584     17583     17586
     17585     17583     17586     17587     17593     17590     17588     17587     17589
     17588     17587     17593     17589     17587     17593     17590     17594     17595
     17591     17590     17592     17591     17590     17593     17591     17590     17594
     17592     17590     17593     17592     17590     17594     17593     17590     17594
     17594     17595     17596     17594     17595     17597     17594     17595     17598
     17595     17598     17599     17595     17598     17600     17595     17598     17606
     17596     17595     17597     17596     17595     17598     17597     17595     17598
     17598     17600     17601     17598     17606     17607     17598     17606     17608
     17598     17606     17609     17599     17598     17600     17599     17598     17606
     17600     17598     17606     17600     17601     17602     17600     17601     17603
     17601     17603     17604     17601     17603     17605     17601     17603     17615
     17602     17601     17603     17603     17615     17616     17603     17615     17617
     17603     17615     17618     17604     17603     17605     17604     17603     17615
     17605     17603     17615     17606     17609     17610     17607     17606     17608
     17607     17606     17609     17608     17606     17609     17609     17610     17611
     17609     17610     17612     17610     17612     17613     17610     17612     17614
     17610     17612     17662     17611     17610     17612     17612     17662     17663
     17612     17662     17664     17612     17662     17665     17613     17612     17614
     17613     17612     17662     17614     17612     17662     17615     17618     17619
     17615     17618     17620     17615     17618     17621     17616     17615     17617
     17616     17615     17618     17617     17615     17618     17618     17621     17622
     17618     17621     17623     17618     17621     17624     17619     17618     17620
     17619     17618     17621     17620     17618     17621     17621     17624     17625
     17621     17624     17626     17621     17624     17627     17622     17621     17623
     17622     17621     17624     17623     17621     17624     17624     17627     17628
     17624     17627     17629     17624     17627     17630     17625     17624     17626
     17625     17624     17627     17626     17624     17627     17627     17630     17631
     17627     17630     17632     17627     17630     17633     17628     17627     17629
     17628     17627     17630     17629     17627     17630     17630     17633     17634
     17630     17633     17635     17631     17630     17632     17631     17630     17633
     17632     17630     17633     17633     17635     17636     17633     17635     17637
     17634     17633     17635     17635     17637     17638     17635     17637     17639
     17635     17637     17640     17636     17635     17637     17637     17640     17641
     17637     17640     17642     17637     17640     17643     17638     17637     17639
     17638     17637     17640     17639     17637     17640     17640     17643     17644
     17640     17643     17645     17640     17643     17646     17641     17640     17642
     17641     17640     17643     17642     17640     17643     17643     17646     17647
     17643     17646     17648     17643     17646     17649     17644     17643     17645
     17644     17643     17646     17645     17643     17646     17646     17649     17650
     17646     17649     17651     17646     17649     17652     17647     17646     17648
     17647     17646     17649     17648     17646     17649     17649     17652     17653
     17649     17652     17654     17649     17652     17655     17650     17649     17651
     17650     17649     17652     17651     17649     17652     17652     17655     17656
     17652     17655     17657     17652     17655     17658     17653     17652     17654
     17653     17652     17655     17654     17652     17655     17655     17658     17659
     17655     17658     17660     17655     17658     17661     17656     17655     17657
     17656     17655     17658     17657     17655     17658     17659     17658     17660
     17659     17658     17661     17660     17658     17661     17662     17665     17666
     17662     17665     17667     17662     17665     17668     17663     17662     17664
     17663     17662     17665     17664     17662     17665     17665     17668     17669
     17665     17668     17670     17665     17668     17671     17666     17665     17667
     17666     17665     17668     17667     17665     17668     17668     17671     17672
     17668     17671     17673     17668     17671     17674     17669     17668     17670
     17669     17668     17671     17670     17668     17671     17671     17674     17675
     17671     17674     17676     17671     17674     17677     17672     17671     17673
     17672     17671     17674     17673     17671     17674     17674     17677     17678
     17674     17677     17679     17674     17677     17680     17675     17674     17676
     17675     17674     17677     17676     17674     17677     17677     17680     17681
     17677     17680     17682     17677     17680     17683     17678     17677     17679
     17678     17677     17680     17679     17677     17680     17680     17683     17684
     17680     17683     17685     17680     17683     17686     17681     17680     17682
     17681     17680     17683     17682     17680     17683     17683     17686     17687
     17683     17686     17688     17683     17686     17689     17684     17683     17685
     17684     17683     17686     17685     17683     17686     17686     17689     17690
     17686     17689     17691     17686     17689     17692     17687     17686     17688
     17687     17686     17689     17688     17686     17689     17689     17692     17693
     17689     17692     17694     17689     17692     17695     17690     17689     17691
     17690     17689     17692     17691     17689     17692     17692     17695     17696
     17692     17695     17697     17692     17695     17698     17693     17692     17694
     17693     17692     17695     17694     17692     17695     17695     17698     17699
     17695     17698     17700     17695     17698     17701     17696     17695     17697
     17696     17695     17698     17697     17695     17698     17698     17701     17702
     17698     17701     17703     17698     17701     17704     17699     17698     17700
     17699     17698     17701     17700     17698     17701     17702     17701     17703
     17702     17701     17704     17703     17701     17704     17705     17706     17707
     17705     17706     17708     17705     17706     17721     17705     17709     17710
     17705     17709     17711     17705     17709     17712     17705     17713     17714
     17705     17713     17715     17705     17713     17716     17705     17717     17718
     17705     17717     17719     17705     17717     17720     17706     17705     17709
     17706     17705     17713     17706     17705     17717     17706     17721     17722
     17706     17721     17723     17706     17721     17727     17707     17706     17708
     17707     17706     17721     17708     17706     17721     17709     17705     17713
     17709     17705     17717     17710     17709     17711     17710     17709     17712
     17711     17709     17712     17713     17705     17717     17714     17713     17715
     17714     17713     17716     17715     17713     17716     17718     17717     17719
     17718     17717     17720     17719     17717     17720     17721     17727     17724
     17722     17721     17723     17722     17721     17727     17723     17721     17727
     17724     17728     17729     17725     17724     17726     17725     17724     17727
     17725     17724     17728     17726     17724     17727     17726     17724     17728
     17727     17724     17728     17728     17729     17730     17728     17729     17731
     17728     17729     17732     17729     17732     17733     17729     17732     17734
     17729     17732     17740     17730     17729     17731     17730     17729     17732
     17731     17729     17732     17732     17734     17735     17732     17740     17741
     17732     17740     17742     17732     17740     17743     17733     17732     17734
     17733     17732     17740     17734     17732     17740     17734     17735     17736
     17734     17735     17737     17735     17737     17738     17735     17737     17739
     17735     17737     17749     17736     17735     17737     17737     17749     17750
     17737     17749     17751     17737     17749     17752     17738     17737     17739
     17738     17737     17749     17739     17737     17749     17740     17743     17744
     17741     17740     17742     17741     17740     17743     17742     17740     17743
     17743     17744     17745     17743     17744     17746     17744     17746     17747
     17744     17746     17748     17744     17746     17796     17745     17744     17746
     17746     17796     17797     17746     17796     17798     17746     17796     17799
     17747     17746     17748     17747     17746     17796     17748     17746     17796
     17749     17752     17753     17749     17752     17754     17749     17752     17755
     17750     17749     17751     17750     17749     17752     17751     17749     17752
     17752     17755     17756     17752     17755     17757     17752     17755     17758
     17753     17752     17754     17753     17752     17755     17754     17752     17755
     17755     17758     17759     17755     17758     17760     17755     17758     17761
     17756     17755     17757     17756     17755     17758     17757     17755     17758
     17758     17761     17762     17758     17761     17763     17758     17761     17764
     17759     17758     17760     17759     17758     17761     17760     17758     17761
     17761     17764     17765     17761     17764     17766     17761     17764     17767
     17762     17761     17763     17762     17761     17764     17763     17761     17764
     17764     17767     17768     17764     17767     17769     17765     17764     17766
     17765     17764     17767     17766     17764     17767     17767     17769     17770
     17767     17769     17771     17768     17767     17769     17769     17771     17772
     17769     17771     17773     17769     17771     17774     17770     17769     17771
     17771     17774     17775     17771     17774     17776     17771     17774     17777
     17772     17771     17773     17772     17771     17774     17773     17771     17774
     17774     17777     17778     17774     17777     17779     17774     17777     17780
     17775     17774     17776     17775     17774     17777     17776     17774     17777
     17777     17780     17781     17777     17780     17782     17777     17780     17783
     17778     17777     17779     17778     17777     17780     17779     17777     17780
     17780     17783     17784     17780     17783     17785     17780     17783     17786
     17781     17780     17782     17781     17780     17783     17782     17780     17783
     17783     17786     17787     17783     17786     17788     17783     17786     17789
     17784     17783     17785     17784     17783     17786     17785     17783     17786
     17786     17789     17790     17786     17789     17791     17786     17789     17792
     17787     17786     17788     17787     17786     17789     17788     17786     17789
     17789     17792     17793     17789     17792     17794     17789     17792     17795
     17790     17789     17791     17790     17789     17792     17791     17789     17792
     17793     17792     17794     17793     17792     17795     17794     17792     17795
     17796     17799     17800     17796     17799     17801     17796     17799     17802
     17797     17796     17798     17797     17796     17799     17798     17796     17799
     17799     17802     17803     17799     17802     17804     17799     17802     17805
     17800     17799     17801     17800     17799     17802     17801     17799     17802
     17802     17805     17806     17802     17805     17807     17802     17805     17808
     17803     17802     17804     17803     17802     17805     17804     17802     17805
     17805     17808     17809     17805     17808     17810     17805     17808     17811
     17806     17805     17807     17806     17805     17808     17807     17805     17808
     17808     17811     17812     17808     17811     17813     17808     17811     17814
     17809     17808     17810     17809     17808     17811     17810     17808     17811
     17811     17814     17815     17811     17814     17816     17811     17814     17817
     17812     17811     17813     17812     17811     17814     17813     17811     17814
     17814     17817     17818     17814     17817     17819     17814     17817     17820
     17815     17814     17816     17815     17814     17817     17816     17814     17817
     17817     17820     17821     17817     17820     17822     17817     17820     17823
     17818     17817     17819     17818     17817     17820     17819     17817     17820
     17820     17823     17824     17820     17823     17825     17820     17823     17826
     17821     17820     17822     17821     17820     17823     17822     17820     17823
     17823     17826     17827     17823     17826     17828     17823     17826     17829
     17824     17823     17825     17824     17823     17826     17825     17823     17826
     17826     17829     17830     17826     17829     17831     17826     17829     17832
     17827     17826     17828     17827     17826     17829     17828     17826     17829
     17829     17832     17833     17829     17832     17834     17829     17832     17835
     17830     17829     17831     17830     17829     17832     17831     17829     17832
     17832     17835     17836     17832     17835     17837     17832     17835     17838
     17833     17832     17834     17833     17832     17835     17834     17832     17835
     17836     17835     17837     17836     17835     17838     17837     17835     17838
     17839     17840     17841     17839     17840     17842     17839     17840     17855
     17839     17843     17844     17839     17843     17845     17839     17843     17846
     17839     17847     17848     17839     17847     17849     17839     17847     17850
     17839     17851     17852     17839     17851     17853     17839     17851     17854
     17840     17839     17843     17840     17839     17847     17840     17839     17851
     17840     17855     17856     17840     17855     17857     17840     17855     17861
     17841     17840     17842     17841     17840     17855     17842     17840     17855
     17843     17839     17847     17843     17839     17851     17844     17843     17845
     17844     17843     17846     17845     17843     17846     17847     17839     17851
     17848     17847     17849     17848     17847     17850     17849     17847     17850
     17852     17851     17853     17852     17851     17854     17853     17851     17854
     17855     17861     17858     17856     17855     17857     17856     17855     17861
     17857     17855     17861     17858     17862     17863     17859     17858     17860
     17859     17858     17861     17859     17858     17862     17860     17858     17861
     17860     17858     17862     17861     17858     17862     17862     17863     17864
     17862     17863     17865     17862     17863     17866     17863     17866     17867
     17863     17866     17868     17863     17866     17874     17864     17863     17865
     17864     17863     17866     17865     17863     17866     17866     17868     17869
     17866     17874     17875     17866     17874     17876     17866     17874     17877
     17867     17866     17868     17867     17866     17874     17868     17866     17874
     17868     17869     17870     17868     17869     17871     17869     17871     17872
     17869     17871     17873     17869     17871     17883     17870     17869     17871
     17871     17883     17884     17871     17883     17885     17871     17883     17886
     17872     17871     17873     17872     17871     17883     17873     17871     17883
     17874     17877     17878     17875     17874     17876     17875     17874     17877
     17876     17874     17877     17877     17878     17879     17877     17878     17880
     17878     17880     17881     17878     17880     17882     17878     17880     17930
     17879     17878     17880     17880     17930     17931     17880     17930     17932
     17880     17930     17933     17881     17880     17882     17881     17880     17930
     17882     17880     17930     17883     17886     17887     17883     17886     17888
     17883     17886     17889     17884     17883     17885     17884     17883     17886
     17885     17883     17886     17886     17889     17890     17886     17889     17891
     17886     17889     17892     17887     17886     17888     17887     17886     17889
     17888     17886     17889     17889     17892     17893     17889     17892     17894
     17889     17892     17895     17890     17889     17891     17890     17889     17892
     17891     17889     17892     17892     17895     17896     17892     17895     17897
     17892     17895     17898     17893     17892     17894     17893     17892     17895
     17894     17892     17895     17895     17898     17899     17895     17898     17900
     17895     17898     17901     17896     17895     17897     17896     17895     17898
     17897     17895     17898     17898     17901     17902     17898     17901     17903
     17899     17898     17900     17899     17898     17901     17900     17898     17901
     17901     17903     17904     17901     17903     17905     17902     17901     17903
     17903     17905     17906     17903     17905     17907     17903     17905     17908
     17904     17903     17905     17905     17908     17909     17905     17908     17910
     17905     17908     17911     17906     17905     17907     17906     17905     17908
     17907     17905     17908     17908     17911     17912     17908     17911     17913
     17908     17911     17914     17909     17908     17910     17909     17908     17911
     17910     17908     17911     17911     17914     17915     17911     17914     17916
     17911     17914     17917     17912     17911     17913     17912     17911     17914
     17913     17911     17914     17914     17917     17918     17914     17917     17919
     17914     17917     17920     17915     17914     17916     17915     17914     17917
     17916     17914     17917     17917     17920     17921     17917     17920     17922
     17917     17920     17923     17918     17917     17919     17918     17917     17920
     17919     17917     17920     17920     17923     17924     17920     17923     17925
     17920     17923     17926     17921     17920     17922     17921     17920     17923
     17922     17920     17923     17923     17926     17927     17923     17926     17928
     17923     17926     17929     17924     17923     17925     17924     17923     17926
     17925     17923     17926     17927     17926     17928     17927     17926     17929
     17928     17926     17929     17930     17933     17934     17930     17933     17935
     17930     17933     17936     17931     17930     17932     17931     17930     17933
     17932     17930     17933     17933     17936     17937     17933     17936     17938
     17933     17936     17939     17934     17933     17935     17934     17933     17936
     17935     17933     17936     17936     17939     17940     17936     17939     17941
     17936     17939     17942     17937     17936     17938     17937     17936     17939
     17938     17936     17939     17939     17942     17943     17939     17942     17944
     17939     17942     17945     17940     17939     17941     17940     17939     17942
     17941     17939     17942     17942     17945     17946     17942     17945     17947
     17942     17945     17948     17943     17942     17944     17943     17942     17945
     17944     17942     17945     17945     17948     17949     17945     17948     17950
     17945     17948     17951     17946     17945     17947     17946     17945     17948
     17947     17945     17948     17948     17951     17952     17948     17951     17953
     17948     17951     17954     17949     17948     17950     17949     17948     17951
     17950     17948     17951     17951     17954     17955     17951     17954     17956
     17951     17954     17957     17952     17951     17953     17952     17951     17954
     17953     17951     17954     17954     17957     17958     17954     17957     17959
     17954     17957     17960     17955     17954     17956     17955     17954     17957
     17956     17954     17957     17957     17960     17961     17957     17960     17962
     17957     17960     17963     17958     17957     17959     17958     17957     17960
     17959     17957     17960     17960     17963     17964     17960     17963     17965
     17960     17963     17966     17961     17960     17962     17961     17960     17963
     17962     17960     17963     17963     17966     17967     17963     17966     17968
     17963     17966     17969     17964     17963     17965     17964     17963     17966
     17965     17963     17966     17966     17969     17970     17966     17969     17971
     17966     17969     17972     17967     17966     17968     17967     17966     17969
     17968     17966     17969     17970     17969     17971     17970     17969     17972
     17971     17969     17972     17973     17974     17975     17973     17974     17976
     17973     17974     17989     17973     17977     17978     17973     17977     17979
     17973     17977     17980     17973     17981     17982     17973     17981     17983
     17973     17981     17984     17973     17985     17986     17973     17985     17987
     17973     17985     17988     17974     17973     17977     17974     17973     17981
     17974     17973     17985     17974     17989     17990     17974     17989     17991
     17974     17989     17995     17975     17974     17976     17975     17974     17989
     17976     17974     17989     17977     17973     17981     17977     17973     17985
     17978     17977     17979     17978     17977     17980     17979     17977     17980
     17981     17973     17985     17982     17981     17983     17982     17981     17984
     17983     17981     17984     17986     17985     17987     17986     17985     17988
     17987     17985     17988     17989     17995     17992     17990     17989     17991
     17990     17989     17995     17991     17989     17995     17992     17996     17997
     17993     17992     17994     17993     17992     17995     17993     17992     17996
     17994     17992     17995     17994     17992     17996     17995     17992     17996
     17996     17997     17998     17996     17997     17999     17996     17997     18000
     17997     18000     18001     17997     18000     18002     17997     18000     18008
     17998     17997     17999     17998     17997     18000     17999     17997     18000
     18000     18002     18003     18000     18008     18009     18000     18008     18010
     18000     18008     18011     18001     18000     18002     18001     18000     18008
     18002     18000     18008     18002     18003     18004     18002     18003     18005
     18003     18005     18006     18003     18005     18007     18003     18005     18017
     18004     18003     18005     18005     18017     18018     18005     18017     18019
     18005     18017     18020     18006     18005     18007     18006     18005     18017
     18007     18005     18017     18008     18011     18012     18009     18008     18010
     18009     18008     18011     18010     18008     18011     18011     18012     18013
     18011     18012     18014     18012     18014     18015     18012     18014     18016
     18012     18014     18064     18013     18012     18014     18014     18064     18065
     18014     18064     18066     18014     18064     18067     18015     18014     18016
     18015     18014     18064     18016     18014     18064     18017     18020     18021
     18017     18020     18022     18017     18020     18023     18018     18017     18019
     18018     18017     18020     18019     18017     18020     18020     18023     18024
     18020     18023     18025     18020     18023     18026     18021     18020     18022
     18021     18020     18023     18022     18020     18023     18023     18026     18027
     18023     18026     18028     18023     18026     18029     18024     18023     18025
     18024     18023     18026     18025     18023     18026     18026     18029     18030
     18026     18029     18031     18026     18029     18032     18027     18026     18028
     18027     18026     18029     18028     18026     18029     18029     18032     18033
     18029     18032     18034     18029     18032     18035     18030     18029     18031
     18030     18029     18032     18031     18029     18032     18032     18035     18036
     18032     18035     18037     18033     18032     18034     18033     18032     18035
     18034     18032     18035     18035     18037     18038     18035     18037     18039
     18036     18035     18037     18037     18039     18040     18037     18039     18041
     18037     18039     18042     18038     18037     18039     18039     18042     18043
     18039     18042     18044     18039     18042     18045     18040     18039     18041
     18040     18039     18042     18041     18039     18042     18042     18045     18046
     18042     18045     18047     18042     18045     18048     18043     18042     18044
     18043     18042     18045     18044     18042     18045     18045     18048     18049
     18045     18048     18050     18045     18048     18051     18046     18045     18047
     18046     18045     18048     18047     18045     18048     18048     18051     18052
     18048     18051     18053     18048     18051     18054     18049     18048     18050
     18049     18048     18051     18050     18048     18051     18051     18054     18055
     18051     18054     18056     18051     18054     18057     18052     18051     18053
     18052     18051     18054     18053     18051     18054     18054     18057     18058
     18054     18057     18059     18054     18057     18060     18055     18054     18056
     18055     18054     18057     18056     18054     18057     18057     18060     18061
     18057     18060     18062     18057     18060     18063     18058     18057     18059
     18058     18057     18060     18059     18057     18060     18061     18060     18062
     18061     18060     18063     18062     18060     18063     18064     18067     18068
     18064     18067     18069     18064     18067     18070     18065     18064     18066
     18065     18064     18067     18066     18064     18067     18067     18070     18071
     18067     18070     18072     18067     18070     18073     18068     18067     18069
     18068     18067     18070     18069     18067     18070     18070     18073     18074
     18070     18073     18075     18070     18073     18076     18071     18070     18072
     18071     18070     18073     18072     18070     18073     18073     18076     18077
     18073     18076     18078     18073     18076     18079     18074     18073     18075
     18074     18073     18076     18075     18073     18076     18076     18079     18080
     18076     18079     18081     18076     18079     18082     18077     18076     18078
     18077     18076     18079     18078     18076     18079     18079     18082     18083
     18079     18082     18084     18079     18082     18085     18080     18079     18081
     18080     18079     18082     18081     18079     18082     18082     18085     18086
     18082     18085     18087     18082     18085     18088     18083     18082     18084
     18083     18082     18085     18084     18082     18085     18085     18088     18089
     18085     18088     18090     18085     18088     18091     18086     18085     18087
     18086     18085     18088     18087     18085     18088     18088     18091     18092
     18088     18091     18093     18088     18091     18094     18089     18088     18090
     18089     18088     18091     18090     18088     18091     18091     18094     18095
     18091     18094     18096     18091     18094     18097     18092     18091     18093
     18092     18091     18094     18093     18091     18094     18094     18097     18098
     18094     18097     18099     18094     18097     18100     18095     18094     18096
     18095     18094     18097     18096     18094     18097     18097     18100     18101
     18097     18100     18102     18097     18100     18103     18098     18097     18099
     18098     18097     18100     18099     18097     18100     18100     18103     18104
     18100     18103     18105     18100     18103     18106     18101     18100     18102
     18101     18100     18103     18102     18100     18103     18104     18103     18105
     18104     18103     18106     18105     18103     18106     18107     18108     18109
     18107     18108     18110     18107     18108     18123     18107     18111     18112
     18107     18111     18113     18107     18111     18114     18107     18115     18116
     18107     18115     18117     18107     18115     18118     18107     18119     18120
     18107     18119     18121     18107     18119     18122     18108     18107     18111
     18108     18107     18115     18108     18107     18119     18108     18123     18124
     18108     18123     18125     18108     18123     18129     18109     18108     18110
     18109     18108     18123     18110     18108     18123     18111     18107     18115
     18111     18107     18119     18112     18111     18113     18112     18111     18114
     18113     18111     18114     18115     18107     18119     18116     18115     18117
     18116     18115     18118     18117     18115     18118     18120     18119     18121
     18120     18119     18122     18121     18119     18122     18123     18129     18126
     18124     18123     18125     18124     18123     18129     18125     18123     18129
     18126     18130     18131     18127     18126     18128     18127     18126     18129
     18127     18126     18130     18128     18126     18129     18128     18126     18130
     18129     18126     18130     18130     18131     18132     18130     18131     18133
     18130     18131     18134     18131     18134     18135     18131     18134     18136
     18131     18134     18142     18132     18131     18133     18132     18131     18134
     18133     18131     18134     18134     18136     18137     18134     18142     18143
     18134     18142     18144     18134     18142     18145     18135     18134     18136
     18135     18134     18142     18136     18134     18142     18136     18137     18138
     18136     18137     18139     18137     18139     18140     18137     18139     18141
     18137     18139     18151     18138     18137     18139     18139     18151     18152
     18139     18151     18153     18139     18151     18154     18140     18139     18141
     18140     18139     18151     18141     18139     18151     18142     18145     18146
     18143     18142     18144     18143     18142     18145     18144     18142     18145
     18145     18146     18147     18145     18146     18148     18146     18148     18149
     18146     18148     18150     18146     18148     18198     18147     18146     18148
     18148     18198     18199     18148     18198     18200     18148     18198     18201
     18149     18148     18150     18149     18148     18198     18150     18148     18198
     18151     18154     18155     18151     18154     18156     18151     18154     18157
     18152     18151     18153     18152     18151     18154     18153     18151     18154
     18154     18157     18158     18154     18157     18159     18154     18157     18160
     18155     18154     18156     18155     18154     18157     18156     18154     18157
     18157     18160     18161     18157     18160     18162     18157     18160     18163
     18158     18157     18159     18158     18157     18160     18159     18157     18160
     18160     18163     18164     18160     18163     18165     18160     18163     18166
     18161     18160     18162     18161     18160     18163     18162     18160     18163
     18163     18166     18167     18163     18166     18168     18163     18166     18169
     18164     18163     18165     18164     18163     18166     18165     18163     18166
     18166     18169     18170     18166     18169     18171     18167     18166     18168
     18167     18166     18169     18168     18166     18169     18169     18171     18172
     18169     18171     18173     18170     18169     18171     18171     18173     18174
     18171     18173     18175     18171     18173     18176     18172     18171     18173
     18173     18176     18177     18173     18176     18178     18173     18176     18179
     18174     18173     18175     18174     18173     18176     18175     18173     18176
     18176     18179     18180     18176     18179     18181     18176     18179     18182
     18177     18176     18178     18177     18176     18179     18178     18176     18179
     18179     18182     18183     18179     18182     18184     18179     18182     18185
     18180     18179     18181     18180     18179     18182     18181     18179     18182
     18182     18185     18186     18182     18185     18187     18182     18185     18188
     18183     18182     18184     18183     18182     18185     18184     18182     18185
     18185     18188     18189     18185     18188     18190     18185     18188     18191
     18186     18185     18187     18186     18185     18188     18187     18185     18188
     18188     18191     18192     18188     18191     18193     18188     18191     18194
     18189     18188     18190     18189     18188     18191     18190     18188     18191
     18191     18194     18195     18191     18194     18196     18191     18194     18197
     18192     18191     18193     18192     18191     18194     18193     18191     18194
     18195     18194     18196     18195     18194     18197     18196     18194     18197
     18198     18201     18202     18198     18201     18203     18198     18201     18204
     18199     18198     18200     18199     18198     18201     18200     18198     18201
     18201     18204     18205     18201     18204     18206     18201     18204     18207
     18202     18201     18203     18202     18201     18204     18203     18201     18204
     18204     18207     18208     18204     18207     18209     18204     18207     18210
     18205     18204     18206     18205     18204     18207     18206     18204     18207
     18207     18210     18211     18207     18210     18212     18207     18210     18213
     18208     18207     18209     18208     18207     18210     18209     18207     18210
     18210     18213     18214     18210     18213     18215     18210     18213     18216
     18211     18210     18212     18211     18210     18213     18212     18210     18213
     18213     18216     18217     18213     18216     18218     18213     18216     18219
     18214     18213     18215     18214     18213     18216     18215     18213     18216
     18216     18219     18220     18216     18219     18221     18216     18219     18222
     18217     18216     18218     18217     18216     18219     18218     18216     18219
     18219     18222     18223     18219     18222     18224     18219     18222     18225
     18220     18219     18221     18220     18219     18222     18221     18219     18222
     18222     18225     18226     18222     18225     18227     18222     18225     18228
     18223     18222     18224     18223     18222     18225     18224     18222     18225
     18225     18228     18229     18225     18228     18230     18225     18228     18231
     18226     18225     18227     18226     18225     18228     18227     18225     18228
     18228     18231     18232     18228     18231     18233     18228     18231     18234
     18229     18228     18230     18229     18228     18231     18230     18228     18231
     18231     18234     18235     18231     18234     18236     18231     18234     18237
     18232     18231     18233     18232     18231     18234     18233     18231     18234
     18234     18237     18238     18234     18237     18239     18234     18237     18240
     18235     18234     18236     18235     18234     18237     18236     18234     18237
     18238     18237     18239     18238     18237     18240     18239     18237     18240
     18241     18242     18243     18241     18242     18244     18241     18242     18257
     18241     18245     18246     18241     18245     18247     18241     18245     18248
     18241     18249     18250     18241     18249     18251     18241     18249     18252
     18241     18253     18254     18241     18253     18255     18241     18253     18256
     18242     18241     18245     18242     18241     18249     18242     18241     18253
     18242     18257     18258     18242     18257     18259     18242     18257     18263
     18243     18242     18244     18243     18242     18257     18244     18242     18257
     18245     18241     18249     18245     18241     18253     18246     18245     18247
     18246     18245     18248     18247     18245     18248     18249     18241     18253
     18250     18249     18251     18250     18249     18252     18251     18249     18252
     18254     18253     18255     18254     18253     18256     18255     18253     18256
     18257     18263     18260     18258     18257     18259     18258     18257     18263
     18259     18257     18263     18260     18264     18265     18261     18260     18262
     18261     18260     18263     18261     18260     18264     18262     18260     18263
     18262     18260     18264     18263     18260     18264     18264     18265     18266
     18264     18265     18267     18264     18265     18268     18265     18268     18269
     18265     18268     18270     18265     18268     18276     18266     18265     18267
     18266     18265     18268     18267     18265     18268     18268     18270     18271
     18268     18276     18277     18268     18276     18278     18268     18276     18279
     18269     18268     18270     18269     18268     18276     18270     18268     18276
     18270     18271     18272     18270     18271     18273     18271     18273     18274
     18271     18273     18275     18271     18273     18285     18272     18271     18273
     18273     18285     18286     18273     18285     18287     18273     18285     18288
     18274     18273     18275     18274     18273     18285     18275     18273     18285
     18276     18279     18280     18277     18276     18278     18277     18276     18279
     18278     18276     18279     18279     18280     18281     18279     18280     18282
     18280     18282     18283     18280     18282     18284     18280     18282     18332
     18281     18280     18282     18282     18332     18333     18282     18332     18334
     18282     18332     18335     18283     18282     18284     18283     18282     18332
     18284     18282     18332     18285     18288     18289     18285     18288     18290
     18285     18288     18291     18286     18285     18287     18286     18285     18288
     18287     18285     18288     18288     18291     18292     18288     18291     18293
     18288     18291     18294     18289     18288     18290     18289     18288     18291
     18290     18288     18291     18291     18294     18295     18291     18294     18296
     18291     18294     18297     18292     18291     18293     18292     18291     18294
     18293     18291     18294     18294     18297     18298     18294     18297     18299
     18294     18297     18300     18295     18294     18296     18295     18294     18297
     18296     18294     18297     18297     18300     18301     18297     18300     18302
     18297     18300     18303     18298     18297     18299     18298     18297     18300
     18299     18297     18300     18300     18303     18304     18300     18303     18305
     18301     18300     18302     18301     18300     18303     18302     18300     18303
     18303     18305     18306     18303     18305     18307     18304     18303     18305
     18305     18307     18308     18305     18307     18309     18305     18307     18310
     18306     18305     18307     18307     18310     18311     18307     18310     18312
     18307     18310     18313     18308     18307     18309     18308     18307     18310
     18309     18307     18310     18310     18313     18314     18310     18313     18315
     18310     18313     18316     18311     18310     18312     18311     18310     18313
     18312     18310     18313     18313     18316     18317     18313     18316     18318
     18313     18316     18319     18314     18313     18315     18314     18313     18316
     18315     18313     18316     18316     18319     18320     18316     18319     18321
     18316     18319     18322     18317     18316     18318     18317     18316     18319
     18318     18316     18319     18319     18322     18323     18319     18322     18324
     18319     18322     18325     18320     18319     18321     18320     18319     18322
     18321     18319     18322     18322     18325     18326     18322     18325     18327
     18322     18325     18328     18323     18322     18324     18323     18322     18325
     18324     18322     18325     18325     18328     18329     18325     18328     18330
     18325     18328     18331     18326     18325     18327     18326     18325     18328
     18327     18325     18328     18329     18328     18330     18329     18328     18331
     18330     18328     18331     18332     18335     18336     18332     18335     18337
     18332     18335     18338     18333     18332     18334     18333     18332     18335
     18334     18332     18335     18335     18338     18339     18335     18338     18340
     18335     18338     18341     18336     18335     18337     18336     18335     18338
     18337     18335     18338     18338     18341     18342     18338     18341     18343
     18338     18341     18344     18339     18338     18340     18339     18338     18341
     18340     18338     18341     18341     18344     18345     18341     18344     18346
     18341     18344     18347     18342     18341     18343     18342     18341     18344
     18343     18341     18344     18344     18347     18348     18344     18347     18349
     18344     18347     18350     18345     18344     18346     18345     18344     18347
     18346     18344     18347     18347     18350     18351     18347     18350     18352
     18347     18350     18353     18348     18347     18349     18348     18347     18350
     18349     18347     18350     18350     18353     18354     18350     18353     18355
     18350     18353     18356     18351     18350     18352     18351     18350     18353
     18352     18350     18353     18353     18356     18357     18353     18356     18358
     18353     18356     18359     18354     18353     18355     18354     18353     18356
     18355     18353     18356     18356     18359     18360     18356     18359     18361
     18356     18359     18362     18357     18356     18358     18357     18356     18359
     18358     18356     18359     18359     18362     18363     18359     18362     18364
     18359     18362     18365     18360     18359     18361     18360     18359     18362
     18361     18359     18362     18362     18365     18366     18362     18365     18367
     18362     18365     18368     18363     18362     18364     18363     18362     18365
     18364     18362     18365     18365     18368     18369     18365     18368     18370
     18365     18368     18371     18366     18365     18367     18366     18365     18368
     18367     18365     18368     18368     18371     18372     18368     18371     18373
     18368     18371     18374     18369     18368     18370     18369     18368     18371
     18370     18368     18371     18372     18371     18373     18372     18371     18374
     18373     18371     18374     18375     18376     18377     18375     18376     18378
     18375     18376     18391     18375     18379     18380     18375     18379     18381
     18375     18379     18382     18375     18383     18384     18375     18383     18385
     18375     18383     18386     18375     18387     18388     18375     18387     18389
     18375     18387     18390     18376     18375     18379     18376     18375     18383
     18376     18375     18387     18376     18391     18392     18376     18391     18393
     18376     18391     18397     18377     18376     18378     18377     18376     18391
     18378     18376     18391     18379     18375     18383     18379     18375     18387
     18380     18379     18381     18380     18379     18382     18381     18379     18382
     18383     18375     18387     18384     18383     18385     18384     18383     18386
     18385     18383     18386     18388     18387     18389     18388     18387     18390
     18389     18387     18390     18391     18397     18394     18392     18391     18393
     18392     18391     18397     18393     18391     18397     18394     18398     18399
     18395     18394     18396     18395     18394     18397     18395     18394     18398
     18396     18394     18397     18396     18394     18398     18397     18394     18398
     18398     18399     18400     18398     18399     18401     18398     18399     18402
     18399     18402     18403     18399     18402     18404     18399     18402     18410
     18400     18399     18401     18400     18399     18402     18401     18399     18402
     18402     18404     18405     18402     18410     18411     18402     18410     18412
     18402     18410     18413     18403     18402     18404     18403     18402     18410
     18404     18402     18410     18404     18405     18406     18404     18405     18407
     18405     18407     18408     18405     18407     18409     18405     18407     18419
     18406     18405     18407     18407     18419     18420     18407     18419     18421
     18407     18419     18422     18408     18407     18409     18408     18407     18419
     18409     18407     18419     18410     18413     18414     18411     18410     18412
     18411     18410     18413     18412     18410     18413     18413     18414     18415
     18413     18414     18416     18414     18416     18417     18414     18416     18418
     18414     18416     18466     18415     18414     18416     18416     18466     18467
     18416     18466     18468     18416     18466     18469     18417     18416     18418
     18417     18416     18466     18418     18416     18466     18419     18422     18423
     18419     18422     18424     18419     18422     18425     18420     18419     18421
     18420     18419     18422     18421     18419     18422     18422     18425     18426
     18422     18425     18427     18422     18425     18428     18423     18422     18424
     18423     18422     18425     18424     18422     18425     18425     18428     18429
     18425     18428     18430     18425     18428     18431     18426     18425     18427
     18426     18425     18428     18427     18425     18428     18428     18431     18432
     18428     18431     18433     18428     18431     18434     18429     18428     18430
     18429     18428     18431     18430     18428     18431     18431     18434     18435
     18431     18434     18436     18431     18434     18437     18432     18431     18433
     18432     18431     18434     18433     18431     18434     18434     18437     18438
     18434     18437     18439     18435     18434     18436     18435     18434     18437
     18436     18434     18437     18437     18439     18440     18437     18439     18441
     18438     18437     18439     18439     18441     18442     18439     18441     18443
     18439     18441     18444     18440     18439     18441     18441     18444     18445
     18441     18444     18446     18441     18444     18447     18442     18441     18443
     18442     18441     18444     18443     18441     18444     18444     18447     18448
     18444     18447     18449     18444     18447     18450     18445     18444     18446
     18445     18444     18447     18446     18444     18447     18447     18450     18451
     18447     18450     18452     18447     18450     18453     18448     18447     18449
     18448     18447     18450     18449     18447     18450     18450     18453     18454
     18450     18453     18455     18450     18453     18456     18451     18450     18452
     18451     18450     18453     18452     18450     18453     18453     18456     18457
     18453     18456     18458     18453     18456     18459     18454     18453     18455
     18454     18453     18456     18455     18453     18456     18456     18459     18460
     18456     18459     18461     18456     18459     18462     18457     18456     18458
     18457     18456     18459     18458     18456     18459     18459     18462     18463
     18459     18462     18464     18459     18462     18465     18460     18459     18461
     18460     18459     18462     18461     18459     18462     18463     18462     18464
     18463     18462     18465     18464     18462     18465     18466     18469     18470
     18466     18469     18471     18466     18469     18472     18467     18466     18468
     18467     18466     18469     18468     18466     18469     18469     18472     18473
     18469     18472     18474     18469     18472     18475     18470     18469     18471
     18470     18469     18472     18471     18469     18472     18472     18475     18476
     18472     18475     18477     18472     18475     18478     18473     18472     18474
     18473     18472     18475     18474     18472     18475     18475     18478     18479
     18475     18478     18480     18475     18478     18481     18476     18475     18477
     18476     18475     18478     18477     18475     18478     18478     18481     18482
     18478     18481     18483     18478     18481     18484     18479     18478     18480
     18479     18478     18481     18480     18478     18481     18481     18484     18485
     18481     18484     18486     18481     18484     18487     18482     18481     18483
     18482     18481     18484     18483     18481     18484     18484     18487     18488
     18484     18487     18489     18484     18487     18490     18485     18484     18486
     18485     18484     18487     18486     18484     18487     18487     18490     18491
     18487     18490     18492     18487     18490     18493     18488     18487     18489
     18488     18487     18490     18489     18487     18490     18490     18493     18494
     18490     18493     18495     18490     18493     18496     18491     18490     18492
     18491     18490     18493     18492     18490     18493     18493     18496     18497
     18493     18496     18498     18493     18496     18499     18494     18493     18495
     18494     18493     18496     18495     18493     18496     18496     18499     18500
     18496     18499     18501     18496     18499     18502     18497     18496     18498
     18497     18496     18499     18498     18496     18499     18499     18502     18503
     18499     18502     18504     18499     18502     18505     18500     18499     18501
     18500     18499     18502     18501     18499     18502     18502     18505     18506
     18502     18505     18507     18502     18505     18508     18503     18502     18504
     18503     18502     18505     18504     18502     18505     18506     18505     18507
     18506     18505     18508     18507     18505     18508     18509     18510     18511
     18509     18510     18512     18509     18510     18525     18509     18513     18514
     18509     18513     18515     18509     18513     18516     18509     18517     18518
     18509     18517     18519     18509     18517     18520     18509     18521     18522
     18509     18521     18523     18509     18521     18524     18510     18509     18513
     18510     18509     18517     18510     18509     18521     18510     18525     18526
     18510     18525     18527     18510     18525     18531     18511     18510     18512
     18511     18510     18525     18512     18510     18525     18513     18509     18517
     18513     18509     18521     18514     18513     18515     18514     18513     18516
     18515     18513     18516     18517     18509     18521     18518     18517     18519
     18518     18517     18520     18519     18517     18520     18522     18521     18523
     18522     18521     18524     18523     18521     18524     18525     18531     18528
     18526     18525     18527     18526     18525     18531     18527     18525     18531
     18528     18532     18533     18529     18528     18530     18529     18528     18531
     18529     18528     18532     18530     18528     18531     18530     18528     18532
     18531     18528     18532     18532     18533     18534     18532     18533     18535
     18532     18533     18536     18533     18536     18537     18533     18536     18538
     18533     18536     18544     18534     18533     18535     18534     18533     18536
     18535     18533     18536     18536     18538     18539     18536     18544     18545
     18536     18544     18546     18536     18544     18547     18537     18536     18538
     18537     18536     18544     18538     18536     18544     18538     18539     18540
     18538     18539     18541     18539     18541     18542     18539     18541     18543
     18539     18541     18553     18540     18539     18541     18541     18553     18554
     18541     18553     18555     18541     18553     18556     18542     18541     18543
     18542     18541     18553     18543     18541     18553     18544     18547     18548
     18545     18544     18546     18545     18544     18547     18546     18544     18547
     18547     18548     18549     18547     18548     18550     18548     18550     18551
     18548     18550     18552     18548     18550     18600     18549     18548     18550
     18550     18600     18601     18550     18600     18602     18550     18600     18603
     18551     18550     18552     18551     18550     18600     18552     18550     18600
     18553     18556     18557     18553     18556     18558     18553     18556     18559
     18554     18553     18555     18554     18553     18556     18555     18553     18556
     18556     18559     18560     18556     18559     18561     18556     18559     18562
     18557     18556     18558     18557     18556     18559     18558     18556     18559
     18559     18562     18563     18559     18562     18564     18559     18562     18565
     18560     18559     18561     18560     18559     18562     18561     18559     18562
     18562     18565     18566     18562     18565     18567     18562     18565     18568
     18563     18562     18564     18563     18562     18565     18564     18562     18565
     18565     18568     18569     18565     18568     18570     18565     18568     18571
     18566     18565     18567     18566     18565     18568     18567     18565     18568
     18568     18571     18572     18568     18571     18573     18569     18568     18570
     18569     18568     18571     18570     18568     18571     18571     18573     18574
     18571     18573     18575     18572     18571     18573     18573     18575     18576
     18573     18575     18577     18573     18575     18578     18574     18573     18575
     18575     18578     18579     18575     18578     18580     18575     18578     18581
     18576     18575     18577     18576     18575     18578     18577     18575     18578
     18578     18581     18582     18578     18581     18583     18578     18581     18584
     18579     18578     18580     18579     18578     18581     18580     18578     18581
     18581     18584     18585     18581     18584     18586     18581     18584     18587
     18582     18581     18583     18582     18581     18584     18583     18581     18584
     18584     18587     18588     18584     18587     18589     18584     18587     18590
     18585     18584     18586     18585     18584     18587     18586     18584     18587
     18587     18590     18591     18587     18590     18592     18587     18590     18593
     18588     18587     18589     18588     18587     18590     18589     18587     18590
     18590     18593     18594     18590     18593     18595     18590     18593     18596
     18591     18590     18592     18591     18590     18593     18592     18590     18593
     18593     18596     18597     18593     18596     18598     18593     18596     18599
     18594     18593     18595     18594     18593     18596     18595     18593     18596
     18597     18596     18598     18597     18596     18599     18598     18596     18599
     18600     18603     18604     18600     18603     18605     18600     18603     18606
     18601     18600     18602     18601     18600     18603     18602     18600     18603
     18603     18606     18607     18603     18606     18608     18603     18606     18609
     18604     18603     18605     18604     18603     18606     18605     18603     18606
     18606     18609     18610     18606     18609     18611     18606     18609     18612
     18607     18606     18608     18607     18606     18609     18608     18606     18609
     18609     18612     18613     18609     18612     18614     18609     18612     18615
     18610     18609     18611     18610     18609     18612     18611     18609     18612
     18612     18615     18616     18612     18615     18617     18612     18615     18618
     18613     18612     18614     18613     18612     18615     18614     18612     18615
     18615     18618     18619     18615     18618     18620     18615     18618     18621
     18616     18615     18617     18616     18615     18618     18617     18615     18618
     18618     18621     18622     18618     18621     18623     18618     18621     18624
     18619     18618     18620     18619     18618     18621     18620     18618     18621
     18621     18624     18625     18621     18624     18626     18621     18624     18627
     18622     18621     18623     18622     18621     18624     18623     18621     18624
     18624     18627     18628     18624     18627     18629     18624     18627     18630
     18625     18624     18626     18625     18624     18627     18626     18624     18627
     18627     18630     18631     18627     18630     18632     18627     18630     18633
     18628     18627     18629     18628     18627     18630     18629     18627     18630
     18630     18633     18634     18630     18633     18635     18630     18633     18636
     18631     18630     18632     18631     18630     18633     18632     18630     18633
     18633     18636     18637     18633     18636     18638     18633     18636     18639
     18634     18633     18635     18634     18633     18636     18635     18633     18636
     18636     18639     18640     18636     18639     18641     18636     18639     18642
     18637     18636     18638     18637     18636     18639     18638     18636     18639
     18640     18639     18641     18640     18639     18642     18641     18639     18642
     18643     18644     18645     18643     18644     18646     18643     18644     18659
     18643     18647     18648     18643     18647     18649     18643     18647     18650
     18643     18651     18652     18643     18651     18653     18643     18651     18654
     18643     18655     18656     18643     18655     18657     18643     18655     18658
     18644     18643     18647     18644     18643     18651     18644     18643     18655
     18644     18659     18660     18644     18659     18661     18644     18659     18665
     18645     18644     18646     18645     18644     18659     18646     18644     18659
     18647     18643     18651     18647     18643     18655     18648     18647     18649
     18648     18647     18650     18649     18647     18650     18651     18643     18655
     18652     18651     18653     18652     18651     18654     18653     18651     18654
     18656     18655     18657     18656     18655     18658     18657     18655     18658
     18659     18665     18662     18660     18659     18661     18660     18659     18665
     18661     18659     18665     18662     18666     18667     18663     18662     18664
     18663     18662     18665     18663     18662     18666     18664     18662     18665
     18664     18662     18666     18665     18662     18666     18666     18667     18668
     18666     18667     18669     18666     18667     18670     18667     18670     18671
     18667     18670     18672     18667     18670     18678     18668     18667     18669
     18668     18667     18670     18669     18667     18670     18670     18672     18673
     18670     18678     18679     18670     18678     18680     18670     18678     18681
     18671     18670     18672     18671     18670     18678     18672     18670     18678
     18672     18673     18674     18672     18673     18675     18673     18675     18676
     18673     18675     18677     18673     18675     18687     18674     18673     18675
     18675     18687     18688     18675     18687     18689     18675     18687     18690
     18676     18675     18677     18676     18675     18687     18677     18675     18687
     18678     18681     18682     18679     18678     18680     18679     18678     18681
     18680     18678     18681     18681     18682     18683     18681     18682     18684
     18682     18684     18685     18682     18684     18686     18682     18684     18734
     18683     18682     18684     18684     18734     18735     18684     18734     18736
     18684     18734     18737     18685     18684     18686     18685     18684     18734
     18686     18684     18734     18687     18690     18691     18687     18690     18692
     18687     18690     18693     18688     18687     18689     18688     18687     18690
     18689     18687     18690     18690     18693     18694     18690     18693     18695
     18690     18693     18696     18691     18690     18692     18691     18690     18693
     18692     18690     18693     18693     18696     18697     18693     18696     18698
     18693     18696     18699     18694     18693     18695     18694     18693     18696
     18695     18693     18696     18696     18699     18700     18696     18699     18701
     18696     18699     18702     18697     18696     18698     18697     18696     18699
     18698     18696     18699     18699     18702     18703     18699     18702     18704
     18699     18702     18705     18700     18699     18701     18700     18699     18702
     18701     18699     18702     18702     18705     18706     18702     18705     18707
     18703     18702     18704     18703     18702     18705     18704     18702     18705
     18705     18707     18708     18705     18707     18709     18706     18705     18707
     18707     18709     18710     18707     18709     18711     18707     18709     18712
     18708     18707     18709     18709     18712     18713     18709     18712     18714
     18709     18712     18715     18710     18709     18711     18710     18709     18712
     18711     18709     18712     18712     18715     18716     18712     18715     18717
     18712     18715     18718     18713     18712     18714     18713     18712     18715
     18714     18712     18715     18715     18718     18719     18715     18718     18720
     18715     18718     18721     18716     18715     18717     18716     18715     18718
     18717     18715     18718     18718     18721     18722     18718     18721     18723
     18718     18721     18724     18719     18718     18720     18719     18718     18721
     18720     18718     18721     18721     18724     18725     18721     18724     18726
     18721     18724     18727     18722     18721     18723     18722     18721     18724
     18723     18721     18724     18724     18727     18728     18724     18727     18729
     18724     18727     18730     18725     18724     18726     18725     18724     18727
     18726     18724     18727     18727     18730     18731     18727     18730     18732
     18727     18730     18733     18728     18727     18729     18728     18727     18730
     18729     18727     18730     18731     18730     18732     18731     18730     18733
     18732     18730     18733     18734     18737     18738     18734     18737     18739
     18734     18737     18740     18735     18734     18736     18735     18734     18737
     18736     18734     18737     18737     18740     18741     18737     18740     18742
     18737     18740     18743     18738     18737     18739     18738     18737     18740
     18739     18737     18740     18740     18743     18744     18740     18743     18745
     18740     18743     18746     18741     18740     18742     18741     18740     18743
     18742     18740     18743     18743     18746     18747     18743     18746     18748
     18743     18746     18749     18744     18743     18745     18744     18743     18746
     18745     18743     18746     18746     18749     18750     18746     18749     18751
     18746     18749     18752     18747     18746     18748     18747     18746     18749
     18748     18746     18749     18749     18752     18753     18749     18752     18754
     18749     18752     18755     18750     18749     18751     18750     18749     18752
     18751     18749     18752     18752     18755     18756     18752     18755     18757
     18752     18755     18758     18753     18752     18754     18753     18752     18755
     18754     18752     18755     18755     18758     18759     18755     18758     18760
     18755     18758     18761     18756     18755     18757     18756     18755     18758
     18757     18755     18758     18758     18761     18762     18758     18761     18763
     18758     18761     18764     18759     18758     18760     18759     18758     18761
     18760     18758     18761     18761     18764     18765     18761     18764     18766
     18761     18764     18767     18762     18761     18763     18762     18761     18764
     18763     18761     18764     18764     18767     18768     18764     18767     18769
     18764     18767     18770     18765     18764     18766     18765     18764     18767
     18766     18764     18767     18767     18770     18771     18767     18770     18772
     18767     18770     18773     18768     18767     18769     18768     18767     18770
     18769     18767     18770     18770     18773     18774     18770     18773     18775
     18770     18773     18776     18771     18770     18772     18771     18770     18773
     18772     18770     18773     18774     18773     18775     18774     18773     18776
     18775     18773     18776     18777     18779     18780     18777     18781     18782
     18777     18781     18783     18777     18781     18784     18777     18823     18820
     18777     18823     18824     18777     18823     18825     18778     18777     18779
     18778     18777     18781     18778     18777     18823     18779     18777     18781
     18779     18777     18823     18781     18777     18823     18781     18784     18785
     18781     18784     18815     18782     18781     18783     18782     18781     18784
     18783     18781     18784     18784     18785     18786     18784     18785     18787
     18784     18815     18813     18784     18815     18816     18784     18815     18820
     18785     18784     18815     18785     18787     18788     18785     18787     18789
     18785     18787     18790     18786     18785     18787     18787     18790     18791
     18787     18790     18792     18787     18790     18813     18788     18787     18789
     18788     18787     18790     18789     18787     18790     18790     18792     18793
     18790     18792     18794     18790     18792     18802     18790     18813     18810
     18790     18813     18814     18790     18813     18815     18791     18790     18792
     18791     18790     18813     18792     18790     18813     18792     18794     18795
     18792     18794     18796     18792     18794     18797     18792     18802     18800
     18792     18802     18803     18792     18802     18807     18793     18792     18794
     18793     18792     18802     18794     18792     18802     18794     18797     18798
     18794     18797     18799     18794     18797     18800     18795     18794     18796
     18795     18794     18797     18796     18794     18797     18797     18800     18801
     18797     18800     18802     18797     18800     18826     18798     18797     18799
     18798     18797     18800     18799     18797     18800     18800     18802     18803
     18800     18802     18807     18800     18826     18827     18800     18826     18828
     18800     18826     18832     18801     18800     18802     18801     18800     18826
     18802     18800     18826     18802     18803     18804     18802     18803     18805
     18802     18803     18806     18802     18807     18808     18802     18807     18809
     18802     18807     18810     18803     18802     18807     18804     18803     18805
     18804     18803     18806     18805     18803     18806     18807     18810     18811
     18807     18810     18812     18807     18810     18813     18808     18807     18809
     18808     18807     18810     18809     18807     18810     18810     18813     18814
     18810     18813     18815     18811     18810     18812     18811     18810     18813
     18812     18810     18813     18813     18815     18816     18813     18815     18820
     18814     18813     18815     18815     18816     18817     18815     18816     18818
     18815     18816     18819     18815     18820     18821     18815     18820     18822
     18815     18820     18823     18816     18815     18820     18817     18816     18818
     18817     18816     18819     18818     18816     18819     18820     18823     18824
     18820     18823     18825     18821     18820     18822     18821     18820     18823
     18822     18820     18823     18824     18823     18825     18826     18828     18829
     18826     18828     18830     18826     18828     18831     18826     18832     18833
     18826     18832     18834     18826     18832     18835     18827     18826     18828
     18827     18826     18832     18828     18826     18832     18829     18828     18830
     18829     18828     18831     18830     18828     18831     18832     18835     18836
     18832     18835     18837     18832     18835     18838     18833     18832     18834
     18833     18832     18835     18834     18832     18835     18835     18838     18839
     18835     18838     18840     18835     18838     18841     18836     18835     18837
     18836     18835     18838     18837     18835     18838     18838     18841     18842
     18838     18841     18843     18838     18841     18847     18839     18838     18840
     18839     18838     18841     18840     18838     18841     18841     18843     18844
     18841     18843     18845     18841     18843     18846     18841     18847     18848
     18841     18847     18849     18841     18847     18850     18842     18841     18843
     18842     18841     18847     18843     18841     18847     18844     18843     18845
     18844     18843     18846     18845     18843     18846     18848     18847     18849
     18848     18847     18850     18849     18847     18850     18851     18853     18854
     18851     18855     18856     18851     18855     18857     18851     18855     18858
     18851     18897     18894     18851     18897     18898     18851     18897     18899
     18852     18851     18853     18852     18851     18855     18852     18851     18897
     18853     18851     18855     18853     18851     18897     18855     18851     18897
     18855     18858     18859     18855     18858     18889     18856     18855     18857
     18856     18855     18858     18857     18855     18858     18858     18859     18860
     18858     18859     18861     18858     18889     18887     18858     18889     18890
     18858     18889     18894     18859     18858     18889     18859     18861     18862
     18859     18861     18863     18859     18861     18864     18860     18859     18861
     18861     18864     18865     18861     18864     18866     18861     18864     18887
     18862     18861     18863     18862     18861     18864     18863     18861     18864
     18864     18866     18867     18864     18866     18868     18864     18866     18876
     18864     18887     18884     18864     18887     18888     18864     18887     18889
     18865     18864     18866     18865     18864     18887     18866     18864     18887
     18866     18868     18869     18866     18868     18870     18866     18868     18871
     18866     18876     18874     18866     18876     18877     18866     18876     18881
     18867     18866     18868     18867     18866     18876     18868     18866     18876
     18868     18871     18872     18868     18871     18873     18868     18871     18874
     18869     18868     18870     18869     18868     18871     18870     18868     18871
     18871     18874     18875     18871     18874     18876     18871     18874     18900
     18872     18871     18873     18872     18871     18874     18873     18871     18874
     18874     18876     18877     18874     18876     18881     18874     18900     18901
     18874     18900     18902     18874     18900     18906     18875     18874     18876
     18875     18874     18900     18876     18874     18900     18876     18877     18878
     18876     18877     18879     18876     18877     18880     18876     18881     18882
     18876     18881     18883     18876     18881     18884     18877     18876     18881
     18878     18877     18879     18878     18877     18880     18879     18877     18880
     18881     18884     18885     18881     18884     18886     18881     18884     18887
     18882     18881     18883     18882     18881     18884     18883     18881     18884
     18884     18887     18888     18884     18887     18889     18885     18884     18886
     18885     18884     18887     18886     18884     18887     18887     18889     18890
     18887     18889     18894     18888     18887     18889     18889     18890     18891
     18889     18890     18892     18889     18890     18893     18889     18894     18895
     18889     18894     18896     18889     18894     18897     18890     18889     18894
     18891     18890     18892     18891     18890     18893     18892     18890     18893
     18894     18897     18898     18894     18897     18899     18895     18894     18896
     18895     18894     18897     18896     18894     18897     18898     18897     18899
     18900     18902     18903     18900     18902     18904     18900     18902     18905
     18900     18906     18907     18900     18906     18908     18900     18906     18909
     18901     18900     18902     18901     18900     18906     18902     18900     18906
     18903     18902     18904     18903     18902     18905     18904     18902     18905
     18906     18909     18910     18906     18909     18911     18906     18909     18912
     18907     18906     18908     18907     18906     18909     18908     18906     18909
     18909     18912     18913     18909     18912     18914     18909     18912     18915
     18910     18909     18911     18910     18909     18912     18911     18909     18912
     18912     18915     18916     18912     18915     18917     18912     18915     18921
     18913     18912     18914     18913     18912     18915     18914     18912     18915
     18915     18917     18918     18915     18917     18919     18915     18917     18920
     18915     18921     18922     18915     18921     18923     18915     18921     18924
     18916     18915     18917     18916     18915     18921     18917     18915     18921
     18918     18917     18919     18918     18917     18920     18919     18917     18920
     18922     18921     18923     18922     18921     18924     18923     18921     18924
     18925     18927     18928     18925     18929     18930     18925     18929     18931
     18925     18929     18932     18925     18971     18968     18925     18971     18972
     18925     18971     18973     18926     18925     18927     18926     18925     18929
     18926     18925     18971     18927     18925     18929     18927     18925     18971
     18929     18925     18971     18929     18932     18933     18929     18932     18963
     18930     18929     18931     18930     18929     18932     18931     18929     18932
     18932     18933     18934     18932     18933     18935     18932     18963     18961
     18932     18963     18964     18932     18963     18968     18933     18932     18963
     18933     18935     18936     18933     18935     18937     18933     18935     18938
     18934     18933     18935     18935     18938     18939     18935     18938     18940
     18935     18938     18961     18936     18935     18937     18936     18935     18938
     18937     18935     18938     18938     18940     18941     18938     18940     18942
     18938     18940     18950     18938     18961     18958     18938     18961     18962
     18938     18961     18963     18939     18938     18940     18939     18938     18961
     18940     18938     18961     18940     18942     18943     18940     18942     18944
     18940     18942     18945     18940     18950     18948     18940     18950     18951
     18940     18950     18955     18941     18940     18942     18941     18940     18950
     18942     18940     18950     18942     18945     18946     18942     18945     18947
     18942     18945     18948     18943     18942     18944     18943     18942     18945
     18944     18942     18945     18945     18948     18949     18945     18948     18950
     18945     18948     18974     18946     18945     18947     18946     18945     18948
     18947     18945     18948     18948     18950     18951     18948     18950     18955
     18948     18974     18975     18948     18974     18976     18948     18974     18980
     18949     18948     18950     18949     18948     18974     18950     18948     18974
     18950     18951     18952     18950     18951     18953     18950     18951     18954
     18950     18955     18956     18950     18955     18957     18950     18955     18958
     18951     18950     18955     18952     18951     18953     18952     18951     18954
     18953     18951     18954     18955     18958     18959     18955     18958     18960
     18955     18958     18961     18956     18955     18957     18956     18955     18958
     18957     18955     18958     18958     18961     18962     18958     18961     18963
     18959     18958     18960     18959     18958     18961     18960     18958     18961
     18961     18963     18964     18961     18963     18968     18962     18961     18963
     18963     18964     18965     18963     18964     18966     18963     18964     18967
     18963     18968     18969     18963     18968     18970     18963     18968     18971
     18964     18963     18968     18965     18964     18966     18965     18964     18967
     18966     18964     18967     18968     18971     18972     18968     18971     18973
     18969     18968     18970     18969     18968     18971     18970     18968     18971
     18972     18971     18973     18974     18976     18977     18974     18976     18978
     18974     18976     18979     18974     18980     18981     18974     18980     18982
     18974     18980     18983     18975     18974     18976     18975     18974     18980
     18976     18974     18980     18977     18976     18978     18977     18976     18979
     18978     18976     18979     18980     18983     18984     18980     18983     18985
     18980     18983     18986     18981     18980     18982     18981     18980     18983
     18982     18980     18983     18983     18986     18987     18983     18986     18988
     18983     18986     18989     18984     18983     18985     18984     18983     18986
     18985     18983     18986     18986     18989     18990     18986     18989     18991
     18986     18989     18995     18987     18986     18988     18987     18986     18989
     18988     18986     18989     18989     18991     18992     18989     18991     18993
     18989     18991     18994     18989     18995     18996     18989     18995     18997
     18989     18995     18998     18990     18989     18991     18990     18989     18995
     18991     18989     18995     18992     18991     18993     18992     18991     18994
     18993     18991     18994     18996     18995     18997     18996     18995     18998
     18997     18995     18998     18999     19001     19002     18999     19003     19004
     18999     19003     19005     18999     19003     19006     18999     19045     19042
     18999     19045     19046     18999     19045     19047     19000     18999     19001
     19000     18999     19003     19000     18999     19045     19001     18999     19003
     19001     18999     19045     19003     18999     19045     19003     19006     19007
     19003     19006     19037     19004     19003     19005     19004     19003     19006
     19005     19003     19006     19006     19007     19008     19006     19007     19009
     19006     19037     19035     19006     19037     19038     19006     19037     19042
     19007     19006     19037     19007     19009     19010     19007     19009     19011
     19007     19009     19012     19008     19007     19009     19009     19012     19013
     19009     19012     19014     19009     19012     19035     19010     19009     19011
     19010     19009     19012     19011     19009     19012     19012     19014     19015
     19012     19014     19016     19012     19014     19024     19012     19035     19032
     19012     19035     19036     19012     19035     19037     19013     19012     19014
     19013     19012     19035     19014     19012     19035     19014     19016     19017
     19014     19016     19018     19014     19016     19019     19014     19024     19022
     19014     19024     19025     19014     19024     19029     19015     19014     19016
     19015     19014     19024     19016     19014     19024     19016     19019     19020
     19016     19019     19021     19016     19019     19022     19017     19016     19018
     19017     19016     19019     19018     19016     19019     19019     19022     19023
     19019     19022     19024     19019     19022     19048     19020     19019     19021
     19020     19019     19022     19021     19019     19022     19022     19024     19025
     19022     19024     19029     19022     19048     19049     19022     19048     19050
     19022     19048     19054     19023     19022     19024     19023     19022     19048
     19024     19022     19048     19024     19025     19026     19024     19025     19027
     19024     19025     19028     19024     19029     19030     19024     19029     19031
     19024     19029     19032     19025     19024     19029     19026     19025     19027
     19026     19025     19028     19027     19025     19028     19029     19032     19033
     19029     19032     19034     19029     19032     19035     19030     19029     19031
     19030     19029     19032     19031     19029     19032     19032     19035     19036
     19032     19035     19037     19033     19032     19034     19033     19032     19035
     19034     19032     19035     19035     19037     19038     19035     19037     19042
     19036     19035     19037     19037     19038     19039     19037     19038     19040
     19037     19038     19041     19037     19042     19043     19037     19042     19044
     19037     19042     19045     19038     19037     19042     19039     19038     19040
     19039     19038     19041     19040     19038     19041     19042     19045     19046
     19042     19045     19047     19043     19042     19044     19043     19042     19045
     19044     19042     19045     19046     19045     19047     19048     19050     19051
     19048     19050     19052     19048     19050     19053     19048     19054     19055
     19048     19054     19056     19048     19054     19057     19049     19048     19050
     19049     19048     19054     19050     19048     19054     19051     19050     19052
     19051     19050     19053     19052     19050     19053     19054     19057     19058
     19054     19057     19059     19054     19057     19060     19055     19054     19056
     19055     19054     19057     19056     19054     19057     19057     19060     19061
     19057     19060     19062     19057     19060     19063     19058     19057     19059
     19058     19057     19060     19059     19057     19060     19060     19063     19064
     19060     19063     19065     19060     19063     19069     19061     19060     19062
     19061     19060     19063     19062     19060     19063     19063     19065     19066
     19063     19065     19067     19063     19065     19068     19063     19069     19070
     19063     19069     19071     19063     19069     19072     19064     19063     19065
     19064     19063     19069     19065     19063     19069     19066     19065     19067
     19066     19065     19068     19067     19065     19068     19070     19069     19071
     19070     19069     19072     19071     19069     19072     19073     19075     19076
     19073     19077     19078     19073     19077     19079     19073     19077     19080
     19073     19119     19116     19073     19119     19120     19073     19119     19121
     19074     19073     19075     19074     19073     19077     19074     19073     19119
     19075     19073     19077     19075     19073     19119     19077     19073     19119
     19077     19080     19081     19077     19080     19111     19078     19077     19079
     19078     19077     19080     19079     19077     19080     19080     19081     19082
     19080     19081     19083     19080     19111     19109     19080     19111     19112
     19080     19111     19116     19081     19080     19111     19081     19083     19084
     19081     19083     19085     19081     19083     19086     19082     19081     19083
     19083     19086     19087     19083     19086     19088     19083     19086     19109
     19084     19083     19085     19084     19083     19086     19085     19083     19086
     19086     19088     19089     19086     19088     19090     19086     19088     19098
     19086     19109     19106     19086     19109     19110     19086     19109     19111
     19087     19086     19088     19087     19086     19109     19088     19086     19109
     19088     19090     19091     19088     19090     19092     19088     19090     19093
     19088     19098     19096     19088     19098     19099     19088     19098     19103
     19089     19088     19090     19089     19088     19098     19090     19088     19098
     19090     19093     19094     19090     19093     19095     19090     19093     19096
     19091     19090     19092     19091     19090     19093     19092     19090     19093
     19093     19096     19097     19093     19096     19098     19093     19096     19122
     19094     19093     19095     19094     19093     19096     19095     19093     19096
     19096     19098     19099     19096     19098     19103     19096     19122     19123
     19096     19122     19124     19096     19122     19128     19097     19096     19098
     19097     19096     19122     19098     19096     19122     19098     19099     19100
     19098     19099     19101     19098     19099     19102     19098     19103     19104
     19098     19103     19105     19098     19103     19106     19099     19098     19103
     19100     19099     19101     19100     19099     19102     19101     19099     19102
     19103     19106     19107     19103     19106     19108     19103     19106     19109
     19104     19103     19105     19104     19103     19106     19105     19103     19106
     19106     19109     19110     19106     19109     19111     19107     19106     19108
     19107     19106     19109     19108     19106     19109     19109     19111     19112
     19109     19111     19116     19110     19109     19111     19111     19112     19113
     19111     19112     19114     19111     19112     19115     19111     19116     19117
     19111     19116     19118     19111     19116     19119     19112     19111     19116
     19113     19112     19114     19113     19112     19115     19114     19112     19115
     19116     19119     19120     19116     19119     19121     19117     19116     19118
     19117     19116     19119     19118     19116     19119     19120     19119     19121
     19122     19124     19125     19122     19124     19126     19122     19124     19127
     19122     19128     19129     19122     19128     19130     19122     19128     19131
     19123     19122     19124     19123     19122     19128     19124     19122     19128
     19125     19124     19126     19125     19124     19127     19126     19124     19127
     19128     19131     19132     19128     19131     19133     19128     19131     19134
     19129     19128     19130     19129     19128     19131     19130     19128     19131
     19131     19134     19135     19131     19134     19136     19131     19134     19137
     19132     19131     19133     19132     19131     19134     19133     19131     19134
     19134     19137     19138     19134     19137     19139     19134     19137     19143
     19135     19134     19136     19135     19134     19137     19136     19134     19137
     19137     19139     19140     19137     19139     19141     19137     19139     19142
     19137     19143     19144     19137     19143     19145     19137     19143     19146
     19138     19137     19139     19138     19137     19143     19139     19137     19143
     19140     19139     19141     19140     19139     19142     19141     19139     19142
     19144     19143     19145     19144     19143     19146     19145     19143     19146
     19147     19149     19150     19147     19151     19152     19147     19151     19153
     19147     19151     19154     19147     19193     19190     19147     19193     19194
     19147     19193     19195     19148     19147     19149     19148     19147     19151
     19148     19147     19193     19149     19147     19151     19149     19147     19193
     19151     19147     19193     19151     19154     19155     19151     19154     19185
     19152     19151     19153     19152     19151     19154     19153     19151     19154
     19154     19155     19156     19154     19155     19157     19154     19185     19183
     19154     19185     19186     19154     19185     19190     19155     19154     19185
     19155     19157     19158     19155     19157     19159     19155     19157     19160
     19156     19155     19157     19157     19160     19161     19157     19160     19162
     19157     19160     19183     19158     19157     19159     19158     19157     19160
     19159     19157     19160     19160     19162     19163     19160     19162     19164
     19160     19162     19172     19160     19183     19180     19160     19183     19184
     19160     19183     19185     19161     19160     19162     19161     19160     19183
     19162     19160     19183     19162     19164     19165     19162     19164     19166
     19162     19164     19167     19162     19172     19170     19162     19172     19173
     19162     19172     19177     19163     19162     19164     19163     19162     19172
     19164     19162     19172     19164     19167     19168     19164     19167     19169
     19164     19167     19170     19165     19164     19166     19165     19164     19167
     19166     19164     19167     19167     19170     19171     19167     19170     19172
     19167     19170     19196     19168     19167     19169     19168     19167     19170
     19169     19167     19170     19170     19172     19173     19170     19172     19177
     19170     19196     19197     19170     19196     19198     19170     19196     19202
     19171     19170     19172     19171     19170     19196     19172     19170     19196
     19172     19173     19174     19172     19173     19175     19172     19173     19176
     19172     19177     19178     19172     19177     19179     19172     19177     19180
     19173     19172     19177     19174     19173     19175     19174     19173     19176
     19175     19173     19176     19177     19180     19181     19177     19180     19182
     19177     19180     19183     19178     19177     19179     19178     19177     19180
     19179     19177     19180     19180     19183     19184     19180     19183     19185
     19181     19180     19182     19181     19180     19183     19182     19180     19183
     19183     19185     19186     19183     19185     19190     19184     19183     19185
     19185     19186     19187     19185     19186     19188     19185     19186     19189
     19185     19190     19191     19185     19190     19192     19185     19190     19193
     19186     19185     19190     19187     19186     19188     19187     19186     19189
     19188     19186     19189     19190     19193     19194     19190     19193     19195
     19191     19190     19192     19191     19190     19193     19192     19190     19193
     19194     19193     19195     19196     19198     19199     19196     19198     19200
     19196     19198     19201     19196     19202     19203     19196     19202     19204
     19196     19202     19205     19197     19196     19198     19197     19196     19202
     19198     19196     19202     19199     19198     19200     19199     19198     19201
     19200     19198     19201     19202     19205     19206     19202     19205     19207
     19202     19205     19208     19203     19202     19204     19203     19202     19205
     19204     19202     19205     19205     19208     19209     19205     19208     19210
     19205     19208     19211     19206     19205     19207     19206     19205     19208
     19207     19205     19208     19208     19211     19212     19208     19211     19213
     19208     19211     19217     19209     19208     19210     19209     19208     19211
     19210     19208     19211     19211     19213     19214     19211     19213     19215
     19211     19213     19216     19211     19217     19218     19211     19217     19219
     19211     19217     19220     19212     19211     19213     19212     19211     19217
     19213     19211     19217     19214     19213     19215     19214     19213     19216
     19215     19213     19216     19218     19217     19219     19218     19217     19220
     19219     19217     19220     19221     19223     19224     19221     19225     19226
     19221     19225     19227     19221     19225     19228     19221     19267     19264
     19221     19267     19268     19221     19267     19269     19222     19221     19223
     19222     19221     19225     19222     19221     19267     19223     19221     19225
     19223     19221     19267     19225     19221     19267     19225     19228     19229
     19225     19228     19259     19226     19225     19227     19226     19225     19228
     19227     19225     19228     19228     19229     19230     19228     19229     19231
     19228     19259     19257     19228     19259     19260     19228     19259     19264
     19229     19228     19259     19229     19231     19232     19229     19231     19233
     19229     19231     19234     19230     19229     19231     19231     19234     19235
     19231     19234     19236     19231     19234     19257     19232     19231     19233
     19232     19231     19234     19233     19231     19234     19234     19236     19237
     19234     19236     19238     19234     19236     19246     19234     19257     19254
     19234     19257     19258     19234     19257     19259     19235     19234     19236
     19235     19234     19257     19236     19234     19257     19236     19238     19239
     19236     19238     19240     19236     19238     19241     19236     19246     19244
     19236     19246     19247     19236     19246     19251     19237     19236     19238
     19237     19236     19246     19238     19236     19246     19238     19241     19242
     19238     19241     19243     19238     19241     19244     19239     19238     19240
     19239     19238     19241     19240     19238     19241     19241     19244     19245
     19241     19244     19246     19241     19244     19270     19242     19241     19243
     19242     19241     19244     19243     19241     19244     19244     19246     19247
     19244     19246     19251     19244     19270     19271     19244     19270     19272
     19244     19270     19276     19245     19244     19246     19245     19244     19270
     19246     19244     19270     19246     19247     19248     19246     19247     19249
     19246     19247     19250     19246     19251     19252     19246     19251     19253
     19246     19251     19254     19247     19246     19251     19248     19247     19249
     19248     19247     19250     19249     19247     19250     19251     19254     19255
     19251     19254     19256     19251     19254     19257     19252     19251     19253
     19252     19251     19254     19253     19251     19254     19254     19257     19258
     19254     19257     19259     19255     19254     19256     19255     19254     19257
     19256     19254     19257     19257     19259     19260     19257     19259     19264
     19258     19257     19259     19259     19260     19261     19259     19260     19262
     19259     19260     19263     19259     19264     19265     19259     19264     19266
     19259     19264     19267     19260     19259     19264     19261     19260     19262
     19261     19260     19263     19262     19260     19263     19264     19267     19268
     19264     19267     19269     19265     19264     19266     19265     19264     19267
     19266     19264     19267     19268     19267     19269     19270     19272     19273
     19270     19272     19274     19270     19272     19275     19270     19276     19277
     19270     19276     19278     19270     19276     19279     19271     19270     19272
     19271     19270     19276     19272     19270     19276     19273     19272     19274
     19273     19272     19275     19274     19272     19275     19276     19279     19280
     19276     19279     19281     19276     19279     19282     19277     19276     19278
     19277     19276     19279     19278     19276     19279     19279     19282     19283
     19279     19282     19284     19279     19282     19285     19280     19279     19281
     19280     19279     19282     19281     19279     19282     19282     19285     19286
     19282     19285     19287     19282     19285     19291     19283     19282     19284
     19283     19282     19285     19284     19282     19285     19285     19287     19288
     19285     19287     19289     19285     19287     19290     19285     19291     19292
     19285     19291     19293     19285     19291     19294     19286     19285     19287
     19286     19285     19291     19287     19285     19291     19288     19287     19289
     19288     19287     19290     19289     19287     19290     19292     19291     19293
     19292     19291     19294     19293     19291     19294     19295     19297     19298
     19295     19299     19300     19295     19299     19301     19295     19299     19302
     19295     19341     19338     19295     19341     19342     19295     19341     19343
     19296     19295     19297     19296     19295     19299     19296     19295     19341
     19297     19295     19299     19297     19295     19341     19299     19295     19341
     19299     19302     19303     19299     19302     19333     19300     19299     19301
     19300     19299     19302     19301     19299     19302     19302     19303     19304
     19302     19303     19305     19302     19333     19331     19302     19333     19334
     19302     19333     19338     19303     19302     19333     19303     19305     19306
     19303     19305     19307     19303     19305     19308     19304     19303     19305
     19305     19308     19309     19305     19308     19310     19305     19308     19331
     19306     19305     19307     19306     19305     19308     19307     19305     19308
     19308     19310     19311     19308     19310     19312     19308     19310     19320
     19308     19331     19328     19308     19331     19332     19308     19331     19333
     19309     19308     19310     19309     19308     19331     19310     19308     19331
     19310     19312     19313     19310     19312     19314     19310     19312     19315
     19310     19320     19318     19310     19320     19321     19310     19320     19325
     19311     19310     19312     19311     19310     19320     19312     19310     19320
     19312     19315     19316     19312     19315     19317     19312     19315     19318
     19313     19312     19314     19313     19312     19315     19314     19312     19315
     19315     19318     19319     19315     19318     19320     19315     19318     19344
     19316     19315     19317     19316     19315     19318     19317     19315     19318
     19318     19320     19321     19318     19320     19325     19318     19344     19345
     19318     19344     19346     19318     19344     19350     19319     19318     19320
     19319     19318     19344     19320     19318     19344     19320     19321     19322
     19320     19321     19323     19320     19321     19324     19320     19325     19326
     19320     19325     19327     19320     19325     19328     19321     19320     19325
     19322     19321     19323     19322     19321     19324     19323     19321     19324
     19325     19328     19329     19325     19328     19330     19325     19328     19331
     19326     19325     19327     19326     19325     19328     19327     19325     19328
     19328     19331     19332     19328     19331     19333     19329     19328     19330
     19329     19328     19331     19330     19328     19331     19331     19333     19334
     19331     19333     19338     19332     19331     19333     19333     19334     19335
     19333     19334     19336     19333     19334     19337     19333     19338     19339
     19333     19338     19340     19333     19338     19341     19334     19333     19338
     19335     19334     19336     19335     19334     19337     19336     19334     19337
     19338     19341     19342     19338     19341     19343     19339     19338     19340
     19339     19338     19341     19340     19338     19341     19342     19341     19343
     19344     19346     19347     19344     19346     19348     19344     19346     19349
     19344     19350     19351     19344     19350     19352     19344     19350     19353
     19345     19344     19346     19345     19344     19350     19346     19344     19350
     19347     19346     19348     19347     19346     19349     19348     19346     19349
     19350     19353     19354     19350     19353     19355     19350     19353     19356
     19351     19350     19352     19351     19350     19353     19352     19350     19353
     19353     19356     19357     19353     19356     19358     19353     19356     19359
     19354     19353     19355     19354     19353     19356     19355     19353     19356
     19356     19359     19360     19356     19359     19361     19356     19359     19365
     19357     19356     19358     19357     19356     19359     19358     19356     19359
     19359     19361     19362     19359     19361     19363     19359     19361     19364
     19359     19365     19366     19359     19365     19367     19359     19365     19368
     19360     19359     19361     19360     19359     19365     19361     19359     19365
     19362     19361     19363     19362     19361     19364     19363     19361     19364
     19366     19365     19367     19366     19365     19368     19367     19365     19368
     19369     19371     19372     19369     19373     19374     19369     19373     19375
     19369     19373     19376     19369     19415     19412     19369     19415     19416
     19369     19415     19417     19370     19369     19371     19370     19369     19373
     19370     19369     19415     19371     19369     19373     19371     19369     19415
     19373     19369     19415     19373     19376     19377     19373     19376     19407
     19374     19373     19375     19374     19373     19376     19375     19373     19376
     19376     19377     19378     19376     19377     19379     19376     19407     19405
     19376     19407     19408     19376     19407     19412     19377     19376     19407
     19377     19379     19380     19377     19379     19381     19377     19379     19382
     19378     19377     19379     19379     19382     19383     19379     19382     19384
     19379     19382     19405     19380     19379     19381     19380     19379     19382
     19381     19379     19382     19382     19384     19385     19382     19384     19386
     19382     19384     19394     19382     19405     19402     19382     19405     19406
     19382     19405     19407     19383     19382     19384     19383     19382     19405
     19384     19382     19405     19384     19386     19387     19384     19386     19388
     19384     19386     19389     19384     19394     19392     19384     19394     19395
     19384     19394     19399     19385     19384     19386     19385     19384     19394
     19386     19384     19394     19386     19389     19390     19386     19389     19391
     19386     19389     19392     19387     19386     19388     19387     19386     19389
     19388     19386     19389     19389     19392     19393     19389     19392     19394
     19389     19392     19418     19390     19389     19391     19390     19389     19392
     19391     19389     19392     19392     19394     19395     19392     19394     19399
     19392     19418     19419     19392     19418     19420     19392     19418     19424
     19393     19392     19394     19393     19392     19418     19394     19392     19418
     19394     19395     19396     19394     19395     19397     19394     19395     19398
     19394     19399     19400     19394     19399     19401     19394     19399     19402
     19395     19394     19399     19396     19395     19397     19396     19395     19398
     19397     19395     19398     19399     19402     19403     19399     19402     19404
     19399     19402     19405     19400     19399     19401     19400     19399     19402
     19401     19399     19402     19402     19405     19406     19402     19405     19407
     19403     19402     19404     19403     19402     19405     19404     19402     19405
     19405     19407     19408     19405     19407     19412     19406     19405     19407
     19407     19408     19409     19407     19408     19410     19407     19408     19411
     19407     19412     19413     19407     19412     19414     19407     19412     19415
     19408     19407     19412     19409     19408     19410     19409     19408     19411
     19410     19408     19411     19412     19415     19416     19412     19415     19417
     19413     19412     19414     19413     19412     19415     19414     19412     19415
     19416     19415     19417     19418     19420     19421     19418     19420     19422
     19418     19420     19423     19418     19424     19425     19418     19424     19426
     19418     19424     19427     19419     19418     19420     19419     19418     19424
     19420     19418     19424     19421     19420     19422     19421     19420     19423
     19422     19420     19423     19424     19427     19428     19424     19427     19429
     19424     19427     19430     19425     19424     19426     19425     19424     19427
     19426     19424     19427     19427     19430     19431     19427     19430     19432
     19427     19430     19433     19428     19427     19429     19428     19427     19430
     19429     19427     19430     19430     19433     19434     19430     19433     19435
     19430     19433     19439     19431     19430     19432     19431     19430     19433
     19432     19430     19433     19433     19435     19436     19433     19435     19437
     19433     19435     19438     19433     19439     19440     19433     19439     19441
     19433     19439     19442     19434     19433     19435     19434     19433     19439
     19435     19433     19439     19436     19435     19437     19436     19435     19438
     19437     19435     19438     19440     19439     19441     19440     19439     19442
     19441     19439     19442     19443     19445     19446     19443     19447     19448
     19443     19447     19449     19443     19447     19450     19443     19489     19486
     19443     19489     19490     19443     19489     19491     19444     19443     19445
     19444     19443     19447     19444     19443     19489     19445     19443     19447
     19445     19443     19489     19447     19443     19489     19447     19450     19451
     19447     19450     19481     19448     19447     19449     19448     19447     19450
     19449     19447     19450     19450     19451     19452     19450     19451     19453
     19450     19481     19479     19450     19481     19482     19450     19481     19486
     19451     19450     19481     19451     19453     19454     19451     19453     19455
     19451     19453     19456     19452     19451     19453     19453     19456     19457
     19453     19456     19458     19453     19456     19479     19454     19453     19455
     19454     19453     19456     19455     19453     19456     19456     19458     19459
     19456     19458     19460     19456     19458     19468     19456     19479     19476
     19456     19479     19480     19456     19479     19481     19457     19456     19458
     19457     19456     19479     19458     19456     19479     19458     19460     19461
     19458     19460     19462     19458     19460     19463     19458     19468     19466
     19458     19468     19469     19458     19468     19473     19459     19458     19460
     19459     19458     19468     19460     19458     19468     19460     19463     19464
     19460     19463     19465     19460     19463     19466     19461     19460     19462
     19461     19460     19463     19462     19460     19463     19463     19466     19467
     19463     19466     19468     19463     19466     19492     19464     19463     19465
     19464     19463     19466     19465     19463     19466     19466     19468     19469
     19466     19468     19473     19466     19492     19493     19466     19492     19494
     19466     19492     19498     19467     19466     19468     19467     19466     19492
     19468     19466     19492     19468     19469     19470     19468     19469     19471
     19468     19469     19472     19468     19473     19474     19468     19473     19475
     19468     19473     19476     19469     19468     19473     19470     19469     19471
     19470     19469     19472     19471     19469     19472     19473     19476     19477
     19473     19476     19478     19473     19476     19479     19474     19473     19475
     19474     19473     19476     19475     19473     19476     19476     19479     19480
     19476     19479     19481     19477     19476     19478     19477     19476     19479
     19478     19476     19479     19479     19481     19482     19479     19481     19486
     19480     19479     19481     19481     19482     19483     19481     19482     19484
     19481     19482     19485     19481     19486     19487     19481     19486     19488
     19481     19486     19489     19482     19481     19486     19483     19482     19484
     19483     19482     19485     19484     19482     19485     19486     19489     19490
     19486     19489     19491     19487     19486     19488     19487     19486     19489
     19488     19486     19489     19490     19489     19491     19492     19494     19495
     19492     19494     19496     19492     19494     19497     19492     19498     19499
     19492     19498     19500     19492     19498     19501     19493     19492     19494
     19493     19492     19498     19494     19492     19498     19495     19494     19496
     19495     19494     19497     19496     19494     19497     19498     19501     19502
     19498     19501     19503     19498     19501     19504     19499     19498     19500
     19499     19498     19501     19500     19498     19501     19501     19504     19505
     19501     19504     19506     19501     19504     19507     19502     19501     19503
     19502     19501     19504     19503     19501     19504     19504     19507     19508
     19504     19507     19509     19504     19507     19513     19505     19504     19506
     19505     19504     19507     19506     19504     19507     19507     19509     19510
     19507     19509     19511     19507     19509     19512     19507     19513     19514
     19507     19513     19515     19507     19513     19516     19508     19507     19509
     19508     19507     19513     19509     19507     19513     19510     19509     19511
     19510     19509     19512     19511     19509     19512     19514     19513     19515
     19514     19513     19516     19515     19513     19516     19517     19519     19520
     19517     19521     19522     19517     19521     19523     19517     19521     19524
     19517     19563     19560     19517     19563     19564     19517     19563     19565
     19518     19517     19519     19518     19517     19521     19518     19517     19563
     19519     19517     19521     19519     19517     19563     19521     19517     19563
     19521     19524     19525     19521     19524     19555     19522     19521     19523
     19522     19521     19524     19523     19521     19524     19524     19525     19526
     19524     19525     19527     19524     19555     19553     19524     19555     19556
     19524     19555     19560     19525     19524     19555     19525     19527     19528
     19525     19527     19529     19525     19527     19530     19526     19525     19527
     19527     19530     19531     19527     19530     19532     19527     19530     19553
     19528     19527     19529     19528     19527     19530     19529     19527     19530
     19530     19532     19533     19530     19532     19534     19530     19532     19542
     19530     19553     19550     19530     19553     19554     19530     19553     19555
     19531     19530     19532     19531     19530     19553     19532     19530     19553
     19532     19534     19535     19532     19534     19536     19532     19534     19537
     19532     19542     19540     19532     19542     19543     19532     19542     19547
     19533     19532     19534     19533     19532     19542     19534     19532     19542
     19534     19537     19538     19534     19537     19539     19534     19537     19540
     19535     19534     19536     19535     19534     19537     19536     19534     19537
     19537     19540     19541     19537     19540     19542     19537     19540     19566
     19538     19537     19539     19538     19537     19540     19539     19537     19540
     19540     19542     19543     19540     19542     19547     19540     19566     19567
     19540     19566     19568     19540     19566     19572     19541     19540     19542
     19541     19540     19566     19542     19540     19566     19542     19543     19544
     19542     19543     19545     19542     19543     19546     19542     19547     19548
     19542     19547     19549     19542     19547     19550     19543     19542     19547
     19544     19543     19545     19544     19543     19546     19545     19543     19546
     19547     19550     19551     19547     19550     19552     19547     19550     19553
     19548     19547     19549     19548     19547     19550     19549     19547     19550
     19550     19553     19554     19550     19553     19555     19551     19550     19552
     19551     19550     19553     19552     19550     19553     19553     19555     19556
     19553     19555     19560     19554     19553     19555     19555     19556     19557
     19555     19556     19558     19555     19556     19559     19555     19560     19561
     19555     19560     19562     19555     19560     19563     19556     19555     19560
     19557     19556     19558     19557     19556     19559     19558     19556     19559
     19560     19563     19564     19560     19563     19565     19561     19560     19562
     19561     19560     19563     19562     19560     19563     19564     19563     19565
     19566     19568     19569     19566     19568     19570     19566     19568     19571
     19566     19572     19573     19566     19572     19574     19566     19572     19575
     19567     19566     19568     19567     19566     19572     19568     19566     19572
     19569     19568     19570     19569     19568     19571     19570     19568     19571
     19572     19575     19576     19572     19575     19577     19572     19575     19578
     19573     19572     19574     19573     19572     19575     19574     19572     19575
     19575     19578     19579     19575     19578     19580     19575     19578     19581
     19576     19575     19577     19576     19575     19578     19577     19575     19578
     19578     19581     19582     19578     19581     19583     19578     19581     19587
     19579     19578     19580     19579     19578     19581     19580     19578     19581
     19581     19583     19584     19581     19583     19585     19581     19583     19586
     19581     19587     19588     19581     19587     19589     19581     19587     19590
     19582     19581     19583     19582     19581     19587     19583     19581     19587
     19584     19583     19585     19584     19583     19586     19585     19583     19586
     19588     19587     19589     19588     19587     19590     19589     19587     19590
     19591     19593     19594     19591     19595     19596     19591     19595     19597
     19591     19595     19598     19591     19637     19634     19591     19637     19638
     19591     19637     19639     19592     19591     19593     19592     19591     19595
     19592     19591     19637     19593     19591     19595     19593     19591     19637
     19595     19591     19637     19595     19598     19599     19595     19598     19629
     19596     19595     19597     19596     19595     19598     19597     19595     19598
     19598     19599     19600     19598     19599     19601     19598     19629     19627
     19598     19629     19630     19598     19629     19634     19599     19598     19629
     19599     19601     19602     19599     19601     19603     19599     19601     19604
     19600     19599     19601     19601     19604     19605     19601     19604     19606
     19601     19604     19627     19602     19601     19603     19602     19601     19604
     19603     19601     19604     19604     19606     19607     19604     19606     19608
     19604     19606     19616     19604     19627     19624     19604     19627     19628
     19604     19627     19629     19605     19604     19606     19605     19604     19627
     19606     19604     19627     19606     19608     19609     19606     19608     19610
     19606     19608     19611     19606     19616     19614     19606     19616     19617
     19606     19616     19621     19607     19606     19608     19607     19606     19616
     19608     19606     19616     19608     19611     19612     19608     19611     19613
     19608     19611     19614     19609     19608     19610     19609     19608     19611
     19610     19608     19611     19611     19614     19615     19611     19614     19616
     19611     19614     19640     19612     19611     19613     19612     19611     19614
     19613     19611     19614     19614     19616     19617     19614     19616     19621
     19614     19640     19641     19614     19640     19642     19614     19640     19646
     19615     19614     19616     19615     19614     19640     19616     19614     19640
     19616     19617     19618     19616     19617     19619     19616     19617     19620
     19616     19621     19622     19616     19621     19623     19616     19621     19624
     19617     19616     19621     19618     19617     19619     19618     19617     19620
     19619     19617     19620     19621     19624     19625     19621     19624     19626
     19621     19624     19627     19622     19621     19623     19622     19621     19624
     19623     19621     19624     19624     19627     19628     19624     19627     19629
     19625     19624     19626     19625     19624     19627     19626     19624     19627
     19627     19629     19630     19627     19629     19634     19628     19627     19629
     19629     19630     19631     19629     19630     19632     19629     19630     19633
     19629     19634     19635     19629     19634     19636     19629     19634     19637
     19630     19629     19634     19631     19630     19632     19631     19630     19633
     19632     19630     19633     19634     19637     19638     19634     19637     19639
     19635     19634     19636     19635     19634     19637     19636     19634     19637
     19638     19637     19639     19640     19642     19643     19640     19642     19644
     19640     19642     19645     19640     19646     19647     19640     19646     19648
     19640     19646     19649     19641     19640     19642     19641     19640     19646
     19642     19640     19646     19643     19642     19644     19643     19642     19645
     19644     19642     19645     19646     19649     19650     19646     19649     19651
     19646     19649     19652     19647     19646     19648     19647     19646     19649
     19648     19646     19649     19649     19652     19653     19649     19652     19654
     19649     19652     19655     19650     19649     19651     19650     19649     19652
     19651     19649     19652     19652     19655     19656     19652     19655     19657
     19652     19655     19661     19653     19652     19654     19653     19652     19655
     19654     19652     19655     19655     19657     19658     19655     19657     19659
     19655     19657     19660     19655     19661     19662     19655     19661     19663
     19655     19661     19664     19656     19655     19657     19656     19655     19661
     19657     19655     19661     19658     19657     19659     19658     19657     19660
     19659     19657     19660     19662     19661     19663     19662     19661     19664
     19663     19661     19664     19665     19667     19668     19665     19669     19670
     19665     19669     19671     19665     19669     19672     19665     19711     19708
     19665     19711     19712     19665     19711     19713     19666     19665     19667
     19666     19665     19669     19666     19665     19711     19667     19665     19669
     19667     19665     19711     19669     19665     19711     19669     19672     19673
     19669     19672     19703     19670     19669     19671     19670     19669     19672
     19671     19669     19672     19672     19673     19674     19672     19673     19675
     19672     19703     19701     19672     19703     19704     19672     19703     19708
     19673     19672     19703     19673     19675     19676     19673     19675     19677
     19673     19675     19678     19674     19673     19675     19675     19678     19679
     19675     19678     19680     19675     19678     19701     19676     19675     19677
     19676     19675     19678     19677     19675     19678     19678     19680     19681
     19678     19680     19682     19678     19680     19690     19678     19701     19698
     19678     19701     19702     19678     19701     19703     19679     19678     19680
     19679     19678     19701     19680     19678     19701     19680     19682     19683
     19680     19682     19684     19680     19682     19685     19680     19690     19688
     19680     19690     19691     19680     19690     19695     19681     19680     19682
     19681     19680     19690     19682     19680     19690     19682     19685     19686
     19682     19685     19687     19682     19685     19688     19683     19682     19684
     19683     19682     19685     19684     19682     19685     19685     19688     19689
     19685     19688     19690     19685     19688     19714     19686     19685     19687
     19686     19685     19688     19687     19685     19688     19688     19690     19691
     19688     19690     19695     19688     19714     19715     19688     19714     19716
     19688     19714     19720     19689     19688     19690     19689     19688     19714
     19690     19688     19714     19690     19691     19692     19690     19691     19693
     19690     19691     19694     19690     19695     19696     19690     19695     19697
     19690     19695     19698     19691     19690     19695     19692     19691     19693
     19692     19691     19694     19693     19691     19694     19695     19698     19699
     19695     19698     19700     19695     19698     19701     19696     19695     19697
     19696     19695     19698     19697     19695     19698     19698     19701     19702
     19698     19701     19703     19699     19698     19700     19699     19698     19701
     19700     19698     19701     19701     19703     19704     19701     19703     19708
     19702     19701     19703     19703     19704     19705     19703     19704     19706
     19703     19704     19707     19703     19708     19709     19703     19708     19710
     19703     19708     19711     19704     19703     19708     19705     19704     19706
     19705     19704     19707     19706     19704     19707     19708     19711     19712
     19708     19711     19713     19709     19708     19710     19709     19708     19711
     19710     19708     19711     19712     19711     19713     19714     19716     19717
     19714     19716     19718     19714     19716     19719     19714     19720     19721
     19714     19720     19722     19714     19720     19723     19715     19714     19716
     19715     19714     19720     19716     19714     19720     19717     19716     19718
     19717     19716     19719     19718     19716     19719     19720     19723     19724
     19720     19723     19725     19720     19723     19726     19721     19720     19722
     19721     19720     19723     19722     19720     19723     19723     19726     19727
     19723     19726     19728     19723     19726     19729     19724     19723     19725
     19724     19723     19726     19725     19723     19726     19726     19729     19730
     19726     19729     19731     19726     19729     19735     19727     19726     19728
     19727     19726     19729     19728     19726     19729     19729     19731     19732
     19729     19731     19733     19729     19731     19734     19729     19735     19736
     19729     19735     19737     19729     19735     19738     19730     19729     19731
     19730     19729     19735     19731     19729     19735     19732     19731     19733
     19732     19731     19734     19733     19731     19734     19736     19735     19737
     19736     19735     19738     19737     19735     19738     19739     19741     19742
     19739     19743     19744     19739     19743     19745     19739     19743     19746
     19739     19785     19782     19739     19785     19786     19739     19785     19787
     19740     19739     19741     19740     19739     19743     19740     19739     19785
     19741     19739     19743     19741     19739     19785     19743     19739     19785
     19743     19746     19747     19743     19746     19777     19744     19743     19745
     19744     19743     19746     19745     19743     19746     19746     19747     19748
     19746     19747     19749     19746     19777     19775     19746     19777     19778
     19746     19777     19782     19747     19746     19777     19747     19749     19750
     19747     19749     19751     19747     19749     19752     19748     19747     19749
     19749     19752     19753     19749     19752     19754     19749     19752     19775
     19750     19749     19751     19750     19749     19752     19751     19749     19752
     19752     19754     19755     19752     19754     19756     19752     19754     19764
     19752     19775     19772     19752     19775     19776     19752     19775     19777
     19753     19752     19754     19753     19752     19775     19754     19752     19775
     19754     19756     19757     19754     19756     19758     19754     19756     19759
     19754     19764     19762     19754     19764     19765     19754     19764     19769
     19755     19754     19756     19755     19754     19764     19756     19754     19764
     19756     19759     19760     19756     19759     19761     19756     19759     19762
     19757     19756     19758     19757     19756     19759     19758     19756     19759
     19759     19762     19763     19759     19762     19764     19759     19762     19788
     19760     19759     19761     19760     19759     19762     19761     19759     19762
     19762     19764     19765     19762     19764     19769     19762     19788     19789
     19762     19788     19790     19762     19788     19794     19763     19762     19764
     19763     19762     19788     19764     19762     19788     19764     19765     19766
     19764     19765     19767     19764     19765     19768     19764     19769     19770
     19764     19769     19771     19764     19769     19772     19765     19764     19769
     19766     19765     19767     19766     19765     19768     19767     19765     19768
     19769     19772     19773     19769     19772     19774     19769     19772     19775
     19770     19769     19771     19770     19769     19772     19771     19769     19772
     19772     19775     19776     19772     19775     19777     19773     19772     19774
     19773     19772     19775     19774     19772     19775     19775     19777     19778
     19775     19777     19782     19776     19775     19777     19777     19778     19779
     19777     19778     19780     19777     19778     19781     19777     19782     19783
     19777     19782     19784     19777     19782     19785     19778     19777     19782
     19779     19778     19780     19779     19778     19781     19780     19778     19781
     19782     19785     19786     19782     19785     19787     19783     19782     19784
     19783     19782     19785     19784     19782     19785     19786     19785     19787
     19788     19790     19791     19788     19790     19792     19788     19790     19793
     19788     19794     19795     19788     19794     19796     19788     19794     19797
     19789     19788     19790     19789     19788     19794     19790     19788     19794
     19791     19790     19792     19791     19790     19793     19792     19790     19793
     19794     19797     19798     19794     19797     19799     19794     19797     19800
     19795     19794     19796     19795     19794     19797     19796     19794     19797
     19797     19800     19801     19797     19800     19802     19797     19800     19803
     19798     19797     19799     19798     19797     19800     19799     19797     19800
     19800     19803     19804     19800     19803     19805     19800     19803     19809
     19801     19800     19802     19801     19800     19803     19802     19800     19803
     19803     19805     19806     19803     19805     19807     19803     19805     19808
     19803     19809     19810     19803     19809     19811     19803     19809     19812
     19804     19803     19805     19804     19803     19809     19805     19803     19809
     19806     19805     19807     19806     19805     19808     19807     19805     19808
     19810     19809     19811     19810     19809     19812     19811     19809     19812
     19813     19815     19816     19813     19817     19818     19813     19817     19819
     19813     19817     19820     19813     19859     19856     19813     19859     19860
     19813     19859     19861     19814     19813     19815     19814     19813     19817
     19814     19813     19859     19815     19813     19817     19815     19813     19859
     19817     19813     19859     19817     19820     19821     19817     19820     19851
     19818     19817     19819     19818     19817     19820     19819     19817     19820
     19820     19821     19822     19820     19821     19823     19820     19851     19849
     19820     19851     19852     19820     19851     19856     19821     19820     19851
     19821     19823     19824     19821     19823     19825     19821     19823     19826
     19822     19821     19823     19823     19826     19827     19823     19826     19828
     19823     19826     19849     19824     19823     19825     19824     19823     19826
     19825     19823     19826     19826     19828     19829     19826     19828     19830
     19826     19828     19838     19826     19849     19846     19826     19849     19850
     19826     19849     19851     19827     19826     19828     19827     19826     19849
     19828     19826     19849     19828     19830     19831     19828     19830     19832
     19828     19830     19833     19828     19838     19836     19828     19838     19839
     19828     19838     19843     19829     19828     19830     19829     19828     19838
     19830     19828     19838     19830     19833     19834     19830     19833     19835
     19830     19833     19836     19831     19830     19832     19831     19830     19833
     19832     19830     19833     19833     19836     19837     19833     19836     19838
     19833     19836     19862     19834     19833     19835     19834     19833     19836
     19835     19833     19836     19836     19838     19839     19836     19838     19843
     19836     19862     19863     19836     19862     19864     19836     19862     19868
     19837     19836     19838     19837     19836     19862     19838     19836     19862
     19838     19839     19840     19838     19839     19841     19838     19839     19842
     19838     19843     19844     19838     19843     19845     19838     19843     19846
     19839     19838     19843     19840     19839     19841     19840     19839     19842
     19841     19839     19842     19843     19846     19847     19843     19846     19848
     19843     19846     19849     19844     19843     19845     19844     19843     19846
     19845     19843     19846     19846     19849     19850     19846     19849     19851
     19847     19846     19848     19847     19846     19849     19848     19846     19849
     19849     19851     19852     19849     19851     19856     19850     19849     19851
     19851     19852     19853     19851     19852     19854     19851     19852     19855
     19851     19856     19857     19851     19856     19858     19851     19856     19859
     19852     19851     19856     19853     19852     19854     19853     19852     19855
     19854     19852     19855     19856     19859     19860     19856     19859     19861
     19857     19856     19858     19857     19856     19859     19858     19856     19859
     19860     19859     19861     19862     19864     19865     19862     19864     19866
     19862     19864     19867     19862     19868     19869     19862     19868     19870
     19862     19868     19871     19863     19862     19864     19863     19862     19868
     19864     19862     19868     19865     19864     19866     19865     19864     19867
     19866     19864     19867     19868     19871     19872     19868     19871     19873
     19868     19871     19874     19869     19868     19870     19869     19868     19871
     19870     19868     19871     19871     19874     19875     19871     19874     19876
     19871     19874     19877     19872     19871     19873     19872     19871     19874
     19873     19871     19874     19874     19877     19878     19874     19877     19879
     19874     19877     19883     19875     19874     19876     19875     19874     19877
     19876     19874     19877     19877     19879     19880     19877     19879     19881
     19877     19879     19882     19877     19883     19884     19877     19883     19885
     19877     19883     19886     19878     19877     19879     19878     19877     19883
     19879     19877     19883     19880     19879     19881     19880     19879     19882
     19881     19879     19882     19884     19883     19885     19884     19883     19886
     19885     19883     19886     19887     19889     19890     19887     19891     19892
     19887     19891     19893     19887     19891     19894     19887     19933     19930
     19887     19933     19934     19887     19933     19935     19888     19887     19889
     19888     19887     19891     19888     19887     19933     19889     19887     19891
     19889     19887     19933     19891     19887     19933     19891     19894     19895
     19891     19894     19925     19892     19891     19893     19892     19891     19894
     19893     19891     19894     19894     19895     19896     19894     19895     19897
     19894     19925     19923     19894     19925     19926     19894     19925     19930
     19895     19894     19925     19895     19897     19898     19895     19897     19899
     19895     19897     19900     19896     19895     19897     19897     19900     19901
     19897     19900     19902     19897     19900     19923     19898     19897     19899
     19898     19897     19900     19899     19897     19900     19900     19902     19903
     19900     19902     19904     19900     19902     19912     19900     19923     19920
     19900     19923     19924     19900     19923     19925     19901     19900     19902
     19901     19900     19923     19902     19900     19923     19902     19904     19905
     19902     19904     19906     19902     19904     19907     19902     19912     19910
     19902     19912     19913     19902     19912     19917     19903     19902     19904
     19903     19902     19912     19904     19902     19912     19904     19907     19908
     19904     19907     19909     19904     19907     19910     19905     19904     19906
     19905     19904     19907     19906     19904     19907     19907     19910     19911
     19907     19910     19912     19907     19910     19936     19908     19907     19909
     19908     19907     19910     19909     19907     19910     19910     19912     19913
     19910     19912     19917     19910     19936     19937     19910     19936     19938
     19910     19936     19942     19911     19910     19912     19911     19910     19936
     19912     19910     19936     19912     19913     19914     19912     19913     19915
     19912     19913     19916     19912     19917     19918     19912     19917     19919
     19912     19917     19920     19913     19912     19917     19914     19913     19915
     19914     19913     19916     19915     19913     19916     19917     19920     19921
     19917     19920     19922     19917     19920     19923     19918     19917     19919
     19918     19917     19920     19919     19917     19920     19920     19923     19924
     19920     19923     19925     19921     19920     19922     19921     19920     19923
     19922     19920     19923     19923     19925     19926     19923     19925     19930
     19924     19923     19925     19925     19926     19927     19925     19926     19928
     19925     19926     19929     19925     19930     19931     19925     19930     19932
     19925     19930     19933     19926     19925     19930     19927     19926     19928
     19927     19926     19929     19928     19926     19929     19930     19933     19934
     19930     19933     19935     19931     19930     19932     19931     19930     19933
     19932     19930     19933     19934     19933     19935     19936     19938     19939
     19936     19938     19940     19936     19938     19941     19936     19942     19943
     19936     19942     19944     19936     19942     19945     19937     19936     19938
     19937     19936     19942     19938     19936     19942     19939     19938     19940
     19939     19938     19941     19940     19938     19941     19942     19945     19946
     19942     19945     19947     19942     19945     19948     19943     19942     19944
     19943     19942     19945     19944     19942     19945     19945     19948     19949
     19945     19948     19950     19945     19948     19951     19946     19945     19947
     19946     19945     19948     19947     19945     19948     19948     19951     19952
     19948     19951     19953     19948     19951     19957     19949     19948     19950
     19949     19948     19951     19950     19948     19951     19951     19953     19954
     19951     19953     19955     19951     19953     19956     19951     19957     19958
     19951     19957     19959     19951     19957     19960     19952     19951     19953
     19952     19951     19957     19953     19951     19957     19954     19953     19955
     19954     19953     19956     19955     19953     19956     19958     19957     19959
     19958     19957     19960     19959     19957     19960     19961     19963     19964
     19961     19965     19966     19961     19965     19967     19961     19965     19968
     19961     20007     20004     19961     20007     20008     19961     20007     20009
     19962     19961     19963     19962     19961     19965     19962     19961     20007
     19963     19961     19965     19963     19961     20007     19965     19961     20007
     19965     19968     19969     19965     19968     19999     19966     19965     19967
     19966     19965     19968     19967     19965     19968     19968     19969     19970
     19968     19969     19971     19968     19999     19997     19968     19999     20000
     19968     19999     20004     19969     19968     19999     19969     19971     19972
     19969     19971     19973     19969     19971     19974     19970     19969     19971
     19971     19974     19975     19971     19974     19976     19971     19974     19997
     19972     19971     19973     19972     19971     19974     19973     19971     19974
     19974     19976     19977     19974     19976     19978     19974     19976     19986
     19974     19997     19994     19974     19997     19998     19974     19997     19999
     19975     19974     19976     19975     19974     19997     19976     19974     19997
     19976     19978     19979     19976     19978     19980     19976     19978     19981
     19976     19986     19984     19976     19986     19987     19976     19986     19991
     19977     19976     19978     19977     19976     19986     19978     19976     19986
     19978     19981     19982     19978     19981     19983     19978     19981     19984
     19979     19978     19980     19979     19978     19981     19980     19978     19981
     19981     19984     19985     19981     19984     19986     19981     19984     20010
     19982     19981     19983     19982     19981     19984     19983     19981     19984
     19984     19986     19987     19984     19986     19991     19984     20010     20011
     19984     20010     20012     19984     20010     20016     19985     19984     19986
     19985     19984     20010     19986     19984     20010     19986     19987     19988
     19986     19987     19989     19986     19987     19990     19986     19991     19992
     19986     19991     19993     19986     19991     19994     19987     19986     19991
     19988     19987     19989     19988     19987     19990     19989     19987     19990
     19991     19994     19995     19991     19994     19996     19991     19994     19997
     19992     19991     19993     19992     19991     19994     19993     19991     19994
     19994     19997     19998     19994     19997     19999     19995     19994     19996
     19995     19994     19997     19996     19994     19997     19997     19999     20000
     19997     19999     20004     19998     19997     19999     19999     20000     20001
     19999     20000     20002     19999     20000     20003     19999     20004     20005
     19999     20004     20006     19999     20004     20007     20000     19999     20004
     20001     20000     20002     20001     20000     20003     20002     20000     20003
     20004     20007     20008     20004     20007     20009     20005     20004     20006
     20005     20004     20007     20006     20004     20007     20008     20007     20009
     20010     20012     20013     20010     20012     20014     20010     20012     20015
     20010     20016     20017     20010     20016     20018     20010     20016     20019
     20011     20010     20012     20011     20010     20016     20012     20010     20016
     20013     20012     20014     20013     20012     20015     20014     20012     20015
     20016     20019     20020     20016     20019     20021     20016     20019     20022
     20017     20016     20018     20017     20016     20019     20018     20016     20019
     20019     20022     20023     20019     20022     20024     20019     20022     20025
     20020     20019     20021     20020     20019     20022     20021     20019     20022
     20022     20025     20026     20022     20025     20027     20022     20025     20031
     20023     20022     20024     20023     20022     20025     20024     20022     20025
     20025     20027     20028     20025     20027     20029     20025     20027     20030
     20025     20031     20032     20025     20031     20033     20025     20031     20034
     20026     20025     20027     20026     20025     20031     20027     20025     20031
     20028     20027     20029     20028     20027     20030     20029     20027     20030
     20032     20031     20033     20032     20031     20034     20033     20031     20034
     20035     20037     20038     20035     20039     20040     20035     20039     20041
     20035     20039     20042     20035     20081     20078     20035     20081     20082
     20035     20081     20083     20036     20035     20037     20036     20035     20039
     20036     20035     20081     20037     20035     20039     20037     20035     20081
     20039     20035     20081     20039     20042     20043     20039     20042     20073
     20040     20039     20041     20040     20039     20042     20041     20039     20042
     20042     20043     20044     20042     20043     20045     20042     20073     20071
     20042     20073     20074     20042     20073     20078     20043     20042     20073
     20043     20045     20046     20043     20045     20047     20043     20045     20048
     20044     20043     20045     20045     20048     20049     20045     20048     20050
     20045     20048     20071     20046     20045     20047     20046     20045     20048
     20047     20045     20048     20048     20050     20051     20048     20050     20052
     20048     20050     20060     20048     20071     20068     20048     20071     20072
     20048     20071     20073     20049     20048     20050     20049     20048     20071
     20050     20048     20071     20050     20052     20053     20050     20052     20054
     20050     20052     20055     20050     20060     20058     20050     20060     20061
     20050     20060     20065     20051     20050     20052     20051     20050     20060
     20052     20050     20060     20052     20055     20056     20052     20055     20057
     20052     20055     20058     20053     20052     20054     20053     20052     20055
     20054     20052     20055     20055     20058     20059     20055     20058     20060
     20055     20058     20084     20056     20055     20057     20056     20055     20058
     20057     20055     20058     20058     20060     20061     20058     20060     20065
     20058     20084     20085     20058     20084     20086     20058     20084     20090
     20059     20058     20060     20059     20058     20084     20060     20058     20084
     20060     20061     20062     20060     20061     20063     20060     20061     20064
     20060     20065     20066     20060     20065     20067     20060     20065     20068
     20061     20060     20065     20062     20061     20063     20062     20061     20064
     20063     20061     20064     20065     20068     20069     20065     20068     20070
     20065     20068     20071     20066     20065     20067     20066     20065     20068
     20067     20065     20068     20068     20071     20072     20068     20071     20073
     20069     20068     20070     20069     20068     20071     20070     20068     20071
     20071     20073     20074     20071     20073     20078     20072     20071     20073
     20073     20074     20075     20073     20074     20076     20073     20074     20077
     20073     20078     20079     20073     20078     20080     20073     20078     20081
     20074     20073     20078     20075     20074     20076     20075     20074     20077
     20076     20074     20077     20078     20081     20082     20078     20081     20083
     20079     20078     20080     20079     20078     20081     20080     20078     20081
     20082     20081     20083     20084     20086     20087     20084     20086     20088
     20084     20086     20089     20084     20090     20091     20084     20090     20092
     20084     20090     20093     20085     20084     20086     20085     20084     20090
     20086     20084     20090     20087     20086     20088     20087     20086     20089
     20088     20086     20089     20090     20093     20094     20090     20093     20095
     20090     20093     20096     20091     20090     20092     20091     20090     20093
     20092     20090     20093     20093     20096     20097     20093     20096     20098
     20093     20096     20099     20094     20093     20095     20094     20093     20096
     20095     20093     20096     20096     20099     20100     20096     20099     20101
     20096     20099     20105     20097     20096     20098     20097     20096     20099
     20098     20096     20099     20099     20101     20102     20099     20101     20103
     20099     20101     20104     20099     20105     20106     20099     20105     20107
     20099     20105     20108     20100     20099     20101     20100     20099     20105
     20101     20099     20105     20102     20101     20103     20102     20101     20104
     20103     20101     20104     20106     20105     20107     20106     20105     20108
     20107     20105     20108     20109     20111     20112     20109     20113     20114
     20109     20113     20115     20109     20113     20116     20109     20155     20152
     20109     20155     20156     20109     20155     20157     20110     20109     20111
     20110     20109     20113     20110     20109     20155     20111     20109     20113
     20111     20109     20155     20113     20109     20155     20113     20116     20117
     20113     20116     20147     20114     20113     20115     20114     20113     20116
     20115     20113     20116     20116     20117     20118     20116     20117     20119
     20116     20147     20145     20116     20147     20148     20116     20147     20152
     20117     20116     20147     20117     20119     20120     20117     20119     20121
     20117     20119     20122     20118     20117     20119     20119     20122     20123
     20119     20122     20124     20119     20122     20145     20120     20119     20121
     20120     20119     20122     20121     20119     20122     20122     20124     20125
     20122     20124     20126     20122     20124     20134     20122     20145     20142
     20122     20145     20146     20122     20145     20147     20123     20122     20124
     20123     20122     20145     20124     20122     20145     20124     20126     20127
     20124     20126     20128     20124     20126     20129     20124     20134     20132
     20124     20134     20135     20124     20134     20139     20125     20124     20126
     20125     20124     20134     20126     20124     20134     20126     20129     20130
     20126     20129     20131     20126     20129     20132     20127     20126     20128
     20127     20126     20129     20128     20126     20129     20129     20132     20133
     20129     20132     20134     20129     20132     20158     20130     20129     20131
     20130     20129     20132     20131     20129     20132     20132     20134     20135
     20132     20134     20139     20132     20158     20159     20132     20158     20160
     20132     20158     20164     20133     20132     20134     20133     20132     20158
     20134     20132     20158     20134     20135     20136     20134     20135     20137
     20134     20135     20138     20134     20139     20140     20134     20139     20141
     20134     20139     20142     20135     20134     20139     20136     20135     20137
     20136     20135     20138     20137     20135     20138     20139     20142     20143
     20139     20142     20144     20139     20142     20145     20140     20139     20141
     20140     20139     20142     20141     20139     20142     20142     20145     20146
     20142     20145     20147     20143     20142     20144     20143     20142     20145
     20144     20142     20145     20145     20147     20148     20145     20147     20152
     20146     20145     20147     20147     20148     20149     20147     20148     20150
     20147     20148     20151     20147     20152     20153     20147     20152     20154
     20147     20152     20155     20148     20147     20152     20149     20148     20150
     20149     20148     20151     20150     20148     20151     20152     20155     20156
     20152     20155     20157     20153     20152     20154     20153     20152     20155
     20154     20152     20155     20156     20155     20157     20158     20160     20161
     20158     20160     20162     20158     20160     20163     20158     20164     20165
     20158     20164     20166     20158     20164     20167     20159     20158     20160
     20159     20158     20164     20160     20158     20164     20161     20160     20162
     20161     20160     20163     20162     20160     20163     20164     20167     20168
     20164     20167     20169     20164     20167     20170     20165     20164     20166
     20165     20164     20167     20166     20164     20167     20167     20170     20171
     20167     20170     20172     20167     20170     20173     20168     20167     20169
     20168     20167     20170     20169     20167     20170     20170     20173     20174
     20170     20173     20175     20170     20173     20179     20171     20170     20172
     20171     20170     20173     20172     20170     20173     20173     20175     20176
     20173     20175     20177     20173     20175     20178     20173     20179     20180
     20173     20179     20181     20173     20179     20182     20174     20173     20175
     20174     20173     20179     20175     20173     20179     20176     20175     20177
     20176     20175     20178     20177     20175     20178     20180     20179     20181
     20180     20179     20182     20181     20179     20182     20183     20185     20186
     20183     20187     20188     20183     20187     20189     20183     20187     20190
     20183     20229     20226     20183     20229     20230     20183     20229     20231
     20184     20183     20185     20184     20183     20187     20184     20183     20229
     20185     20183     20187     20185     20183     20229     20187     20183     20229
     20187     20190     20191     20187     20190     20221     20188     20187     20189
     20188     20187     20190     20189     20187     20190     20190     20191     20192
     20190     20191     20193     20190     20221     20219     20190     20221     20222
     20190     20221     20226     20191     20190     20221     20191     20193     20194
     20191     20193     20195     20191     20193     20196     20192     20191     20193
     20193     20196     20197     20193     20196     20198     20193     20196     20219
     20194     20193     20195     20194     20193     20196     20195     20193     20196
     20196     20198     20199     20196     20198     20200     20196     20198     20208
     20196     20219     20216     20196     20219     20220     20196     20219     20221
     20197     20196     20198     20197     20196     20219     20198     20196     20219
     20198     20200     20201     20198     20200     20202     20198     20200     20203
     20198     20208     20206     20198     20208     20209     20198     20208     20213
     20199     20198     20200     20199     20198     20208     20200     20198     20208
     20200     20203     20204     20200     20203     20205     20200     20203     20206
     20201     20200     20202     20201     20200     20203     20202     20200     20203
     20203     20206     20207     20203     20206     20208     20203     20206     20232
     20204     20203     20205     20204     20203     20206     20205     20203     20206
     20206     20208     20209     20206     20208     20213     20206     20232     20233
     20206     20232     20234     20206     20232     20238     20207     20206     20208
     20207     20206     20232     20208     20206     20232     20208     20209     20210
     20208     20209     20211     20208     20209     20212     20208     20213     20214
     20208     20213     20215     20208     20213     20216     20209     20208     20213
     20210     20209     20211     20210     20209     20212     20211     20209     20212
     20213     20216     20217     20213     20216     20218     20213     20216     20219
     20214     20213     20215     20214     20213     20216     20215     20213     20216
     20216     20219     20220     20216     20219     20221     20217     20216     20218
     20217     20216     20219     20218     20216     20219     20219     20221     20222
     20219     20221     20226     20220     20219     20221     20221     20222     20223
     20221     20222     20224     20221     20222     20225     20221     20226     20227
     20221     20226     20228     20221     20226     20229     20222     20221     20226
     20223     20222     20224     20223     20222     20225     20224     20222     20225
     20226     20229     20230     20226     20229     20231     20227     20226     20228
     20227     20226     20229     20228     20226     20229     20230     20229     20231
     20232     20234     20235     20232     20234     20236     20232     20234     20237
     20232     20238     20239     20232     20238     20240     20232     20238     20241
     20233     20232     20234     20233     20232     20238     20234     20232     20238
     20235     20234     20236     20235     20234     20237     20236     20234     20237
     20238     20241     20242     20238     20241     20243     20238     20241     20244
     20239     20238     20240     20239     20238     20241     20240     20238     20241
     20241     20244     20245     20241     20244     20246     20241     20244     20247
     20242     20241     20243     20242     20241     20244     20243     20241     20244
     20244     20247     20248     20244     20247     20249     20244     20247     20253
     20245     20244     20246     20245     20244     20247     20246     20244     20247
     20247     20249     20250     20247     20249     20251     20247     20249     20252
     20247     20253     20254     20247     20253     20255     20247     20253     20256
     20248     20247     20249     20248     20247     20253     20249     20247     20253
     20250     20249     20251     20250     20249     20252     20251     20249     20252
     20254     20253     20255     20254     20253     20256     20255     20253     20256
     20257     20259     20260     20257     20261     20262     20257     20261     20263
     20257     20261     20264     20257     20303     20300     20257     20303     20304
     20257     20303     20305     20258     20257     20259     20258     20257     20261
     20258     20257     20303     20259     20257     20261     20259     20257     20303
     20261     20257     20303     20261     20264     20265     20261     20264     20295
     20262     20261     20263     20262     20261     20264     20263     20261     20264
     20264     20265     20266     20264     20265     20267     20264     20295     20293
     20264     20295     20296     20264     20295     20300     20265     20264     20295
     20265     20267     20268     20265     20267     20269     20265     20267     20270
     20266     20265     20267     20267     20270     20271     20267     20270     20272
     20267     20270     20293     20268     20267     20269     20268     20267     20270
     20269     20267     20270     20270     20272     20273     20270     20272     20274
     20270     20272     20282     20270     20293     20290     20270     20293     20294
     20270     20293     20295     20271     20270     20272     20271     20270     20293
     20272     20270     20293     20272     20274     20275     20272     20274     20276
     20272     20274     20277     20272     20282     20280     20272     20282     20283
     20272     20282     20287     20273     20272     20274     20273     20272     20282
     20274     20272     20282     20274     20277     20278     20274     20277     20279
     20274     20277     20280     20275     20274     20276     20275     20274     20277
     20276     20274     20277     20277     20280     20281     20277     20280     20282
     20277     20280     20306     20278     20277     20279     20278     20277     20280
     20279     20277     20280     20280     20282     20283     20280     20282     20287
     20280     20306     20307     20280     20306     20308     20280     20306     20312
     20281     20280     20282     20281     20280     20306     20282     20280     20306
     20282     20283     20284     20282     20283     20285     20282     20283     20286
     20282     20287     20288     20282     20287     20289     20282     20287     20290
     20283     20282     20287     20284     20283     20285     20284     20283     20286
     20285     20283     20286     20287     20290     20291     20287     20290     20292
     20287     20290     20293     20288     20287     20289     20288     20287     20290
     20289     20287     20290     20290     20293     20294     20290     20293     20295
     20291     20290     20292     20291     20290     20293     20292     20290     20293
     20293     20295     20296     20293     20295     20300     20294     20293     20295
     20295     20296     20297     20295     20296     20298     20295     20296     20299
     20295     20300     20301     20295     20300     20302     20295     20300     20303
     20296     20295     20300     20297     20296     20298     20297     20296     20299
     20298     20296     20299     20300     20303     20304     20300     20303     20305
     20301     20300     20302     20301     20300     20303     20302     20300     20303
     20304     20303     20305     20306     20308     20309     20306     20308     20310
     20306     20308     20311     20306     20312     20313     20306     20312     20314
     20306     20312     20315     20307     20306     20308     20307     20306     20312
     20308     20306     20312     20309     20308     20310     20309     20308     20311
     20310     20308     20311     20312     20315     20316     20312     20315     20317
     20312     20315     20318     20313     20312     20314     20313     20312     20315
     20314     20312     20315     20315     20318     20319     20315     20318     20320
     20315     20318     20321     20316     20315     20317     20316     20315     20318
     20317     20315     20318     20318     20321     20322     20318     20321     20323
     20318     20321     20327     20319     20318     20320     20319     20318     20321
     20320     20318     20321     20321     20323     20324     20321     20323     20325
     20321     20323     20326     20321     20327     20328     20321     20327     20329
     20321     20327     20330     20322     20321     20323     20322     20321     20327
     20323     20321     20327     20324     20323     20325     20324     20323     20326
     20325     20323     20326     20328     20327     20329     20328     20327     20330
     20329     20327     20330     20331     20333     20334     20331     20335     20336
     20331     20335     20337     20331     20335     20338     20331     20377     20374
     20331     20377     20378     20331     20377     20379     20332     20331     20333
     20332     20331     20335     20332     20331     20377     20333     20331     20335
     20333     20331     20377     20335     20331     20377     20335     20338     20339
     20335     20338     20369     20336     20335     20337     20336     20335     20338
     20337     20335     20338     20338     20339     20340     20338     20339     20341
     20338     20369     20367     20338     20369     20370     20338     20369     20374
     20339     20338     20369     20339     20341     20342     20339     20341     20343
     20339     20341     20344     20340     20339     20341     20341     20344     20345
     20341     20344     20346     20341     20344     20367     20342     20341     20343
     20342     20341     20344     20343     20341     20344     20344     20346     20347
     20344     20346     20348     20344     20346     20356     20344     20367     20364
     20344     20367     20368     20344     20367     20369     20345     20344     20346
     20345     20344     20367     20346     20344     20367     20346     20348     20349
     20346     20348     20350     20346     20348     20351     20346     20356     20354
     20346     20356     20357     20346     20356     20361     20347     20346     20348
     20347     20346     20356     20348     20346     20356     20348     20351     20352
     20348     20351     20353     20348     20351     20354     20349     20348     20350
     20349     20348     20351     20350     20348     20351     20351     20354     20355
     20351     20354     20356     20351     20354     20380     20352     20351     20353
     20352     20351     20354     20353     20351     20354     20354     20356     20357
     20354     20356     20361     20354     20380     20381     20354     20380     20382
     20354     20380     20386     20355     20354     20356     20355     20354     20380
     20356     20354     20380     20356     20357     20358     20356     20357     20359
     20356     20357     20360     20356     20361     20362     20356     20361     20363
     20356     20361     20364     20357     20356     20361     20358     20357     20359
     20358     20357     20360     20359     20357     20360     20361     20364     20365
     20361     20364     20366     20361     20364     20367     20362     20361     20363
     20362     20361     20364     20363     20361     20364     20364     20367     20368
     20364     20367     20369     20365     20364     20366     20365     20364     20367
     20366     20364     20367     20367     20369     20370     20367     20369     20374
     20368     20367     20369     20369     20370     20371     20369     20370     20372
     20369     20370     20373     20369     20374     20375     20369     20374     20376
     20369     20374     20377     20370     20369     20374     20371     20370     20372
     20371     20370     20373     20372     20370     20373     20374     20377     20378
     20374     20377     20379     20375     20374     20376     20375     20374     20377
     20376     20374     20377     20378     20377     20379     20380     20382     20383
     20380     20382     20384     20380     20382     20385     20380     20386     20387
     20380     20386     20388     20380     20386     20389     20381     20380     20382
     20381     20380     20386     20382     20380     20386     20383     20382     20384
     20383     20382     20385     20384     20382     20385     20386     20389     20390
     20386     20389     20391     20386     20389     20392     20387     20386     20388
     20387     20386     20389     20388     20386     20389     20389     20392     20393
     20389     20392     20394     20389     20392     20395     20390     20389     20391
     20390     20389     20392     20391     20389     20392     20392     20395     20396
     20392     20395     20397     20392     20395     20401     20393     20392     20394
     20393     20392     20395     20394     20392     20395     20395     20397     20398
     20395     20397     20399     20395     20397     20400     20395     20401     20402
     20395     20401     20403     20395     20401     20404     20396     20395     20397
     20396     20395     20401     20397     20395     20401     20398     20397     20399
     20398     20397     20400     20399     20397     20400     20402     20401     20403
     20402     20401     20404     20403     20401     20404     20405     20407     20408
     20405     20409     20410     20405     20409     20411     20405     20409     20412
     20405     20451     20448     20405     20451     20452     20405     20451     20453
     20406     20405     20407     20406     20405     20409     20406     20405     20451
     20407     20405     20409     20407     20405     20451     20409     20405     20451
     20409     20412     20413     20409     20412     20443     20410     20409     20411
     20410     20409     20412     20411     20409     20412     20412     20413     20414
     20412     20413     20415     20412     20443     20441     20412     20443     20444
     20412     20443     20448     20413     20412     20443     20413     20415     20416
     20413     20415     20417     20413     20415     20418     20414     20413     20415
     20415     20418     20419     20415     20418     20420     20415     20418     20441
     20416     20415     20417     20416     20415     20418     20417     20415     20418
     20418     20420     20421     20418     20420     20422     20418     20420     20430
     20418     20441     20438     20418     20441     20442     20418     20441     20443
     20419     20418     20420     20419     20418     20441     20420     20418     20441
     20420     20422     20423     20420     20422     20424     20420     20422     20425
     20420     20430     20428     20420     20430     20431     20420     20430     20435
     20421     20420     20422     20421     20420     20430     20422     20420     20430
     20422     20425     20426     20422     20425     20427     20422     20425     20428
     20423     20422     20424     20423     20422     20425     20424     20422     20425
     20425     20428     20429     20425     20428     20430     20425     20428     20454
     20426     20425     20427     20426     20425     20428     20427     20425     20428
     20428     20430     20431     20428     20430     20435     20428     20454     20455
     20428     20454     20456     20428     20454     20460     20429     20428     20430
     20429     20428     20454     20430     20428     20454     20430     20431     20432
     20430     20431     20433     20430     20431     20434     20430     20435     20436
     20430     20435     20437     20430     20435     20438     20431     20430     20435
     20432     20431     20433     20432     20431     20434     20433     20431     20434
     20435     20438     20439     20435     20438     20440     20435     20438     20441
     20436     20435     20437     20436     20435     20438     20437     20435     20438
     20438     20441     20442     20438     20441     20443     20439     20438     20440
     20439     20438     20441     20440     20438     20441     20441     20443     20444
     20441     20443     20448     20442     20441     20443     20443     20444     20445
     20443     20444     20446     20443     20444     20447     20443     20448     20449
     20443     20448     20450     20443     20448     20451     20444     20443     20448
     20445     20444     20446     20445     20444     20447     20446     20444     20447
     20448     20451     20452     20448     20451     20453     20449     20448     20450
     20449     20448     20451     20450     20448     20451     20452     20451     20453
     20454     20456     20457     20454     20456     20458     20454     20456     20459
     20454     20460     20461     20454     20460     20462     20454     20460     20463
     20455     20454     20456     20455     20454     20460     20456     20454     20460
     20457     20456     20458     20457     20456     20459     20458     20456     20459
     20460     20463     20464     20460     20463     20465     20460     20463     20466
     20461     20460     20462     20461     20460     20463     20462     20460     20463
     20463     20466     20467     20463     20466     20468     20463     20466     20469
     20464     20463     20465     20464     20463     20466     20465     20463     20466
     20466     20469     20470     20466     20469     20471     20466     20469     20475
     20467     20466     20468     20467     20466     20469     20468     20466     20469
     20469     20471     20472     20469     20471     20473     20469     20471     20474
     20469     20475     20476     20469     20475     20477     20469     20475     20478
     20470     20469     20471     20470     20469     20475     20471     20469     20475
     20472     20471     20473     20472     20471     20474     20473     20471     20474
     20476     20475     20477     20476     20475     20478     20477     20475     20478
     20479     20481     20482     20479     20483     20484     20479     20483     20485
     20479     20483     20486     20479     20525     20522     20479     20525     20526
     20479     20525     20527     20480     20479     20481     20480     20479     20483
     20480     20479     20525     20481     20479     20483     20481     20479     20525
     20483     20479     20525     20483     20486     20487     20483     20486     20517
     20484     20483     20485     20484     20483     20486     20485     20483     20486
     20486     20487     20488     20486     20487     20489     20486     20517     20515
     20486     20517     20518     20486     20517     20522     20487     20486     20517
     20487     20489     20490     20487     20489     20491     20487     20489     20492
     20488     20487     20489     20489     20492     20493     20489     20492     20494
     20489     20492     20515     20490     20489     20491     20490     20489     20492
     20491     20489     20492     20492     20494     20495     20492     20494     20496
     20492     20494     20504     20492     20515     20512     20492     20515     20516
     20492     20515     20517     20493     20492     20494     20493     20492     20515
     20494     20492     20515     20494     20496     20497     20494     20496     20498
     20494     20496     20499     20494     20504     20502     20494     20504     20505
     20494     20504     20509     20495     20494     20496     20495     20494     20504
     20496     20494     20504     20496     20499     20500     20496     20499     20501
     20496     20499     20502     20497     20496     20498     20497     20496     20499
     20498     20496     20499     20499     20502     20503     20499     20502     20504
     20499     20502     20528     20500     20499     20501     20500     20499     20502
     20501     20499     20502     20502     20504     20505     20502     20504     20509
     20502     20528     20529     20502     20528     20530     20502     20528     20534
     20503     20502     20504     20503     20502     20528     20504     20502     20528
     20504     20505     20506     20504     20505     20507     20504     20505     20508
     20504     20509     20510     20504     20509     20511     20504     20509     20512
     20505     20504     20509     20506     20505     20507     20506     20505     20508
     20507     20505     20508     20509     20512     20513     20509     20512     20514
     20509     20512     20515     20510     20509     20511     20510     20509     20512
     20511     20509     20512     20512     20515     20516     20512     20515     20517
     20513     20512     20514     20513     20512     20515     20514     20512     20515
     20515     20517     20518     20515     20517     20522     20516     20515     20517
     20517     20518     20519     20517     20518     20520     20517     20518     20521
     20517     20522     20523     20517     20522     20524     20517     20522     20525
     20518     20517     20522     20519     20518     20520     20519     20518     20521
     20520     20518     20521     20522     20525     20526     20522     20525     20527
     20523     20522     20524     20523     20522     20525     20524     20522     20525
     20526     20525     20527     20528     20530     20531     20528     20530     20532
     20528     20530     20533     20528     20534     20535     20528     20534     20536
     20528     20534     20537     20529     20528     20530     20529     20528     20534
     20530     20528     20534     20531     20530     20532     20531     20530     20533
     20532     20530     20533     20534     20537     20538     20534     20537     20539
     20534     20537     20540     20535     20534     20536     20535     20534     20537
     20536     20534     20537     20537     20540     20541     20537     20540     20542
     20537     20540     20543     20538     20537     20539     20538     20537     20540
     20539     20537     20540     20540     20543     20544     20540     20543     20545
     20540     20543     20549     20541     20540     20542     20541     20540     20543
     20542     20540     20543     20543     20545     20546     20543     20545     20547
     20543     20545     20548     20543     20549     20550     20543     20549     20551
     20543     20549     20552     20544     20543     20545     20544     20543     20549
     20545     20543     20549     20546     20545     20547     20546     20545     20548
     20547     20545     20548     20550     20549     20551     20550     20549     20552
     20551     20549     20552     20553     20555     20556     20553     20557     20558
     20553     20557     20559     20553     20557     20560     20553     20599     20596
     20553     20599     20600     20553     20599     20601     20554     20553     20555
     20554     20553     20557     20554     20553     20599     20555     20553     20557
     20555     20553     20599     20557     20553     20599     20557     20560     20561
     20557     20560     20591     20558     20557     20559     20558     20557     20560
     20559     20557     20560     20560     20561     20562     20560     20561     20563
     20560     20591     20589     20560     20591     20592     20560     20591     20596
     20561     20560     20591     20561     20563     20564     20561     20563     20565
     20561     20563     20566     20562     20561     20563     20563     20566     20567
     20563     20566     20568     20563     20566     20589     20564     20563     20565
     20564     20563     20566     20565     20563     20566     20566     20568     20569
     20566     20568     20570     20566     20568     20578     20566     20589     20586
     20566     20589     20590     20566     20589     20591     20567     20566     20568
     20567     20566     20589     20568     20566     20589     20568     20570     20571
     20568     20570     20572     20568     20570     20573     20568     20578     20576
     20568     20578     20579     20568     20578     20583     20569     20568     20570
     20569     20568     20578     20570     20568     20578     20570     20573     20574
     20570     20573     20575     20570     20573     20576     20571     20570     20572
     20571     20570     20573     20572     20570     20573     20573     20576     20577
     20573     20576     20578     20573     20576     20602     20574     20573     20575
     20574     20573     20576     20575     20573     20576     20576     20578     20579
     20576     20578     20583     20576     20602     20603     20576     20602     20604
     20576     20602     20608     20577     20576     20578     20577     20576     20602
     20578     20576     20602     20578     20579     20580     20578     20579     20581
     20578     20579     20582     20578     20583     20584     20578     20583     20585
     20578     20583     20586     20579     20578     20583     20580     20579     20581
     20580     20579     20582     20581     20579     20582     20583     20586     20587
     20583     20586     20588     20583     20586     20589     20584     20583     20585
     20584     20583     20586     20585     20583     20586     20586     20589     20590
     20586     20589     20591     20587     20586     20588     20587     20586     20589
     20588     20586     20589     20589     20591     20592     20589     20591     20596
     20590     20589     20591     20591     20592     20593     20591     20592     20594
     20591     20592     20595     20591     20596     20597     20591     20596     20598
     20591     20596     20599     20592     20591     20596     20593     20592     20594
     20593     20592     20595     20594     20592     20595     20596     20599     20600
     20596     20599     20601     20597     20596     20598     20597     20596     20599
     20598     20596     20599     20600     20599     20601     20602     20604     20605
     20602     20604     20606     20602     20604     20607     20602     20608     20609
     20602     20608     20610     20602     20608     20611     20603     20602     20604
     20603     20602     20608     20604     20602     20608     20605     20604     20606
     20605     20604     20607     20606     20604     20607     20608     20611     20612
     20608     20611     20613     20608     20611     20614     20609     20608     20610
     20609     20608     20611     20610     20608     20611     20611     20614     20615
     20611     20614     20616     20611     20614     20617     20612     20611     20613
     20612     20611     20614     20613     20611     20614     20614     20617     20618
     20614     20617     20619     20614     20617     20623     20615     20614     20616
     20615     20614     20617     20616     20614     20617     20617     20619     20620
     20617     20619     20621     20617     20619     20622     20617     20623     20624
     20617     20623     20625     20617     20623     20626     20618     20617     20619
     20618     20617     20623     20619     20617     20623     20620     20619     20621
     20620     20619     20622     20621     20619     20622     20624     20623     20625
     20624     20623     20626     20625     20623     20626     20627     20629     20630
     20627     20631     20632     20627     20631     20633     20627     20631     20634
     20627     20673     20670     20627     20673     20674     20627     20673     20675
     20628     20627     20629     20628     20627     20631     20628     20627     20673
     20629     20627     20631     20629     20627     20673     20631     20627     20673
     20631     20634     20635     20631     20634     20665     20632     20631     20633
     20632     20631     20634     20633     20631     20634     20634     20635     20636
     20634     20635     20637     20634     20665     20663     20634     20665     20666
     20634     20665     20670     20635     20634     20665     20635     20637     20638
     20635     20637     20639     20635     20637     20640     20636     20635     20637
     20637     20640     20641     20637     20640     20642     20637     20640     20663
     20638     20637     20639     20638     20637     20640     20639     20637     20640
     20640     20642     20643     20640     20642     20644     20640     20642     20652
     20640     20663     20660     20640     20663     20664     20640     20663     20665
     20641     20640     20642     20641     20640     20663     20642     20640     20663
     20642     20644     20645     20642     20644     20646     20642     20644     20647
     20642     20652     20650     20642     20652     20653     20642     20652     20657
     20643     20642     20644     20643     20642     20652     20644     20642     20652
     20644     20647     20648     20644     20647     20649     20644     20647     20650
     20645     20644     20646     20645     20644     20647     20646     20644     20647
     20647     20650     20651     20647     20650     20652     20647     20650     20676
     20648     20647     20649     20648     20647     20650     20649     20647     20650
     20650     20652     20653     20650     20652     20657     20650     20676     20677
     20650     20676     20678     20650     20676     20682     20651     20650     20652
     20651     20650     20676     20652     20650     20676     20652     20653     20654
     20652     20653     20655     20652     20653     20656     20652     20657     20658
     20652     20657     20659     20652     20657     20660     20653     20652     20657
     20654     20653     20655     20654     20653     20656     20655     20653     20656
     20657     20660     20661     20657     20660     20662     20657     20660     20663
     20658     20657     20659     20658     20657     20660     20659     20657     20660
     20660     20663     20664     20660     20663     20665     20661     20660     20662
     20661     20660     20663     20662     20660     20663     20663     20665     20666
     20663     20665     20670     20664     20663     20665     20665     20666     20667
     20665     20666     20668     20665     20666     20669     20665     20670     20671
     20665     20670     20672     20665     20670     20673     20666     20665     20670
     20667     20666     20668     20667     20666     20669     20668     20666     20669
     20670     20673     20674     20670     20673     20675     20671     20670     20672
     20671     20670     20673     20672     20670     20673     20674     20673     20675
     20676     20678     20679     20676     20678     20680     20676     20678     20681
     20676     20682     20683     20676     20682     20684     20676     20682     20685
     20677     20676     20678     20677     20676     20682     20678     20676     20682
     20679     20678     20680     20679     20678     20681     20680     20678     20681
     20682     20685     20686     20682     20685     20687     20682     20685     20688
     20683     20682     20684     20683     20682     20685     20684     20682     20685
     20685     20688     20689     20685     20688     20690     20685     20688     20691
     20686     20685     20687     20686     20685     20688     20687     20685     20688
     20688     20691     20692     20688     20691     20693     20688     20691     20697
     20689     20688     20690     20689     20688     20691     20690     20688     20691
     20691     20693     20694     20691     20693     20695     20691     20693     20696
     20691     20697     20698     20691     20697     20699     20691     20697     20700
     20692     20691     20693     20692     20691     20697     20693     20691     20697
     20694     20693     20695     20694     20693     20696     20695     20693     20696
     20698     20697     20699     20698     20697     20700     20699     20697     20700
     20701     20703     20704     20701     20705     20706     20701     20705     20707
     20701     20705     20708     20701     20747     20744     20701     20747     20748
     20701     20747     20749     20702     20701     20703     20702     20701     20705
     20702     20701     20747     20703     20701     20705     20703     20701     20747
     20705     20701     20747     20705     20708     20709     20705     20708     20739
     20706     20705     20707     20706     20705     20708     20707     20705     20708
     20708     20709     20710     20708     20709     20711     20708     20739     20737
     20708     20739     20740     20708     20739     20744     20709     20708     20739
     20709     20711     20712     20709     20711     20713     20709     20711     20714
     20710     20709     20711     20711     20714     20715     20711     20714     20716
     20711     20714     20737     20712     20711     20713     20712     20711     20714
     20713     20711     20714     20714     20716     20717     20714     20716     20718
     20714     20716     20726     20714     20737     20734     20714     20737     20738
     20714     20737     20739     20715     20714     20716     20715     20714     20737
     20716     20714     20737     20716     20718     20719     20716     20718     20720
     20716     20718     20721     20716     20726     20724     20716     20726     20727
     20716     20726     20731     20717     20716     20718     20717     20716     20726
     20718     20716     20726     20718     20721     20722     20718     20721     20723
     20718     20721     20724     20719     20718     20720     20719     20718     20721
     20720     20718     20721     20721     20724     20725     20721     20724     20726
     20721     20724     20750     20722     20721     20723     20722     20721     20724
     20723     20721     20724     20724     20726     20727     20724     20726     20731
     20724     20750     20751     20724     20750     20752     20724     20750     20756
     20725     20724     20726     20725     20724     20750     20726     20724     20750
     20726     20727     20728     20726     20727     20729     20726     20727     20730
     20726     20731     20732     20726     20731     20733     20726     20731     20734
     20727     20726     20731     20728     20727     20729     20728     20727     20730
     20729     20727     20730     20731     20734     20735     20731     20734     20736
     20731     20734     20737     20732     20731     20733     20732     20731     20734
     20733     20731     20734     20734     20737     20738     20734     20737     20739
     20735     20734     20736     20735     20734     20737     20736     20734     20737
     20737     20739     20740     20737     20739     20744     20738     20737     20739
     20739     20740     20741     20739     20740     20742     20739     20740     20743
     20739     20744     20745     20739     20744     20746     20739     20744     20747
     20740     20739     20744     20741     20740     20742     20741     20740     20743
     20742     20740     20743     20744     20747     20748     20744     20747     20749
     20745     20744     20746     20745     20744     20747     20746     20744     20747
     20748     20747     20749     20750     20752     20753     20750     20752     20754
     20750     20752     20755     20750     20756     20757     20750     20756     20758
     20750     20756     20759     20751     20750     20752     20751     20750     20756
     20752     20750     20756     20753     20752     20754     20753     20752     20755
     20754     20752     20755     20756     20759     20760     20756     20759     20761
     20756     20759     20762     20757     20756     20758     20757     20756     20759
     20758     20756     20759     20759     20762     20763     20759     20762     20764
     20759     20762     20765     20760     20759     20761     20760     20759     20762
     20761     20759     20762     20762     20765     20766     20762     20765     20767
     20762     20765     20771     20763     20762     20764     20763     20762     20765
     20764     20762     20765     20765     20767     20768     20765     20767     20769
     20765     20767     20770     20765     20771     20772     20765     20771     20773
     20765     20771     20774     20766     20765     20767     20766     20765     20771
     20767     20765     20771     20768     20767     20769     20768     20767     20770
     20769     20767     20770     20772     20771     20773     20772     20771     20774
     20773     20771     20774     20775     20777     20778     20775     20779     20780
     20775     20779     20781     20775     20779     20782     20775     20821     20818
     20775     20821     20822     20775     20821     20823     20776     20775     20777
     20776     20775     20779     20776     20775     20821     20777     20775     20779
     20777     20775     20821     20779     20775     20821     20779     20782     20783
     20779     20782     20813     20780     20779     20781     20780     20779     20782
     20781     20779     20782     20782     20783     20784     20782     20783     20785
     20782     20813     20811     20782     20813     20814     20782     20813     20818
     20783     20782     20813     20783     20785     20786     20783     20785     20787
     20783     20785     20788     20784     20783     20785     20785     20788     20789
     20785     20788     20790     20785     20788     20811     20786     20785     20787
     20786     20785     20788     20787     20785     20788     20788     20790     20791
     20788     20790     20792     20788     20790     20800     20788     20811     20808
     20788     20811     20812     20788     20811     20813     20789     20788     20790
     20789     20788     20811     20790     20788     20811     20790     20792     20793
     20790     20792     20794     20790     20792     20795     20790     20800     20798
     20790     20800     20801     20790     20800     20805     20791     20790     20792
     20791     20790     20800     20792     20790     20800     20792     20795     20796
     20792     20795     20797     20792     20795     20798     20793     20792     20794
     20793     20792     20795     20794     20792     20795     20795     20798     20799
     20795     20798     20800     20795     20798     20824     20796     20795     20797
     20796     20795     20798     20797     20795     20798     20798     20800     20801
     20798     20800     20805     20798     20824     20825     20798     20824     20826
     20798     20824     20830     20799     20798     20800     20799     20798     20824
     20800     20798     20824     20800     20801     20802     20800     20801     20803
     20800     20801     20804     20800     20805     20806     20800     20805     20807
     20800     20805     20808     20801     20800     20805     20802     20801     20803
     20802     20801     20804     20803     20801     20804     20805     20808     20809
     20805     20808     20810     20805     20808     20811     20806     20805     20807
     20806     20805     20808     20807     20805     20808     20808     20811     20812
     20808     20811     20813     20809     20808     20810     20809     20808     20811
     20810     20808     20811     20811     20813     20814     20811     20813     20818
     20812     20811     20813     20813     20814     20815     20813     20814     20816
     20813     20814     20817     20813     20818     20819     20813     20818     20820
     20813     20818     20821     20814     20813     20818     20815     20814     20816
     20815     20814     20817     20816     20814     20817     20818     20821     20822
     20818     20821     20823     20819     20818     20820     20819     20818     20821
     20820     20818     20821     20822     20821     20823     20824     20826     20827
     20824     20826     20828     20824     20826     20829     20824     20830     20831
     20824     20830     20832     20824     20830     20833     20825     20824     20826
     20825     20824     20830     20826     20824     20830     20827     20826     20828
     20827     20826     20829     20828     20826     20829     20830     20833     20834
     20830     20833     20835     20830     20833     20836     20831     20830     20832
     20831     20830     20833     20832     20830     20833     20833     20836     20837
     20833     20836     20838     20833     20836     20839     20834     20833     20835
     20834     20833     20836     20835     20833     20836     20836     20839     20840
     20836     20839     20841     20836     20839     20845     20837     20836     20838
     20837     20836     20839     20838     20836     20839     20839     20841     20842
     20839     20841     20843     20839     20841     20844     20839     20845     20846
     20839     20845     20847     20839     20845     20848     20840     20839     20841
     20840     20839     20845     20841     20839     20845     20842     20841     20843
     20842     20841     20844     20843     20841     20844     20846     20845     20847
     20846     20845     20848     20847     20845     20848     20849     20851     20852
     20849     20853     20854     20849     20853     20855     20849     20853     20856
     20849     20895     20892     20849     20895     20896     20849     20895     20897
     20850     20849     20851     20850     20849     20853     20850     20849     20895
     20851     20849     20853     20851     20849     20895     20853     20849     20895
     20853     20856     20857     20853     20856     20887     20854     20853     20855
     20854     20853     20856     20855     20853     20856     20856     20857     20858
     20856     20857     20859     20856     20887     20885     20856     20887     20888
     20856     20887     20892     20857     20856     20887     20857     20859     20860
     20857     20859     20861     20857     20859     20862     20858     20857     20859
     20859     20862     20863     20859     20862     20864     20859     20862     20885
     20860     20859     20861     20860     20859     20862     20861     20859     20862
     20862     20864     20865     20862     20864     20866     20862     20864     20874
     20862     20885     20882     20862     20885     20886     20862     20885     20887
     20863     20862     20864     20863     20862     20885     20864     20862     20885
     20864     20866     20867     20864     20866     20868     20864     20866     20869
     20864     20874     20872     20864     20874     20875     20864     20874     20879
     20865     20864     20866     20865     20864     20874     20866     20864     20874
     20866     20869     20870     20866     20869     20871     20866     20869     20872
     20867     20866     20868     20867     20866     20869     20868     20866     20869
     20869     20872     20873     20869     20872     20874     20869     20872     20898
     20870     20869     20871     20870     20869     20872     20871     20869     20872
     20872     20874     20875     20872     20874     20879     20872     20898     20899
     20872     20898     20900     20872     20898     20904     20873     20872     20874
     20873     20872     20898     20874     20872     20898     20874     20875     20876
     20874     20875     20877     20874     20875     20878     20874     20879     20880
     20874     20879     20881     20874     20879     20882     20875     20874     20879
     20876     20875     20877     20876     20875     20878     20877     20875     20878
     20879     20882     20883     20879     20882     20884     20879     20882     20885
     20880     20879     20881     20880     20879     20882     20881     20879     20882
     20882     20885     20886     20882     20885     20887     20883     20882     20884
     20883     20882     20885     20884     20882     20885     20885     20887     20888
     20885     20887     20892     20886     20885     20887     20887     20888     20889
     20887     20888     20890     20887     20888     20891     20887     20892     20893
     20887     20892     20894     20887     20892     20895     20888     20887     20892
     20889     20888     20890     20889     20888     20891     20890     20888     20891
     20892     20895     20896     20892     20895     20897     20893     20892     20894
     20893     20892     20895     20894     20892     20895     20896     20895     20897
     20898     20900     20901     20898     20900     20902     20898     20900     20903
     20898     20904     20905     20898     20904     20906     20898     20904     20907
     20899     20898     20900     20899     20898     20904     20900     20898     20904
     20901     20900     20902     20901     20900     20903     20902     20900     20903
     20904     20907     20908     20904     20907     20909     20904     20907     20910
     20905     20904     20906     20905     20904     20907     20906     20904     20907
     20907     20910     20911     20907     20910     20912     20907     20910     20913
     20908     20907     20909     20908     20907     20910     20909     20907     20910
     20910     20913     20914     20910     20913     20915     20910     20913     20919
     20911     20910     20912     20911     20910     20913     20912     20910     20913
     20913     20915     20916     20913     20915     20917     20913     20915     20918
     20913     20919     20920     20913     20919     20921     20913     20919     20922
     20914     20913     20915     20914     20913     20919     20915     20913     20919
     20916     20915     20917     20916     20915     20918     20917     20915     20918
     20920     20919     20921     20920     20919     20922     20921     20919     20922
     20923     20925     20926     20923     20927     20928     20923     20927     20929
     20923     20927     20930     20923     20969     20966     20923     20969     20970
     20923     20969     20971     20924     20923     20925     20924     20923     20927
     20924     20923     20969     20925     20923     20927     20925     20923     20969
     20927     20923     20969     20927     20930     20931     20927     20930     20961
     20928     20927     20929     20928     20927     20930     20929     20927     20930
     20930     20931     20932     20930     20931     20933     20930     20961     20959
     20930     20961     20962     20930     20961     20966     20931     20930     20961
     20931     20933     20934     20931     20933     20935     20931     20933     20936
     20932     20931     20933     20933     20936     20937     20933     20936     20938
     20933     20936     20959     20934     20933     20935     20934     20933     20936
     20935     20933     20936     20936     20938     20939     20936     20938     20940
     20936     20938     20948     20936     20959     20956     20936     20959     20960
     20936     20959     20961     20937     20936     20938     20937     20936     20959
     20938     20936     20959     20938     20940     20941     20938     20940     20942
     20938     20940     20943     20938     20948     20946     20938     20948     20949
     20938     20948     20953     20939     20938     20940     20939     20938     20948
     20940     20938     20948     20940     20943     20944     20940     20943     20945
     20940     20943     20946     20941     20940     20942     20941     20940     20943
     20942     20940     20943     20943     20946     20947     20943     20946     20948
     20943     20946     20972     20944     20943     20945     20944     20943     20946
     20945     20943     20946     20946     20948     20949     20946     20948     20953
     20946     20972     20973     20946     20972     20974     20946     20972     20978
     20947     20946     20948     20947     20946     20972     20948     20946     20972
     20948     20949     20950     20948     20949     20951     20948     20949     20952
     20948     20953     20954     20948     20953     20955     20948     20953     20956
     20949     20948     20953     20950     20949     20951     20950     20949     20952
     20951     20949     20952     20953     20956     20957     20953     20956     20958
     20953     20956     20959     20954     20953     20955     20954     20953     20956
     20955     20953     20956     20956     20959     20960     20956     20959     20961
     20957     20956     20958     20957     20956     20959     20958     20956     20959
     20959     20961     20962     20959     20961     20966     20960     20959     20961
     20961     20962     20963     20961     20962     20964     20961     20962     20965
     20961     20966     20967     20961     20966     20968     20961     20966     20969
     20962     20961     20966     20963     20962     20964     20963     20962     20965
     20964     20962     20965     20966     20969     20970     20966     20969     20971
     20967     20966     20968     20967     20966     20969     20968     20966     20969
     20970     20969     20971     20972     20974     20975     20972     20974     20976
     20972     20974     20977     20972     20978     20979     20972     20978     20980
     20972     20978     20981     20973     20972     20974     20973     20972     20978
     20974     20972     20978     20975     20974     20976     20975     20974     20977
     20976     20974     20977     20978     20981     20982     20978     20981     20983
     20978     20981     20984     20979     20978     20980     20979     20978     20981
     20980     20978     20981     20981     20984     20985     20981     20984     20986
     20981     20984     20987     20982     20981     20983     20982     20981     20984
     20983     20981     20984     20984     20987     20988     20984     20987     20989
     20984     20987     20993     20985     20984     20986     20985     20984     20987
     20986     20984     20987     20987     20989     20990     20987     20989     20991
     20987     20989     20992     20987     20993     20994     20987     20993     20995
     20987     20993     20996     20988     20987     20989     20988     20987     20993
     20989     20987     20993     20990     20989     20991     20990     20989     20992
     20991     20989     20992     20994     20993     20995     20994     20993     20996
     20995     20993     20996     20997     20999     21000     20997     21001     21002
     20997     21001     21003     20997     21001     21004     20997     21043     21040
     20997     21043     21044     20997     21043     21045     20998     20997     20999
     20998     20997     21001     20998     20997     21043     20999     20997     21001
     20999     20997     21043     21001     20997     21043     21001     21004     21005
     21001     21004     21035     21002     21001     21003     21002     21001     21004
     21003     21001     21004     21004     21005     21006     21004     21005     21007
     21004     21035     21033     21004     21035     21036     21004     21035     21040
     21005     21004     21035     21005     21007     21008     21005     21007     21009
     21005     21007     21010     21006     21005     21007     21007     21010     21011
     21007     21010     21012     21007     21010     21033     21008     21007     21009
     21008     21007     21010     21009     21007     21010     21010     21012     21013
     21010     21012     21014     21010     21012     21022     21010     21033     21030
     21010     21033     21034     21010     21033     21035     21011     21010     21012
     21011     21010     21033     21012     21010     21033     21012     21014     21015
     21012     21014     21016     21012     21014     21017     21012     21022     21020
     21012     21022     21023     21012     21022     21027     21013     21012     21014
     21013     21012     21022     21014     21012     21022     21014     21017     21018
     21014     21017     21019     21014     21017     21020     21015     21014     21016
     21015     21014     21017     21016     21014     21017     21017     21020     21021
     21017     21020     21022     21017     21020     21046     21018     21017     21019
     21018     21017     21020     21019     21017     21020     21020     21022     21023
     21020     21022     21027     21020     21046     21047     21020     21046     21048
     21020     21046     21052     21021     21020     21022     21021     21020     21046
     21022     21020     21046     21022     21023     21024     21022     21023     21025
     21022     21023     21026     21022     21027     21028     21022     21027     21029
     21022     21027     21030     21023     21022     21027     21024     21023     21025
     21024     21023     21026     21025     21023     21026     21027     21030     21031
     21027     21030     21032     21027     21030     21033     21028     21027     21029
     21028     21027     21030     21029     21027     21030     21030     21033     21034
     21030     21033     21035     21031     21030     21032     21031     21030     21033
     21032     21030     21033     21033     21035     21036     21033     21035     21040
     21034     21033     21035     21035     21036     21037     21035     21036     21038
     21035     21036     21039     21035     21040     21041     21035     21040     21042
     21035     21040     21043     21036     21035     21040     21037     21036     21038
     21037     21036     21039     21038     21036     21039     21040     21043     21044
     21040     21043     21045     21041     21040     21042     21041     21040     21043
     21042     21040     21043     21044     21043     21045     21046     21048     21049
     21046     21048     21050     21046     21048     21051     21046     21052     21053
     21046     21052     21054     21046     21052     21055     21047     21046     21048
     21047     21046     21052     21048     21046     21052     21049     21048     21050
     21049     21048     21051     21050     21048     21051     21052     21055     21056
     21052     21055     21057     21052     21055     21058     21053     21052     21054
     21053     21052     21055     21054     21052     21055     21055     21058     21059
     21055     21058     21060     21055     21058     21061     21056     21055     21057
     21056     21055     21058     21057     21055     21058     21058     21061     21062
     21058     21061     21063     21058     21061     21067     21059     21058     21060
     21059     21058     21061     21060     21058     21061     21061     21063     21064
     21061     21063     21065     21061     21063     21066     21061     21067     21068
     21061     21067     21069     21061     21067     21070     21062     21061     21063
     21062     21061     21067     21063     21061     21067     21064     21063     21065
     21064     21063     21066     21065     21063     21066     21068     21067     21069
     21068     21067     21070     21069     21067     21070     21071     21073     21074
     21071     21075     21076     21071     21075     21077     21071     21075     21078
     21071     21117     21114     21071     21117     21118     21071     21117     21119
     21072     21071     21073     21072     21071     21075     21072     21071     21117
     21073     21071     21075     21073     21071     21117     21075     21071     21117
     21075     21078     21079     21075     21078     21109     21076     21075     21077
     21076     21075     21078     21077     21075     21078     21078     21079     21080
     21078     21079     21081     21078     21109     21107     21078     21109     21110
     21078     21109     21114     21079     21078     21109     21079     21081     21082
     21079     21081     21083     21079     21081     21084     21080     21079     21081
     21081     21084     21085     21081     21084     21086     21081     21084     21107
     21082     21081     21083     21082     21081     21084     21083     21081     21084
     21084     21086     21087     21084     21086     21088     21084     21086     21096
     21084     21107     21104     21084     21107     21108     21084     21107     21109
     21085     21084     21086     21085     21084     21107     21086     21084     21107
     21086     21088     21089     21086     21088     21090     21086     21088     21091
     21086     21096     21094     21086     21096     21097     21086     21096     21101
     21087     21086     21088     21087     21086     21096     21088     21086     21096
     21088     21091     21092     21088     21091     21093     21088     21091     21094
     21089     21088     21090     21089     21088     21091     21090     21088     21091
     21091     21094     21095     21091     21094     21096     21091     21094     21120
     21092     21091     21093     21092     21091     21094     21093     21091     21094
     21094     21096     21097     21094     21096     21101     21094     21120     21121
     21094     21120     21122     21094     21120     21126     21095     21094     21096
     21095     21094     21120     21096     21094     21120     21096     21097     21098
     21096     21097     21099     21096     21097     21100     21096     21101     21102
     21096     21101     21103     21096     21101     21104     21097     21096     21101
     21098     21097     21099     21098     21097     21100     21099     21097     21100
     21101     21104     21105     21101     21104     21106     21101     21104     21107
     21102     21101     21103     21102     21101     21104     21103     21101     21104
     21104     21107     21108     21104     21107     21109     21105     21104     21106
     21105     21104     21107     21106     21104     21107     21107     21109     21110
     21107     21109     21114     21108     21107     21109     21109     21110     21111
     21109     21110     21112     21109     21110     21113     21109     21114     21115
     21109     21114     21116     21109     21114     21117     21110     21109     21114
     21111     21110     21112     21111     21110     21113     21112     21110     21113
     21114     21117     21118     21114     21117     21119     21115     21114     21116
     21115     21114     21117     21116     21114     21117     21118     21117     21119
     21120     21122     21123     21120     21122     21124     21120     21122     21125
     21120     21126     21127     21120     21126     21128     21120     21126     21129
     21121     21120     21122     21121     21120     21126     21122     21120     21126
     21123     21122     21124     21123     21122     21125     21124     21122     21125
     21126     21129     21130     21126     21129     21131     21126     21129     21132
     21127     21126     21128     21127     21126     21129     21128     21126     21129
     21129     21132     21133     21129     21132     21134     21129     21132     21135
     21130     21129     21131     21130     21129     21132     21131     21129     21132
     21132     21135     21136     21132     21135     21137     21132     21135     21141
     21133     21132     21134     21133     21132     21135     21134     21132     21135
     21135     21137     21138     21135     21137     21139     21135     21137     21140
     21135     21141     21142     21135     21141     21143     21135     21141     21144
     21136     21135     21137     21136     21135     21141     21137     21135     21141
     21138     21137     21139     21138     21137     21140     21139     21137     21140
     21142     21141     21143     21142     21141     21144     21143     21141     21144
     21145     21146     21147     21145     21146     21148     21145     21146     21161
     21145     21149     21150     21145     21149     21151     21145     21149     21152
     21145     21153     21154     21145     21153     21155     21145     21153     21156
     21145     21157     21158     21145     21157     21159     21145     21157     21160
     21146     21145     21149     21146     21145     21153     21146     21145     21157
     21146     21161     21162     21146     21161     21163     21146     21161     21167
     21147     21146     21148     21147     21146     21161     21148     21146     21161
     21149     21145     21153     21149     21145     21157     21150     21149     21151
     21150     21149     21152     21151     21149     21152     21153     21145     21157
     21154     21153     21155     21154     21153     21156     21155     21153     21156
     21158     21157     21159     21158     21157     21160     21159     21157     21160
     21161     21167     21164     21162     21161     21163     21162     21161     21167
     21163     21161     21167     21164     21168     21169     21165     21164     21166
     21165     21164     21167     21165     21164     21168     21166     21164     21167
     21166     21164     21168     21167     21164     21168     21168     21169     21170
     21168     21169     21171     21168     21169     21172     21169     21172     21173
     21169     21172     21174     21169     21172     21180     21170     21169     21171
     21170     21169     21172     21171     21169     21172     21172     21174     21175
     21172     21180     21181     21172     21180     21182     21172     21180     21183
     21173     21172     21174     21173     21172     21180     21174     21172     21180
     21174     21175     21176     21174     21175     21177     21175     21177     21178
     21175     21177     21179     21175     21177     21189     21176     21175     21177
     21177     21189     21190     21177     21189     21191     21177     21189     21192
     21178     21177     21179     21178     21177     21189     21179     21177     21189
     21180     21183     21184     21181     21180     21182     21181     21180     21183
     21182     21180     21183     21183     21184     21185     21183     21184     21186
     21184     21186     21187     21184     21186     21188     21184     21186     21236
     21185     21184     21186     21186     21236     21237     21186     21236     21238
     21186     21236     21239     21187     21186     21188     21187     21186     21236
     21188     21186     21236     21189     21192     21193     21189     21192     21194
     21189     21192     21195     21190     21189     21191     21190     21189     21192
     21191     21189     21192     21192     21195     21196     21192     21195     21197
     21192     21195     21198     21193     21192     21194     21193     21192     21195
     21194     21192     21195     21195     21198     21199     21195     21198     21200
     21195     21198     21201     21196     21195     21197     21196     21195     21198
     21197     21195     21198     21198     21201     21202     21198     21201     21203
     21198     21201     21204     21199     21198     21200     21199     21198     21201
     21200     21198     21201     21201     21204     21205     21201     21204     21206
     21201     21204     21207     21202     21201     21203     21202     21201     21204
     21203     21201     21204     21204     21207     21208     21204     21207     21209
     21205     21204     21206     21205     21204     21207     21206     21204     21207
     21207     21209     21210     21207     21209     21211     21208     21207     21209
     21209     21211     21212     21209     21211     21213     21209     21211     21214
     21210     21209     21211     21211     21214     21215     21211     21214     21216
     21211     21214     21217     21212     21211     21213     21212     21211     21214
     21213     21211     21214     21214     21217     21218     21214     21217     21219
     21214     21217     21220     21215     21214     21216     21215     21214     21217
     21216     21214     21217     21217     21220     21221     21217     21220     21222
     21217     21220     21223     21218     21217     21219     21218     21217     21220
     21219     21217     21220     21220     21223     21224     21220     21223     21225
     21220     21223     21226     21221     21220     21222     21221     21220     21223
     21222     21220     21223     21223     21226     21227     21223     21226     21228
     21223     21226     21229     21224     21223     21225     21224     21223     21226
     21225     21223     21226     21226     21229     21230     21226     21229     21231
     21226     21229     21232     21227     21226     21228     21227     21226     21229
     21228     21226     21229     21229     21232     21233     21229     21232     21234
     21229     21232     21235     21230     21229     21231     21230     21229     21232
     21231     21229     21232     21233     21232     21234     21233     21232     21235
     21234     21232     21235     21236     21239     21240     21236     21239     21241
     21236     21239     21242     21237     21236     21238     21237     21236     21239
     21238     21236     21239     21239     21242     21243     21239     21242     21244
     21239     21242     21245     21240     21239     21241     21240     21239     21242
     21241     21239     21242     21242     21245     21246     21242     21245     21247
     21242     21245     21248     21243     21242     21244     21243     21242     21245
     21244     21242     21245     21245     21248     21249     21245     21248     21250
     21245     21248     21251     21246     21245     21247     21246     21245     21248
     21247     21245     21248     21248     21251     21252     21248     21251     21253
     21248     21251     21254     21249     21248     21250     21249     21248     21251
     21250     21248     21251     21251     21254     21255     21251     21254     21256
     21251     21254     21257     21252     21251     21253     21252     21251     21254
     21253     21251     21254     21254     21257     21258     21254     21257     21259
     21254     21257     21260     21255     21254     21256     21255     21254     21257
     21256     21254     21257     21257     21260     21261     21257     21260     21262
     21257     21260     21263     21258     21257     21259     21258     21257     21260
     21259     21257     21260     21260     21263     21264     21260     21263     21265
     21260     21263     21266     21261     21260     21262     21261     21260     21263
     21262     21260     21263     21263     21266     21267     21263     21266     21268
     21263     21266     21269     21264     21263     21265     21264     21263     21266
     21265     21263     21266     21266     21269     21270     21266     21269     21271
     21266     21269     21272     21267     21266     21268     21267     21266     21269
     21268     21266     21269     21269     21272     21273     21269     21272     21274
     21269     21272     21275     21270     21269     21271     21270     21269     21272
     21271     21269     21272     21272     21275     21276     21272     21275     21277
     21272     21275     21278     21273     21272     21274     21273     21272     21275
     21274     21272     21275     21276     21275     21277     21276     21275     21278
     21277     21275     21278     21279     21280     21281     21279     21280     21282
     21279     21280     21295     21279     21283     21284     21279     21283     21285
     21279     21283     21286     21279     21287     21288     21279     21287     21289
     21279     21287     21290     21279     21291     21292     21279     21291     21293
     21279     21291     21294     21280     21279     21283     21280     21279     21287
     21280     21279     21291     21280     21295     21296     21280     21295     21297
     21280     21295     21301     21281     21280     21282     21281     21280     21295
     21282     21280     21295     21283     21279     21287     21283     21279     21291
     21284     21283     21285     21284     21283     21286     21285     21283     21286
     21287     21279     21291     21288     21287     21289     21288     21287     21290
     21289     21287     21290     21292     21291     21293     21292     21291     21294
     21293     21291     21294     21295     21301     21298     21296     21295     21297
     21296     21295     21301     21297     21295     21301     21298     21302     21303
     21299     21298     21300     21299     21298     21301     21299     21298     21302
     21300     21298     21301     21300     21298     21302     21301     21298     21302
     21302     21303     21304     21302     21303     21305     21302     21303     21306
     21303     21306     21307     21303     21306     21308     21303     21306     21314
     21304     21303     21305     21304     21303     21306     21305     21303     21306
     21306     21308     21309     21306     21314     21315     21306     21314     21316
     21306     21314     21317     21307     21306     21308     21307     21306     21314
     21308     21306     21314     21308     21309     21310     21308     21309     21311
     21309     21311     21312     21309     21311     21313     21309     21311     21323
     21310     21309     21311     21311     21323     21324     21311     21323     21325
     21311     21323     21326     21312     21311     21313     21312     21311     21323
     21313     21311     21323     21314     21317     21318     21315     21314     21316
     21315     21314     21317     21316     21314     21317     21317     21318     21319
     21317     21318     21320     21318     21320     21321     21318     21320     21322
     21318     21320     21370     21319     21318     21320     21320     21370     21371
     21320     21370     21372     21320     21370     21373     21321     21320     21322
     21321     21320     21370     21322     21320     21370     21323     21326     21327
     21323     21326     21328     21323     21326     21329     21324     21323     21325
     21324     21323     21326     21325     21323     21326     21326     21329     21330
     21326     21329     21331     21326     21329     21332     21327     21326     21328
     21327     21326     21329     21328     21326     21329     21329     21332     21333
     21329     21332     21334     21329     21332     21335     21330     21329     21331
     21330     21329     21332     21331     21329     21332     21332     21335     21336
     21332     21335     21337     21332     21335     21338     21333     21332     21334
     21333     21332     21335     21334     21332     21335     21335     21338     21339
     21335     21338     21340     21335     21338     21341     21336     21335     21337
     21336     21335     21338     21337     21335     21338     21338     21341     21342
     21338     21341     21343     21339     21338     21340     21339     21338     21341
     21340     21338     21341     21341     21343     21344     21341     21343     21345
     21342     21341     21343     21343     21345     21346     21343     21345     21347
     21343     21345     21348     21344     21343     21345     21345     21348     21349
     21345     21348     21350     21345     21348     21351     21346     21345     21347
     21346     21345     21348     21347     21345     21348     21348     21351     21352
     21348     21351     21353     21348     21351     21354     21349     21348     21350
     21349     21348     21351     21350     21348     21351     21351     21354     21355
     21351     21354     21356     21351     21354     21357     21352     21351     21353
     21352     21351     21354     21353     21351     21354     21354     21357     21358
     21354     21357     21359     21354     21357     21360     21355     21354     21356
     21355     21354     21357     21356     21354     21357     21357     21360     21361
     21357     21360     21362     21357     21360     21363     21358     21357     21359
     21358     21357     21360     21359     21357     21360     21360     21363     21364
     21360     21363     21365     21360     21363     21366     21361     21360     21362
     21361     21360     21363     21362     21360     21363     21363     21366     21367
     21363     21366     21368     21363     21366     21369     21364     21363     21365
     21364     21363     21366     21365     21363     21366     21367     21366     21368
     21367     21366     21369     21368     21366     21369     21370     21373     21374
     21370     21373     21375     21370     21373     21376     21371     21370     21372
     21371     21370     21373     21372     21370     21373     21373     21376     21377
     21373     21376     21378     21373     21376     21379     21374     21373     21375
     21374     21373     21376     21375     21373     21376     21376     21379     21380
     21376     21379     21381     21376     21379     21382     21377     21376     21378
     21377     21376     21379     21378     21376     21379     21379     21382     21383
     21379     21382     21384     21379     21382     21385     21380     21379     21381
     21380     21379     21382     21381     21379     21382     21382     21385     21386
     21382     21385     21387     21382     21385     21388     21383     21382     21384
     21383     21382     21385     21384     21382     21385     21385     21388     21389
     21385     21388     21390     21385     21388     21391     21386     21385     21387
     21386     21385     21388     21387     21385     21388     21388     21391     21392
     21388     21391     21393     21388     21391     21394     21389     21388     21390
     21389     21388     21391     21390     21388     21391     21391     21394     21395
     21391     21394     21396     21391     21394     21397     21392     21391     21393
     21392     21391     21394     21393     21391     21394     21394     21397     21398
     21394     21397     21399     21394     21397     21400     21395     21394     21396
     21395     21394     21397     21396     21394     21397     21397     21400     21401
     21397     21400     21402     21397     21400     21403     21398     21397     21399
     21398     21397     21400     21399     21397     21400     21400     21403     21404
     21400     21403     21405     21400     21403     21406     21401     21400     21402
     21401     21400     21403     21402     21400     21403     21403     21406     21407
     21403     21406     21408     21403     21406     21409     21404     21403     21405
     21404     21403     21406     21405     21403     21406     21406     21409     21410
     21406     21409     21411     21406     21409     21412     21407     21406     21408
     21407     21406     21409     21408     21406     21409     21410     21409     21411
     21410     21409     21412     21411     21409     21412     21413     21414     21415
     21413     21414     21416     21413     21414     21429     21413     21417     21418
     21413     21417     21419     21413     21417     21420     21413     21421     21422
     21413     21421     21423     21413     21421     21424     21413     21425     21426
     21413     21425     21427     21413     21425     21428     21414     21413     21417
     21414     21413     21421     21414     21413     21425     21414     21429     21430
     21414     21429     21431     21414     21429     21435     21415     21414     21416
     21415     21414     21429     21416     21414     21429     21417     21413     21421
     21417     21413     21425     21418     21417     21419     21418     21417     21420
     21419     21417     21420     21421     21413     21425     21422     21421     21423
     21422     21421     21424     21423     21421     21424     21426     21425     21427
     21426     21425     21428     21427     21425     21428     21429     21435     21432
     21430     21429     21431     21430     21429     21435     21431     21429     21435
     21432     21436     21437     21433     21432     21434     21433     21432     21435
     21433     21432     21436     21434     21432     21435     21434     21432     21436
     21435     21432     21436     21436     21437     21438     21436     21437     21439
     21436     21437     21440     21437     21440     21441     21437     21440     21442
     21437     21440     21448     21438     21437     21439     21438     21437     21440
     21439     21437     21440     21440     21442     21443     21440     21448     21449
     21440     21448     21450     21440     21448     21451     21441     21440     21442
     21441     21440     21448     21442     21440     21448     21442     21443     21444
     21442     21443     21445     21443     21445     21446     21443     21445     21447
     21443     21445     21457     21444     21443     21445     21445     21457     21458
     21445     21457     21459     21445     21457     21460     21446     21445     21447
     21446     21445     21457     21447     21445     21457     21448     21451     21452
     21449     21448     21450     21449     21448     21451     21450     21448     21451
     21451     21452     21453     21451     21452     21454     21452     21454     21455
     21452     21454     21456     21452     21454     21504     21453     21452     21454
     21454     21504     21505     21454     21504     21506     21454     21504     21507
     21455     21454     21456     21455     21454     21504     21456     21454     21504
     21457     21460     21461     21457     21460     21462     21457     21460     21463
     21458     21457     21459     21458     21457     21460     21459     21457     21460
     21460     21463     21464     21460     21463     21465     21460     21463     21466
     21461     21460     21462     21461     21460     21463     21462     21460     21463
     21463     21466     21467     21463     21466     21468     21463     21466     21469
     21464     21463     21465     21464     21463     21466     21465     21463     21466
     21466     21469     21470     21466     21469     21471     21466     21469     21472
     21467     21466     21468     21467     21466     21469     21468     21466     21469
     21469     21472     21473     21469     21472     21474     21469     21472     21475
     21470     21469     21471     21470     21469     21472     21471     21469     21472
     21472     21475     21476     21472     21475     21477     21473     21472     21474
     21473     21472     21475     21474     21472     21475     21475     21477     21478
     21475     21477     21479     21476     21475     21477     21477     21479     21480
     21477     21479     21481     21477     21479     21482     21478     21477     21479
     21479     21482     21483     21479     21482     21484     21479     21482     21485
     21480     21479     21481     21480     21479     21482     21481     21479     21482
     21482     21485     21486     21482     21485     21487     21482     21485     21488
     21483     21482     21484     21483     21482     21485     21484     21482     21485
     21485     21488     21489     21485     21488     21490     21485     21488     21491
     21486     21485     21487     21486     21485     21488     21487     21485     21488
     21488     21491     21492     21488     21491     21493     21488     21491     21494
     21489     21488     21490     21489     21488     21491     21490     21488     21491
     21491     21494     21495     21491     21494     21496     21491     21494     21497
     21492     21491     21493     21492     21491     21494     21493     21491     21494
     21494     21497     21498     21494     21497     21499     21494     21497     21500
     21495     21494     21496     21495     21494     21497     21496     21494     21497
     21497     21500     21501     21497     21500     21502     21497     21500     21503
     21498     21497     21499     21498     21497     21500     21499     21497     21500
     21501     21500     21502     21501     21500     21503     21502     21500     21503
     21504     21507     21508     21504     21507     21509     21504     21507     21510
     21505     21504     21506     21505     21504     21507     21506     21504     21507
     21507     21510     21511     21507     21510     21512     21507     21510     21513
     21508     21507     21509     21508     21507     21510     21509     21507     21510
     21510     21513     21514     21510     21513     21515     21510     21513     21516
     21511     21510     21512     21511     21510     21513     21512     21510     21513
     21513     21516     21517     21513     21516     21518     21513     21516     21519
     21514     21513     21515     21514     21513     21516     21515     21513     21516
     21516     21519     21520     21516     21519     21521     21516     21519     21522
     21517     21516     21518     21517     21516     21519     21518     21516     21519
     21519     21522     21523     21519     21522     21524     21519     21522     21525
     21520     21519     21521     21520     21519     21522     21521     21519     21522
     21522     21525     21526     21522     21525     21527     21522     21525     21528
     21523     21522     21524     21523     21522     21525     21524     21522     21525
     21525     21528     21529     21525     21528     21530     21525     21528     21531
     21526     21525     21527     21526     21525     21528     21527     21525     21528
     21528     21531     21532     21528     21531     21533     21528     21531     21534
     21529     21528     21530     21529     21528     21531     21530     21528     21531
     21531     21534     21535     21531     21534     21536     21531     21534     21537
     21532     21531     21533     21532     21531     21534     21533     21531     21534
     21534     21537     21538     21534     21537     21539     21534     21537     21540
     21535     21534     21536     21535     21534     21537     21536     21534     21537
     21537     21540     21541     21537     21540     21542     21537     21540     21543
     21538     21537     21539     21538     21537     21540     21539     21537     21540
     21540     21543     21544     21540     21543     21545     21540     21543     21546
     21541     21540     21542     21541     21540     21543     21542     21540     21543
     21544     21543     21545     21544     21543     21546     21545     21543     21546
     21547     21548     21549     21547     21548     21550     21547     21548     21563
     21547     21551     21552     21547     21551     21553     21547     21551     21554
     21547     21555     21556     21547     21555     21557     21547     21555     21558
     21547     21559     21560     21547     21559     21561     21547     21559     21562
     21548     21547     21551     21548     21547     21555     21548     21547     21559
     21548     21563     21564     21548     21563     21565     21548     21563     21569
     21549     21548     21550     21549     21548     21563     21550     21548     21563
     21551     21547     21555     21551     21547     21559     21552     21551     21553
     21552     21551     21554     21553     21551     21554     21555     21547     21559
     21556     21555     21557     21556     21555     21558     21557     21555     21558
     21560     21559     21561     21560     21559     21562     21561     21559     21562
     21563     21569     21566     21564     21563     21565     21564     21563     21569
     21565     21563     21569     21566     21570     21571     21567     21566     21568
     21567     21566     21569     21567     21566     21570     21568     21566     21569
     21568     21566     21570     21569     21566     21570     21570     21571     21572
     21570     21571     21573     21570     21571     21574     21571     21574     21575
     21571     21574     21576     21571     21574     21582     21572     21571     21573
     21572     21571     21574     21573     21571     21574     21574     21576     21577
     21574     21582     21583     21574     21582     21584     21574     21582     21585
     21575     21574     21576     21575     21574     21582     21576     21574     21582
     21576     21577     21578     21576     21577     21579     21577     21579     21580
     21577     21579     21581     21577     21579     21591     21578     21577     21579
     21579     21591     21592     21579     21591     21593     21579     21591     21594
     21580     21579     21581     21580     21579     21591     21581     21579     21591
     21582     21585     21586     21583     21582     21584     21583     21582     21585
     21584     21582     21585     21585     21586     21587     21585     21586     21588
     21586     21588     21589     21586     21588     21590     21586     21588     21638
     21587     21586     21588     21588     21638     21639     21588     21638     21640
     21588     21638     21641     21589     21588     21590     21589     21588     21638
     21590     21588     21638     21591     21594     21595     21591     21594     21596
     21591     21594     21597     21592     21591     21593     21592     21591     21594
     21593     21591     21594     21594     21597     21598     21594     21597     21599
     21594     21597     21600     21595     21594     21596     21595     21594     21597
     21596     21594     21597     21597     21600     21601     21597     21600     21602
     21597     21600     21603     21598     21597     21599     21598     21597     21600
     21599     21597     21600     21600     21603     21604     21600     21603     21605
     21600     21603     21606     21601     21600     21602     21601     21600     21603
     21602     21600     21603     21603     21606     21607     21603     21606     21608
     21603     21606     21609     21604     21603     21605     21604     21603     21606
     21605     21603     21606     21606     21609     21610     21606     21609     21611
     21607     21606     21608     21607     21606     21609     21608     21606     21609
     21609     21611     21612     21609     21611     21613     21610     21609     21611
     21611     21613     21614     21611     21613     21615     21611     21613     21616
     21612     21611     21613     21613     21616     21617     21613     21616     21618
     21613     21616     21619     21614     21613     21615     21614     21613     21616
     21615     21613     21616     21616     21619     21620     21616     21619     21621
     21616     21619     21622     21617     21616     21618     21617     21616     21619
     21618     21616     21619     21619     21622     21623     21619     21622     21624
     21619     21622     21625     21620     21619     21621     21620     21619     21622
     21621     21619     21622     21622     21625     21626     21622     21625     21627
     21622     21625     21628     21623     21622     21624     21623     21622     21625
     21624     21622     21625     21625     21628     21629     21625     21628     21630
     21625     21628     21631     21626     21625     21627     21626     21625     21628
     21627     21625     21628     21628     21631     21632     21628     21631     21633
     21628     21631     21634     21629     21628     21630     21629     21628     21631
     21630     21628     21631     21631     21634     21635     21631     21634     21636
     21631     21634     21637     21632     21631     21633     21632     21631     21634
     21633     21631     21634     21635     21634     21636     21635     21634     21637
     21636     21634     21637     21638     21641     21642     21638     21641     21643
     21638     21641     21644     21639     21638     21640     21639     21638     21641
     21640     21638     21641     21641     21644     21645     21641     21644     21646
     21641     21644     21647     21642     21641     21643     21642     21641     21644
     21643     21641     21644     21644     21647     21648     21644     21647     21649
     21644     21647     21650     21645     21644     21646     21645     21644     21647
     21646     21644     21647     21647     21650     21651     21647     21650     21652
     21647     21650     21653     21648     21647     21649     21648     21647     21650
     21649     21647     21650     21650     21653     21654     21650     21653     21655
     21650     21653     21656     21651     21650     21652     21651     21650     21653
     21652     21650     21653     21653     21656     21657     21653     21656     21658
     21653     21656     21659     21654     21653     21655     21654     21653     21656
     21655     21653     21656     21656     21659     21660     21656     21659     21661
     21656     21659     21662     21657     21656     21658     21657     21656     21659
     21658     21656     21659     21659     21662     21663     21659     21662     21664
     21659     21662     21665     21660     21659     21661     21660     21659     21662
     21661     21659     21662     21662     21665     21666     21662     21665     21667
     21662     21665     21668     21663     21662     21664     21663     21662     21665
     21664     21662     21665     21665     21668     21669     21665     21668     21670
     21665     21668     21671     21666     21665     21667     21666     21665     21668
     21667     21665     21668     21668     21671     21672     21668     21671     21673
     21668     21671     21674     21669     21668     21670     21669     21668     21671
     21670     21668     21671     21671     21674     21675     21671     21674     21676
     21671     21674     21677     21672     21671     21673     21672     21671     21674
     21673     21671     21674     21674     21677     21678     21674     21677     21679
     21674     21677     21680     21675     21674     21676     21675     21674     21677
     21676     21674     21677     21678     21677     21679     21678     21677     21680
     21679     21677     21680     21681     21682     21683     21681     21682     21684
     21681     21682     21697     21681     21685     21686     21681     21685     21687
     21681     21685     21688     21681     21689     21690     21681     21689     21691
     21681     21689     21692     21681     21693     21694     21681     21693     21695
     21681     21693     21696     21682     21681     21685     21682     21681     21689
     21682     21681     21693     21682     21697     21698     21682     21697     21699
     21682     21697     21703     21683     21682     21684     21683     21682     21697
     21684     21682     21697     21685     21681     21689     21685     21681     21693
     21686     21685     21687     21686     21685     21688     21687     21685     21688
     21689     21681     21693     21690     21689     21691     21690     21689     21692
     21691     21689     21692     21694     21693     21695     21694     21693     21696
     21695     21693     21696     21697     21703     21700     21698     21697     21699
     21698     21697     21703     21699     21697     21703     21700     21704     21705
     21701     21700     21702     21701     21700     21703     21701     21700     21704
     21702     21700     21703     21702     21700     21704     21703     21700     21704
     21704     21705     21706     21704     21705     21707     21704     21705     21708
     21705     21708     21709     21705     21708     21710     21705     21708     21716
     21706     21705     21707     21706     21705     21708     21707     21705     21708
     21708     21710     21711     21708     21716     21717     21708     21716     21718
     21708     21716     21719     21709     21708     21710     21709     21708     21716
     21710     21708     21716     21710     21711     21712     21710     21711     21713
     21711     21713     21714     21711     21713     21715     21711     21713     21725
     21712     21711     21713     21713     21725     21726     21713     21725     21727
     21713     21725     21728     21714     21713     21715     21714     21713     21725
     21715     21713     21725     21716     21719     21720     21717     21716     21718
     21717     21716     21719     21718     21716     21719     21719     21720     21721
     21719     21720     21722     21720     21722     21723     21720     21722     21724
     21720     21722     21772     21721     21720     21722     21722     21772     21773
     21722     21772     21774     21722     21772     21775     21723     21722     21724
     21723     21722     21772     21724     21722     21772     21725     21728     21729
     21725     21728     21730     21725     21728     21731     21726     21725     21727
     21726     21725     21728     21727     21725     21728     21728     21731     21732
     21728     21731     21733     21728     21731     21734     21729     21728     21730
     21729     21728     21731     21730     21728     21731     21731     21734     21735
     21731     21734     21736     21731     21734     21737     21732     21731     21733
     21732     21731     21734     21733     21731     21734     21734     21737     21738
     21734     21737     21739     21734     21737     21740     21735     21734     21736
     21735     21734     21737     21736     21734     21737     21737     21740     21741
     21737     21740     21742     21737     21740     21743     21738     21737     21739
     21738     21737     21740     21739     21737     21740     21740     21743     21744
     21740     21743     21745     21741     21740     21742     21741     21740     21743
     21742     21740     21743     21743     21745     21746     21743     21745     21747
     21744     21743     21745     21745     21747     21748     21745     21747     21749
     21745     21747     21750     21746     21745     21747     21747     21750     21751
     21747     21750     21752     21747     21750     21753     21748     21747     21749
     21748     21747     21750     21749     21747     21750     21750     21753     21754
     21750     21753     21755     21750     21753     21756     21751     21750     21752
     21751     21750     21753     21752     21750     21753     21753     21756     21757
     21753     21756     21758     21753     21756     21759     21754     21753     21755
     21754     21753     21756     21755     21753     21756     21756     21759     21760
     21756     21759     21761     21756     21759     21762     21757     21756     21758
     21757     21756     21759     21758     21756     21759     21759     21762     21763
     21759     21762     21764     21759     21762     21765     21760     21759     21761
     21760     21759     21762     21761     21759     21762     21762     21765     21766
     21762     21765     21767     21762     21765     21768     21763     21762     21764
     21763     21762     21765     21764     21762     21765     21765     21768     21769
     21765     21768     21770     21765     21768     21771     21766     21765     21767
     21766     21765     21768     21767     21765     21768     21769     21768     21770
     21769     21768     21771     21770     21768     21771     21772     21775     21776
     21772     21775     21777     21772     21775     21778     21773     21772     21774
     21773     21772     21775     21774     21772     21775     21775     21778     21779
     21775     21778     21780     21775     21778     21781     21776     21775     21777
     21776     21775     21778     21777     21775     21778     21778     21781     21782
     21778     21781     21783     21778     21781     21784     21779     21778     21780
     21779     21778     21781     21780     21778     21781     21781     21784     21785
     21781     21784     21786     21781     21784     21787     21782     21781     21783
     21782     21781     21784     21783     21781     21784     21784     21787     21788
     21784     21787     21789     21784     21787     21790     21785     21784     21786
     21785     21784     21787     21786     21784     21787     21787     21790     21791
     21787     21790     21792     21787     21790     21793     21788     21787     21789
     21788     21787     21790     21789     21787     21790     21790     21793     21794
     21790     21793     21795     21790     21793     21796     21791     21790     21792
     21791     21790     21793     21792     21790     21793     21793     21796     21797
     21793     21796     21798     21793     21796     21799     21794     21793     21795
     21794     21793     21796     21795     21793     21796     21796     21799     21800
     21796     21799     21801     21796     21799     21802     21797     21796     21798
     21797     21796     21799     21798     21796     21799     21799     21802     21803
     21799     21802     21804     21799     21802     21805     21800     21799     21801
     21800     21799     21802     21801     21799     21802     21802     21805     21806
     21802     21805     21807     21802     21805     21808     21803     21802     21804
     21803     21802     21805     21804     21802     21805     21805     21808     21809
     21805     21808     21810     21805     21808     21811     21806     21805     21807
     21806     21805     21808     21807     21805     21808     21808     21811     21812
     21808     21811     21813     21808     21811     21814     21809     21808     21810
     21809     21808     21811     21810     21808     21811     21812     21811     21813
     21812     21811     21814     21813     21811     21814     21815     21816     21817
     21815     21816     21818     21815     21816     21831     21815     21819     21820
     21815     21819     21821     21815     21819     21822     21815     21823     21824
     21815     21823     21825     21815     21823     21826     21815     21827     21828
     21815     21827     21829     21815     21827     21830     21816     21815     21819
     21816     21815     21823     21816     21815     21827     21816     21831     21832
     21816     21831     21833     21816     21831     21837     21817     21816     21818
     21817     21816     21831     21818     21816     21831     21819     21815     21823
     21819     21815     21827     21820     21819     21821     21820     21819     21822
     21821     21819     21822     21823     21815     21827     21824     21823     21825
     21824     21823     21826     21825     21823     21826     21828     21827     21829
     21828     21827     21830     21829     21827     21830     21831     21837     21834
     21832     21831     21833     21832     21831     21837     21833     21831     21837
     21834     21838     21839     21835     21834     21836     21835     21834     21837
     21835     21834     21838     21836     21834     21837     21836     21834     21838
     21837     21834     21838     21838     21839     21840     21838     21839     21841
     21838     21839     21842     21839     21842     21843     21839     21842     21844
     21839     21842     21850     21840     21839     21841     21840     21839     21842
     21841     21839     21842     21842     21844     21845     21842     21850     21851
     21842     21850     21852     21842     21850     21853     21843     21842     21844
     21843     21842     21850     21844     21842     21850     21844     21845     21846
     21844     21845     21847     21845     21847     21848     21845     21847     21849
     21845     21847     21859     21846     21845     21847     21847     21859     21860
     21847     21859     21861     21847     21859     21862     21848     21847     21849
     21848     21847     21859     21849     21847     21859     21850     21853     21854
     21851     21850     21852     21851     21850     21853     21852     21850     21853
     21853     21854     21855     21853     21854     21856     21854     21856     21857
     21854     21856     21858     21854     21856     21906     21855     21854     21856
     21856     21906     21907     21856     21906     21908     21856     21906     21909
     21857     21856     21858     21857     21856     21906     21858     21856     21906
     21859     21862     21863     21859     21862     21864     21859     21862     21865
     21860     21859     21861     21860     21859     21862     21861     21859     21862
     21862     21865     21866     21862     21865     21867     21862     21865     21868
     21863     21862     21864     21863     21862     21865     21864     21862     21865
     21865     21868     21869     21865     21868     21870     21865     21868     21871
     21866     21865     21867     21866     21865     21868     21867     21865     21868
     21868     21871     21872     21868     21871     21873     21868     21871     21874
     21869     21868     21870     21869     21868     21871     21870     21868     21871
     21871     21874     21875     21871     21874     21876     21871     21874     21877
     21872     21871     21873     21872     21871     21874     21873     21871     21874
     21874     21877     21878     21874     21877     21879     21875     21874     21876
     21875     21874     21877     21876     21874     21877     21877     21879     21880
     21877     21879     21881     21878     21877     21879     21879     21881     21882
     21879     21881     21883     21879     21881     21884     21880     21879     21881
     21881     21884     21885     21881     21884     21886     21881     21884     21887
     21882     21881     21883     21882     21881     21884     21883     21881     21884
     21884     21887     21888     21884     21887     21889     21884     21887     21890
     21885     21884     21886     21885     21884     21887     21886     21884     21887
     21887     21890     21891     21887     21890     21892     21887     21890     21893
     21888     21887     21889     21888     21887     21890     21889     21887     21890
     21890     21893     21894     21890     21893     21895     21890     21893     21896
     21891     21890     21892     21891     21890     21893     21892     21890     21893
     21893     21896     21897     21893     21896     21898     21893     21896     21899
     21894     21893     21895     21894     21893     21896     21895     21893     21896
     21896     21899     21900     21896     21899     21901     21896     21899     21902
     21897     21896     21898     21897     21896     21899     21898     21896     21899
     21899     21902     21903     21899     21902     21904     21899     21902     21905
     21900     21899     21901     21900     21899     21902     21901     21899     21902
     21903     21902     21904     21903     21902     21905     21904     21902     21905
     21906     21909     21910     21906     21909     21911     21906     21909     21912
     21907     21906     21908     21907     21906     21909     21908     21906     21909
     21909     21912     21913     21909     21912     21914     21909     21912     21915
     21910     21909     21911     21910     21909     21912     21911     21909     21912
     21912     21915     21916     21912     21915     21917     21912     21915     21918
     21913     21912     21914     21913     21912     21915     21914     21912     21915
     21915     21918     21919     21915     21918     21920     21915     21918     21921
     21916     21915     21917     21916     21915     21918     21917     21915     21918
     21918     21921     21922     21918     21921     21923     21918     21921     21924
     21919     21918     21920     21919     21918     21921     21920     21918     21921
     21921     21924     21925     21921     21924     21926     21921     21924     21927
     21922     21921     21923     21922     21921     21924     21923     21921     21924
     21924     21927     21928     21924     21927     21929     21924     21927     21930
     21925     21924     21926     21925     21924     21927     21926     21924     21927
     21927     21930     21931     21927     21930     21932     21927     21930     21933
     21928     21927     21929     21928     21927     21930     21929     21927     21930
     21930     21933     21934     21930     21933     21935     21930     21933     21936
     21931     21930     21932     21931     21930     21933     21932     21930     21933
     21933     21936     21937     21933     21936     21938     21933     21936     21939
     21934     21933     21935     21934     21933     21936     21935     21933     21936
     21936     21939     21940     21936     21939     21941     21936     21939     21942
     21937     21936     21938     21937     21936     21939     21938     21936     21939
     21939     21942     21943     21939     21942     21944     21939     21942     21945
     21940     21939     21941     21940     21939     21942     21941     21939     21942
     21942     21945     21946     21942     21945     21947     21942     21945     21948
     21943     21942     21944     21943     21942     21945     21944     21942     21945
     21946     21945     21947     21946     21945     21948     21947     21945     21948
     21949     21950     21951     21949     21950     21952     21949     21950     21965
     21949     21953     21954     21949     21953     21955     21949     21953     21956
     21949     21957     21958     21949     21957     21959     21949     21957     21960
     21949     21961     21962     21949     21961     21963     21949     21961     21964
     21950     21949     21953     21950     21949     21957     21950     21949     21961
     21950     21965     21966     21950     21965     21967     21950     21965     21971
     21951     21950     21952     21951     21950     21965     21952     21950     21965
     21953     21949     21957     21953     21949     21961     21954     21953     21955
     21954     21953     21956     21955     21953     21956     21957     21949     21961
     21958     21957     21959     21958     21957     21960     21959     21957     21960
     21962     21961     21963     21962     21961     21964     21963     21961     21964
     21965     21971     21968     21966     21965     21967     21966     21965     21971
     21967     21965     21971     21968     21972     21973     21969     21968     21970
     21969     21968     21971     21969     21968     21972     21970     21968     21971
     21970     21968     21972     21971     21968     21972     21972     21973     21974
     21972     21973     21975     21972     21973     21976     21973     21976     21977
     21973     21976     21978     21973     21976     21984     21974     21973     21975
     21974     21973     21976     21975     21973     21976     21976     21978     21979
     21976     21984     21985     21976     21984     21986     21976     21984     21987
     21977     21976     21978     21977     21976     21984     21978     21976     21984
     21978     21979     21980     21978     21979     21981     21979     21981     21982
     21979     21981     21983     21979     21981     21993     21980     21979     21981
     21981     21993     21994     21981     21993     21995     21981     21993     21996
     21982     21981     21983     21982     21981     21993     21983     21981     21993
     21984     21987     21988     21985     21984     21986     21985     21984     21987
     21986     21984     21987     21987     21988     21989     21987     21988     21990
     21988     21990     21991     21988     21990     21992     21988     21990     22040
     21989     21988     21990     21990     22040     22041     21990     22040     22042
     21990     22040     22043     21991     21990     21992     21991     21990     22040
     21992     21990     22040     21993     21996     21997     21993     21996     21998
     21993     21996     21999     21994     21993     21995     21994     21993     21996
     21995     21993     21996     21996     21999     22000     21996     21999     22001
     21996     21999     22002     21997     21996     21998     21997     21996     21999
     21998     21996     21999     21999     22002     22003     21999     22002     22004
     21999     22002     22005     22000     21999     22001     22000     21999     22002
     22001     21999     22002     22002     22005     22006     22002     22005     22007
     22002     22005     22008     22003     22002     22004     22003     22002     22005
     22004     22002     22005     22005     22008     22009     22005     22008     22010
     22005     22008     22011     22006     22005     22007     22006     22005     22008
     22007     22005     22008     22008     22011     22012     22008     22011     22013
     22009     22008     22010     22009     22008     22011     22010     22008     22011
     22011     22013     22014     22011     22013     22015     22012     22011     22013
     22013     22015     22016     22013     22015     22017     22013     22015     22018
     22014     22013     22015     22015     22018     22019     22015     22018     22020
     22015     22018     22021     22016     22015     22017     22016     22015     22018
     22017     22015     22018     22018     22021     22022     22018     22021     22023
     22018     22021     22024     22019     22018     22020     22019     22018     22021
     22020     22018     22021     22021     22024     22025     22021     22024     22026
     22021     22024     22027     22022     22021     22023     22022     22021     22024
     22023     22021     22024     22024     22027     22028     22024     22027     22029
     22024     22027     22030     22025     22024     22026     22025     22024     22027
     22026     22024     22027     22027     22030     22031     22027     22030     22032
     22027     22030     22033     22028     22027     22029     22028     22027     22030
     22029     22027     22030     22030     22033     22034     22030     22033     22035
     22030     22033     22036     22031     22030     22032     22031     22030     22033
     22032     22030     22033     22033     22036     22037     22033     22036     22038
     22033     22036     22039     22034     22033     22035     22034     22033     22036
     22035     22033     22036     22037     22036     22038     22037     22036     22039
     22038     22036     22039     22040     22043     22044     22040     22043     22045
     22040     22043     22046     22041     22040     22042     22041     22040     22043
     22042     22040     22043     22043     22046     22047     22043     22046     22048
     22043     22046     22049     22044     22043     22045     22044     22043     22046
     22045     22043     22046     22046     22049     22050     22046     22049     22051
     22046     22049     22052     22047     22046     22048     22047     22046     22049
     22048     22046     22049     22049     22052     22053     22049     22052     22054
     22049     22052     22055     22050     22049     22051     22050     22049     22052
     22051     22049     22052     22052     22055     22056     22052     22055     22057
     22052     22055     22058     22053     22052     22054     22053     22052     22055
     22054     22052     22055     22055     22058     22059     22055     22058     22060
     22055     22058     22061     22056     22055     22057     22056     22055     22058
     22057     22055     22058     22058     22061     22062     22058     22061     22063
     22058     22061     22064     22059     22058     22060     22059     22058     22061
     22060     22058     22061     22061     22064     22065     22061     22064     22066
     22061     22064     22067     22062     22061     22063     22062     22061     22064
     22063     22061     22064     22064     22067     22068     22064     22067     22069
     22064     22067     22070     22065     22064     22066     22065     22064     22067
     22066     22064     22067     22067     22070     22071     22067     22070     22072
     22067     22070     22073     22068     22067     22069     22068     22067     22070
     22069     22067     22070     22070     22073     22074     22070     22073     22075
     22070     22073     22076     22071     22070     22072     22071     22070     22073
     22072     22070     22073     22073     22076     22077     22073     22076     22078
     22073     22076     22079     22074     22073     22075     22074     22073     22076
     22075     22073     22076     22076     22079     22080     22076     22079     22081
     22076     22079     22082     22077     22076     22078     22077     22076     22079
     22078     22076     22079     22080     22079     22081     22080     22079     22082
     22081     22079     22082     22083     22084     22085     22083     22084     22086
     22083     22084     22099     22083     22087     22088     22083     22087     22089
     22083     22087     22090     22083     22091     22092     22083     22091     22093
     22083     22091     22094     22083     22095     22096     22083     22095     22097
     22083     22095     22098     22084     22083     22087     22084     22083     22091
     22084     22083     22095     22084     22099     22100     22084     22099     22101
     22084     22099     22105     22085     22084     22086     22085     22084     22099
     22086     22084     22099     22087     22083     22091     22087     22083     22095
     22088     22087     22089     22088     22087     22090     22089     22087     22090
     22091     22083     22095     22092     22091     22093     22092     22091     22094
     22093     22091     22094     22096     22095     22097     22096     22095     22098
     22097     22095     22098     22099     22105     22102     22100     22099     22101
     22100     22099     22105     22101     22099     22105     22102     22106     22107
     22103     22102     22104     22103     22102     22105     22103     22102     22106
     22104     22102     22105     22104     22102     22106     22105     22102     22106
     22106     22107     22108     22106     22107     22109     22106     22107     22110
     22107     22110     22111     22107     22110     22112     22107     22110     22118
     22108     22107     22109     22108     22107     22110     22109     22107     22110
     22110     22112     22113     22110     22118     22119     22110     22118     22120
     22110     22118     22121     22111     22110     22112     22111     22110     22118
     22112     22110     22118     22112     22113     22114     22112     22113     22115
     22113     22115     22116     22113     22115     22117     22113     22115     22127
     22114     22113     22115     22115     22127     22128     22115     22127     22129
     22115     22127     22130     22116     22115     22117     22116     22115     22127
     22117     22115     22127     22118     22121     22122     22119     22118     22120
     22119     22118     22121     22120     22118     22121     22121     22122     22123
     22121     22122     22124     22122     22124     22125     22122     22124     22126
     22122     22124     22174     22123     22122     22124     22124     22174     22175
     22124     22174     22176     22124     22174     22177     22125     22124     22126
     22125     22124     22174     22126     22124     22174     22127     22130     22131
     22127     22130     22132     22127     22130     22133     22128     22127     22129
     22128     22127     22130     22129     22127     22130     22130     22133     22134
     22130     22133     22135     22130     22133     22136     22131     22130     22132
     22131     22130     22133     22132     22130     22133     22133     22136     22137
     22133     22136     22138     22133     22136     22139     22134     22133     22135
     22134     22133     22136     22135     22133     22136     22136     22139     22140
     22136     22139     22141     22136     22139     22142     22137     22136     22138
     22137     22136     22139     22138     22136     22139     22139     22142     22143
     22139     22142     22144     22139     22142     22145     22140     22139     22141
     22140     22139     22142     22141     22139     22142     22142     22145     22146
     22142     22145     22147     22143     22142     22144     22143     22142     22145
     22144     22142     22145     22145     22147     22148     22145     22147     22149
     22146     22145     22147     22147     22149     22150     22147     22149     22151
     22147     22149     22152     22148     22147     22149     22149     22152     22153
     22149     22152     22154     22149     22152     22155     22150     22149     22151
     22150     22149     22152     22151     22149     22152     22152     22155     22156
     22152     22155     22157     22152     22155     22158     22153     22152     22154
     22153     22152     22155     22154     22152     22155     22155     22158     22159
     22155     22158     22160     22155     22158     22161     22156     22155     22157
     22156     22155     22158     22157     22155     22158     22158     22161     22162
     22158     22161     22163     22158     22161     22164     22159     22158     22160
     22159     22158     22161     22160     22158     22161     22161     22164     22165
     22161     22164     22166     22161     22164     22167     22162     22161     22163
     22162     22161     22164     22163     22161     22164     22164     22167     22168
     22164     22167     22169     22164     22167     22170     22165     22164     22166
     22165     22164     22167     22166     22164     22167     22167     22170     22171
     22167     22170     22172     22167     22170     22173     22168     22167     22169
     22168     22167     22170     22169     22167     22170     22171     22170     22172
     22171     22170     22173     22172     22170     22173     22174     22177     22178
     22174     22177     22179     22174     22177     22180     22175     22174     22176
     22175     22174     22177     22176     22174     22177     22177     22180     22181
     22177     22180     22182     22177     22180     22183     22178     22177     22179
     22178     22177     22180     22179     22177     22180     22180     22183     22184
     22180     22183     22185     22180     22183     22186     22181     22180     22182
     22181     22180     22183     22182     22180     22183     22183     22186     22187
     22183     22186     22188     22183     22186     22189     22184     22183     22185
     22184     22183     22186     22185     22183     22186     22186     22189     22190
     22186     22189     22191     22186     22189     22192     22187     22186     22188
     22187     22186     22189     22188     22186     22189     22189     22192     22193
     22189     22192     22194     22189     22192     22195     22190     22189     22191
     22190     22189     22192     22191     22189     22192     22192     22195     22196
     22192     22195     22197     22192     22195     22198     22193     22192     22194
     22193     22192     22195     22194     22192     22195     22195     22198     22199
     22195     22198     22200     22195     22198     22201     22196     22195     22197
     22196     22195     22198     22197     22195     22198     22198     22201     22202
     22198     22201     22203     22198     22201     22204     22199     22198     22200
     22199     22198     22201     22200     22198     22201     22201     22204     22205
     22201     22204     22206     22201     22204     22207     22202     22201     22203
     22202     22201     22204     22203     22201     22204     22204     22207     22208
     22204     22207     22209     22204     22207     22210     22205     22204     22206
     22205     22204     22207     22206     22204     22207     22207     22210     22211
     22207     22210     22212     22207     22210     22213     22208     22207     22209
     22208     22207     22210     22209     22207     22210     22210     22213     22214
     22210     22213     22215     22210     22213     22216     22211     22210     22212
     22211     22210     22213     22212     22210     22213     22214     22213     22215
     22214     22213     22216     22215     22213     22216     22217     22218     22219
     22217     22218     22220     22217     22218     22233     22217     22221     22222
     22217     22221     22223     22217     22221     22224     22217     22225     22226
     22217     22225     22227     22217     22225     22228     22217     22229     22230
     22217     22229     22231     22217     22229     22232     22218     22217     22221
     22218     22217     22225     22218     22217     22229     22218     22233     22234
     22218     22233     22235     22218     22233     22239     22219     22218     22220
     22219     22218     22233     22220     22218     22233     22221     22217     22225
     22221     22217     22229     22222     22221     22223     22222     22221     22224
     22223     22221     22224     22225     22217     22229     22226     22225     22227
     22226     22225     22228     22227     22225     22228     22230     22229     22231
     22230     22229     22232     22231     22229     22232     22233     22239     22236
     22234     22233     22235     22234     22233     22239     22235     22233     22239
     22236     22240     22241     22237     22236     22238     22237     22236     22239
     22237     22236     22240     22238     22236     22239     22238     22236     22240
     22239     22236     22240     22240     22241     22242     22240     22241     22243
     22240     22241     22244     22241     22244     22245     22241     22244     22246
     22241     22244     22252     22242     22241     22243     22242     22241     22244
     22243     22241     22244     22244     22246     22247     22244     22252     22253
     22244     22252     22254     22244     22252     22255     22245     22244     22246
     22245     22244     22252     22246     22244     22252     22246     22247     22248
     22246     22247     22249     22247     22249     22250     22247     22249     22251
     22247     22249     22261     22248     22247     22249     22249     22261     22262
     22249     22261     22263     22249     22261     22264     22250     22249     22251
     22250     22249     22261     22251     22249     22261     22252     22255     22256
     22253     22252     22254     22253     22252     22255     22254     22252     22255
     22255     22256     22257     22255     22256     22258     22256     22258     22259
     22256     22258     22260     22256     22258     22308     22257     22256     22258
     22258     22308     22309     22258     22308     22310     22258     22308     22311
     22259     22258     22260     22259     22258     22308     22260     22258     22308
     22261     22264     22265     22261     22264     22266     22261     22264     22267
     22262     22261     22263     22262     22261     22264     22263     22261     22264
     22264     22267     22268     22264     22267     22269     22264     22267     22270
     22265     22264     22266     22265     22264     22267     22266     22264     22267
     22267     22270     22271     22267     22270     22272     22267     22270     22273
     22268     22267     22269     22268     22267     22270     22269     22267     22270
     22270     22273     22274     22270     22273     22275     22270     22273     22276
     22271     22270     22272     22271     22270     22273     22272     22270     22273
     22273     22276     22277     22273     22276     22278     22273     22276     22279
     22274     22273     22275     22274     22273     22276     22275     22273     22276
     22276     22279     22280     22276     22279     22281     22277     22276     22278
     22277     22276     22279     22278     22276     22279     22279     22281     22282
     22279     22281     22283     22280     22279     22281     22281     22283     22284
     22281     22283     22285     22281     22283     22286     22282     22281     22283
     22283     22286     22287     22283     22286     22288     22283     22286     22289
     22284     22283     22285     22284     22283     22286     22285     22283     22286
     22286     22289     22290     22286     22289     22291     22286     22289     22292
     22287     22286     22288     22287     22286     22289     22288     22286     22289
     22289     22292     22293     22289     22292     22294     22289     22292     22295
     22290     22289     22291     22290     22289     22292     22291     22289     22292
     22292     22295     22296     22292     22295     22297     22292     22295     22298
     22293     22292     22294     22293     22292     22295     22294     22292     22295
     22295     22298     22299     22295     22298     22300     22295     22298     22301
     22296     22295     22297     22296     22295     22298     22297     22295     22298
     22298     22301     22302     22298     22301     22303     22298     22301     22304
     22299     22298     22300     22299     22298     22301     22300     22298     22301
     22301     22304     22305     22301     22304     22306     22301     22304     22307
     22302     22301     22303     22302     22301     22304     22303     22301     22304
     22305     22304     22306     22305     22304     22307     22306     22304     22307
     22308     22311     22312     22308     22311     22313     22308     22311     22314
     22309     22308     22310     22309     22308     22311     22310     22308     22311
     22311     22314     22315     22311     22314     22316     22311     22314     22317
     22312     22311     22313     22312     22311     22314     22313     22311     22314
     22314     22317     22318     22314     22317     22319     22314     22317     22320
     22315     22314     22316     22315     22314     22317     22316     22314     22317
     22317     22320     22321     22317     22320     22322     22317     22320     22323
     22318     22317     22319     22318     22317     22320     22319     22317     22320
     22320     22323     22324     22320     22323     22325     22320     22323     22326
     22321     22320     22322     22321     22320     22323     22322     22320     22323
     22323     22326     22327     22323     22326     22328     22323     22326     22329
     22324     22323     22325     22324     22323     22326     22325     22323     22326
     22326     22329     22330     22326     22329     22331     22326     22329     22332
     22327     22326     22328     22327     22326     22329     22328     22326     22329
     22329     22332     22333     22329     22332     22334     22329     22332     22335
     22330     22329     22331     22330     22329     22332     22331     22329     22332
     22332     22335     22336     22332     22335     22337     22332     22335     22338
     22333     22332     22334     22333     22332     22335     22334     22332     22335
     22335     22338     22339     22335     22338     22340     22335     22338     22341
     22336     22335     22337     22336     22335     22338     22337     22335     22338
     22338     22341     22342     22338     22341     22343     22338     22341     22344
     22339     22338     22340     22339     22338     22341     22340     22338     22341
     22341     22344     22345     22341     22344     22346     22341     22344     22347
     22342     22341     22343     22342     22341     22344     22343     22341     22344
     22344     22347     22348     22344     22347     22349     22344     22347     22350
     22345     22344     22346     22345     22344     22347     22346     22344     22347
     22348     22347     22349     22348     22347     22350     22349     22347     22350
     22351     22352     22353     22351     22352     22354     22351     22352     22367
     22351     22355     22356     22351     22355     22357     22351     22355     22358
     22351     22359     22360     22351     22359     22361     22351     22359     22362
     22351     22363     22364     22351     22363     22365     22351     22363     22366
     22352     22351     22355     22352     22351     22359     22352     22351     22363
     22352     22367     22368     22352     22367     22369     22352     22367     22373
     22353     22352     22354     22353     22352     22367     22354     22352     22367
     22355     22351     22359     22355     22351     22363     22356     22355     22357
     22356     22355     22358     22357     22355     22358     22359     22351     22363
     22360     22359     22361     22360     22359     22362     22361     22359     22362
     22364     22363     22365     22364     22363     22366     22365     22363     22366
     22367     22373     22370     22368     22367     22369     22368     22367     22373
     22369     22367     22373     22370     22374     22375     22371     22370     22372
     22371     22370     22373     22371     22370     22374     22372     22370     22373
     22372     22370     22374     22373     22370     22374     22374     22375     22376
     22374     22375     22377     22374     22375     22378     22375     22378     22379
     22375     22378     22380     22375     22378     22386     22376     22375     22377
     22376     22375     22378     22377     22375     22378     22378     22380     22381
     22378     22386     22387     22378     22386     22388     22378     22386     22389
     22379     22378     22380     22379     22378     22386     22380     22378     22386
     22380     22381     22382     22380     22381     22383     22381     22383     22384
     22381     22383     22385     22381     22383     22395     22382     22381     22383
     22383     22395     22396     22383     22395     22397     22383     22395     22398
     22384     22383     22385     22384     22383     22395     22385     22383     22395
     22386     22389     22390     22387     22386     22388     22387     22386     22389
     22388     22386     22389     22389     22390     22391     22389     22390     22392
     22390     22392     22393     22390     22392     22394     22390     22392     22442
     22391     22390     22392     22392     22442     22443     22392     22442     22444
     22392     22442     22445     22393     22392     22394     22393     22392     22442
     22394     22392     22442     22395     22398     22399     22395     22398     22400
     22395     22398     22401     22396     22395     22397     22396     22395     22398
     22397     22395     22398     22398     22401     22402     22398     22401     22403
     22398     22401     22404     22399     22398     22400     22399     22398     22401
     22400     22398     22401     22401     22404     22405     22401     22404     22406
     22401     22404     22407     22402     22401     22403     22402     22401     22404
     22403     22401     22404     22404     22407     22408     22404     22407     22409
     22404     22407     22410     22405     22404     22406     22405     22404     22407
     22406     22404     22407     22407     22410     22411     22407     22410     22412
     22407     22410     22413     22408     22407     22409     22408     22407     22410
     22409     22407     22410     22410     22413     22414     22410     22413     22415
     22411     22410     22412     22411     22410     22413     22412     22410     22413
     22413     22415     22416     22413     22415     22417     22414     22413     22415
     22415     22417     22418     22415     22417     22419     22415     22417     22420
     22416     22415     22417     22417     22420     22421     22417     22420     22422
     22417     22420     22423     22418     22417     22419     22418     22417     22420
     22419     22417     22420     22420     22423     22424     22420     22423     22425
     22420     22423     22426     22421     22420     22422     22421     22420     22423
     22422     22420     22423     22423     22426     22427     22423     22426     22428
     22423     22426     22429     22424     22423     22425     22424     22423     22426
     22425     22423     22426     22426     22429     22430     22426     22429     22431
     22426     22429     22432     22427     22426     22428     22427     22426     22429
     22428     22426     22429     22429     22432     22433     22429     22432     22434
     22429     22432     22435     22430     22429     22431     22430     22429     22432
     22431     22429     22432     22432     22435     22436     22432     22435     22437
     22432     22435     22438     22433     22432     22434     22433     22432     22435
     22434     22432     22435     22435     22438     22439     22435     22438     22440
     22435     22438     22441     22436     22435     22437     22436     22435     22438
     22437     22435     22438     22439     22438     22440     22439     22438     22441
     22440     22438     22441     22442     22445     22446     22442     22445     22447
     22442     22445     22448     22443     22442     22444     22443     22442     22445
     22444     22442     22445     22445     22448     22449     22445     22448     22450
     22445     22448     22451     22446     22445     22447     22446     22445     22448
     22447     22445     22448     22448     22451     22452     22448     22451     22453
     22448     22451     22454     22449     22448     22450     22449     22448     22451
     22450     22448     22451     22451     22454     22455     22451     22454     22456
     22451     22454     22457     22452     22451     22453     22452     22451     22454
     22453     22451     22454     22454     22457     22458     22454     22457     22459
     22454     22457     22460     22455     22454     22456     22455     22454     22457
     22456     22454     22457     22457     22460     22461     22457     22460     22462
     22457     22460     22463     22458     22457     22459     22458     22457     22460
     22459     22457     22460     22460     22463     22464     22460     22463     22465
     22460     22463     22466     22461     22460     22462     22461     22460     22463
     22462     22460     22463     22463     22466     22467     22463     22466     22468
     22463     22466     22469     22464     22463     22465     22464     22463     22466
     22465     22463     22466     22466     22469     22470     22466     22469     22471
     22466     22469     22472     22467     22466     22468     22467     22466     22469
     22468     22466     22469     22469     22472     22473     22469     22472     22474
     22469     22472     22475     22470     22469     22471     22470     22469     22472
     22471     22469     22472     22472     22475     22476     22472     22475     22477
     22472     22475     22478     22473     22472     22474     22473     22472     22475
     22474     22472     22475     22475     22478     22479     22475     22478     22480
     22475     22478     22481     22476     22475     22477     22476     22475     22478
     22477     22475     22478     22478     22481     22482     22478     22481     22483
     22478     22481     22484     22479     22478     22480     22479     22478     22481
     22480     22478     22481     22482     22481     22483     22482     22481     22484
     22483     22481     22484     22485     22486     22487     22485     22486     22488
     22485     22486     22501     22485     22489     22490     22485     22489     22491
     22485     22489     22492     22485     22493     22494     22485     22493     22495
     22485     22493     22496     22485     22497     22498     22485     22497     22499
     22485     22497     22500     22486     22485     22489     22486     22485     22493
     22486     22485     22497     22486     22501     22502     22486     22501     22503
     22486     22501     22507     22487     22486     22488     22487     22486     22501
     22488     22486     22501     22489     22485     22493     22489     22485     22497
     22490     22489     22491     22490     22489     22492     22491     22489     22492
     22493     22485     22497     22494     22493     22495     22494     22493     22496
     22495     22493     22496     22498     22497     22499     22498     22497     22500
     22499     22497     22500     22501     22507     22504     22502     22501     22503
     22502     22501     22507     22503     22501     22507     22504     22508     22509
     22505     22504     22506     22505     22504     22507     22505     22504     22508
     22506     22504     22507     22506     22504     22508     22507     22504     22508
     22508     22509     22510     22508     22509     22511     22508     22509     22512
     22509     22512     22513     22509     22512     22514     22509     22512     22520
     22510     22509     22511     22510     22509     22512     22511     22509     22512
     22512     22514     22515     22512     22520     22521     22512     22520     22522
     22512     22520     22523     22513     22512     22514     22513     22512     22520
     22514     22512     22520     22514     22515     22516     22514     22515     22517
     22515     22517     22518     22515     22517     22519     22515     22517     22529
     22516     22515     22517     22517     22529     22530     22517     22529     22531
     22517     22529     22532     22518     22517     22519     22518     22517     22529
     22519     22517     22529     22520     22523     22524     22521     22520     22522
     22521     22520     22523     22522     22520     22523     22523     22524     22525
     22523     22524     22526     22524     22526     22527     22524     22526     22528
     22524     22526     22576     22525     22524     22526     22526     22576     22577
     22526     22576     22578     22526     22576     22579     22527     22526     22528
     22527     22526     22576     22528     22526     22576     22529     22532     22533
     22529     22532     22534     22529     22532     22535     22530     22529     22531
     22530     22529     22532     22531     22529     22532     22532     22535     22536
     22532     22535     22537     22532     22535     22538     22533     22532     22534
     22533     22532     22535     22534     22532     22535     22535     22538     22539
     22535     22538     22540     22535     22538     22541     22536     22535     22537
     22536     22535     22538     22537     22535     22538     22538     22541     22542
     22538     22541     22543     22538     22541     22544     22539     22538     22540
     22539     22538     22541     22540     22538     22541     22541     22544     22545
     22541     22544     22546     22541     22544     22547     22542     22541     22543
     22542     22541     22544     22543     22541     22544     22544     22547     22548
     22544     22547     22549     22545     22544     22546     22545     22544     22547
     22546     22544     22547     22547     22549     22550     22547     22549     22551
     22548     22547     22549     22549     22551     22552     22549     22551     22553
     22549     22551     22554     22550     22549     22551     22551     22554     22555
     22551     22554     22556     22551     22554     22557     22552     22551     22553
     22552     22551     22554     22553     22551     22554     22554     22557     22558
     22554     22557     22559     22554     22557     22560     22555     22554     22556
     22555     22554     22557     22556     22554     22557     22557     22560     22561
     22557     22560     22562     22557     22560     22563     22558     22557     22559
     22558     22557     22560     22559     22557     22560     22560     22563     22564
     22560     22563     22565     22560     22563     22566     22561     22560     22562
     22561     22560     22563     22562     22560     22563     22563     22566     22567
     22563     22566     22568     22563     22566     22569     22564     22563     22565
     22564     22563     22566     22565     22563     22566     22566     22569     22570
     22566     22569     22571     22566     22569     22572     22567     22566     22568
     22567     22566     22569     22568     22566     22569     22569     22572     22573
     22569     22572     22574     22569     22572     22575     22570     22569     22571
     22570     22569     22572     22571     22569     22572     22573     22572     22574
     22573     22572     22575     22574     22572     22575     22576     22579     22580
     22576     22579     22581     22576     22579     22582     22577     22576     22578
     22577     22576     22579     22578     22576     22579     22579     22582     22583
     22579     22582     22584     22579     22582     22585     22580     22579     22581
     22580     22579     22582     22581     22579     22582     22582     22585     22586
     22582     22585     22587     22582     22585     22588     22583     22582     22584
     22583     22582     22585     22584     22582     22585     22585     22588     22589
     22585     22588     22590     22585     22588     22591     22586     22585     22587
     22586     22585     22588     22587     22585     22588     22588     22591     22592
     22588     22591     22593     22588     22591     22594     22589     22588     22590
     22589     22588     22591     22590     22588     22591     22591     22594     22595
     22591     22594     22596     22591     22594     22597     22592     22591     22593
     22592     22591     22594     22593     22591     22594     22594     22597     22598
     22594     22597     22599     22594     22597     22600     22595     22594     22596
     22595     22594     22597     22596     22594     22597     22597     22600     22601
     22597     22600     22602     22597     22600     22603     22598     22597     22599
     22598     22597     22600     22599     22597     22600     22600     22603     22604
     22600     22603     22605     22600     22603     22606     22601     22600     22602
     22601     22600     22603     22602     22600     22603     22603     22606     22607
     22603     22606     22608     22603     22606     22609     22604     22603     22605
     22604     22603     22606     22605     22603     22606     22606     22609     22610
     22606     22609     22611     22606     22609     22612     22607     22606     22608
     22607     22606     22609     22608     22606     22609     22609     22612     22613
     22609     22612     22614     22609     22612     22615     22610     22609     22611
     22610     22609     22612     22611     22609     22612     22612     22615     22616
     22612     22615     22617     22612     22615     22618     22613     22612     22614
     22613     22612     22615     22614     22612     22615     22616     22615     22617
     22616     22615     22618     22617     22615     22618     22619     22620     22621
     22619     22620     22622     22619     22620     22635     22619     22623     22624
     22619     22623     22625     22619     22623     22626     22619     22627     22628
     22619     22627     22629     22619     22627     22630     22619     22631     22632
     22619     22631     22633     22619     22631     22634     22620     22619     22623
     22620     22619     22627     22620     22619     22631     22620     22635     22636
     22620     22635     22637     22620     22635     22641     22621     22620     22622
     22621     22620     22635     22622     22620     22635     22623     22619     22627
     22623     22619     22631     22624     22623     22625     22624     22623     22626
     22625     22623     22626     22627     22619     22631     22628     22627     22629
     22628     22627     22630     22629     22627     22630     22632     22631     22633
     22632     22631     22634     22633     22631     22634     22635     22641     22638
     22636     22635     22637     22636     22635     22641     22637     22635     22641
     22638     22642     22643     22639     22638     22640     22639     22638     22641
     22639     22638     22642     22640     22638     22641     22640     22638     22642
     22641     22638     22642     22642     22643     22644     22642     22643     22645
     22642     22643     22646     22643     22646     22647     22643     22646     22648
     22643     22646     22654     22644     22643     22645     22644     22643     22646
     22645     22643     22646     22646     22648     22649     22646     22654     22655
     22646     22654     22656     22646     22654     22657     22647     22646     22648
     22647     22646     22654     22648     22646     22654     22648     22649     22650
     22648     22649     22651     22649     22651     22652     22649     22651     22653
     22649     22651     22663     22650     22649     22651     22651     22663     22664
     22651     22663     22665     22651     22663     22666     22652     22651     22653
     22652     22651     22663     22653     22651     22663     22654     22657     22658
     22655     22654     22656     22655     22654     22657     22656     22654     22657
     22657     22658     22659     22657     22658     22660     22658     22660     22661
     22658     22660     22662     22658     22660     22710     22659     22658     22660
     22660     22710     22711     22660     22710     22712     22660     22710     22713
     22661     22660     22662     22661     22660     22710     22662     22660     22710
     22663     22666     22667     22663     22666     22668     22663     22666     22669
     22664     22663     22665     22664     22663     22666     22665     22663     22666
     22666     22669     22670     22666     22669     22671     22666     22669     22672
     22667     22666     22668     22667     22666     22669     22668     22666     22669
     22669     22672     22673     22669     22672     22674     22669     22672     22675
     22670     22669     22671     22670     22669     22672     22671     22669     22672
     22672     22675     22676     22672     22675     22677     22672     22675     22678
     22673     22672     22674     22673     22672     22675     22674     22672     22675
     22675     22678     22679     22675     22678     22680     22675     22678     22681
     22676     22675     22677     22676     22675     22678     22677     22675     22678
     22678     22681     22682     22678     22681     22683     22679     22678     22680
     22679     22678     22681     22680     22678     22681     22681     22683     22684
     22681     22683     22685     22682     22681     22683     22683     22685     22686
     22683     22685     22687     22683     22685     22688     22684     22683     22685
     22685     22688     22689     22685     22688     22690     22685     22688     22691
     22686     22685     22687     22686     22685     22688     22687     22685     22688
     22688     22691     22692     22688     22691     22693     22688     22691     22694
     22689     22688     22690     22689     22688     22691     22690     22688     22691
     22691     22694     22695     22691     22694     22696     22691     22694     22697
     22692     22691     22693     22692     22691     22694     22693     22691     22694
     22694     22697     22698     22694     22697     22699     22694     22697     22700
     22695     22694     22696     22695     22694     22697     22696     22694     22697
     22697     22700     22701     22697     22700     22702     22697     22700     22703
     22698     22697     22699     22698     22697     22700     22699     22697     22700
     22700     22703     22704     22700     22703     22705     22700     22703     22706
     22701     22700     22702     22701     22700     22703     22702     22700     22703
     22703     22706     22707     22703     22706     22708     22703     22706     22709
     22704     22703     22705     22704     22703     22706     22705     22703     22706
     22707     22706     22708     22707     22706     22709     22708     22706     22709
     22710     22713     22714     22710     22713     22715     22710     22713     22716
     22711     22710     22712     22711     22710     22713     22712     22710     22713
     22713     22716     22717     22713     22716     22718     22713     22716     22719
     22714     22713     22715     22714     22713     22716     22715     22713     22716
     22716     22719     22720     22716     22719     22721     22716     22719     22722
     22717     22716     22718     22717     22716     22719     22718     22716     22719
     22719     22722     22723     22719     22722     22724     22719     22722     22725
     22720     22719     22721     22720     22719     22722     22721     22719     22722
     22722     22725     22726     22722     22725     22727     22722     22725     22728
     22723     22722     22724     22723     22722     22725     22724     22722     22725
     22725     22728     22729     22725     22728     22730     22725     22728     22731
     22726     22725     22727     22726     22725     22728     22727     22725     22728
     22728     22731     22732     22728     22731     22733     22728     22731     22734
     22729     22728     22730     22729     22728     22731     22730     22728     22731
     22731     22734     22735     22731     22734     22736     22731     22734     22737
     22732     22731     22733     22732     22731     22734     22733     22731     22734
     22734     22737     22738     22734     22737     22739     22734     22737     22740
     22735     22734     22736     22735     22734     22737     22736     22734     22737
     22737     22740     22741     22737     22740     22742     22737     22740     22743
     22738     22737     22739     22738     22737     22740     22739     22737     22740
     22740     22743     22744     22740     22743     22745     22740     22743     22746
     22741     22740     22742     22741     22740     22743     22742     22740     22743
     22743     22746     22747     22743     22746     22748     22743     22746     22749
     22744     22743     22745     22744     22743     22746     22745     22743     22746
     22746     22749     22750     22746     22749     22751     22746     22749     22752
     22747     22746     22748     22747     22746     22749     22748     22746     22749
     22750     22749     22751     22750     22749     22752     22751     22749     22752
     22753     22754     22755     22753     22754     22756     22753     22754     22769
     22753     22757     22758     22753     22757     22759     22753     22757     22760
     22753     22761     22762     22753     22761     22763     22753     22761     22764
     22753     22765     22766     22753     22765     22767     22753     22765     22768
     22754     22753     22757     22754     22753     22761     22754     22753     22765
     22754     22769     22770     22754     22769     22771     22754     22769     22775
     22755     22754     22756     22755     22754     22769     22756     22754     22769
     22757     22753     22761     22757     22753     22765     22758     22757     22759
     22758     22757     22760     22759     22757     22760     22761     22753     22765
     22762     22761     22763     22762     22761     22764     22763     22761     22764
     22766     22765     22767     22766     22765     22768     22767     22765     22768
     22769     22775     22772     22770     22769     22771     22770     22769     22775
     22771     22769     22775     22772     22776     22777     22773     22772     22774
     22773     22772     22775     22773     22772     22776     22774     22772     22775
     22774     22772     22776     22775     22772     22776     22776     22777     22778
     22776     22777     22779     22776     22777     22780     22777     22780     22781
     22777     22780     22782     22777     22780     22788     22778     22777     22779
     22778     22777     22780     22779     22777     22780     22780     22782     22783
     22780     22788     22789     22780     22788     22790     22780     22788     22791
     22781     22780     22782     22781     22780     22788     22782     22780     22788
     22782     22783     22784     22782     22783     22785     22783     22785     22786
     22783     22785     22787     22783     22785     22797     22784     22783     22785
     22785     22797     22798     22785     22797     22799     22785     22797     22800
     22786     22785     22787     22786     22785     22797     22787     22785     22797
     22788     22791     22792     22789     22788     22790     22789     22788     22791
     22790     22788     22791     22791     22792     22793     22791     22792     22794
     22792     22794     22795     22792     22794     22796     22792     22794     22844
     22793     22792     22794     22794     22844     22845     22794     22844     22846
     22794     22844     22847     22795     22794     22796     22795     22794     22844
     22796     22794     22844     22797     22800     22801     22797     22800     22802
     22797     22800     22803     22798     22797     22799     22798     22797     22800
     22799     22797     22800     22800     22803     22804     22800     22803     22805
     22800     22803     22806     22801     22800     22802     22801     22800     22803
     22802     22800     22803     22803     22806     22807     22803     22806     22808
     22803     22806     22809     22804     22803     22805     22804     22803     22806
     22805     22803     22806     22806     22809     22810     22806     22809     22811
     22806     22809     22812     22807     22806     22808     22807     22806     22809
     22808     22806     22809     22809     22812     22813     22809     22812     22814
     22809     22812     22815     22810     22809     22811     22810     22809     22812
     22811     22809     22812     22812     22815     22816     22812     22815     22817
     22813     22812     22814     22813     22812     22815     22814     22812     22815
     22815     22817     22818     22815     22817     22819     22816     22815     22817
     22817     22819     22820     22817     22819     22821     22817     22819     22822
     22818     22817     22819     22819     22822     22823     22819     22822     22824
     22819     22822     22825     22820     22819     22821     22820     22819     22822
     22821     22819     22822     22822     22825     22826     22822     22825     22827
     22822     22825     22828     22823     22822     22824     22823     22822     22825
     22824     22822     22825     22825     22828     22829     22825     22828     22830
     22825     22828     22831     22826     22825     22827     22826     22825     22828
     22827     22825     22828     22828     22831     22832     22828     22831     22833
     22828     22831     22834     22829     22828     22830     22829     22828     22831
     22830     22828     22831     22831     22834     22835     22831     22834     22836
     22831     22834     22837     22832     22831     22833     22832     22831     22834
     22833     22831     22834     22834     22837     22838     22834     22837     22839
     22834     22837     22840     22835     22834     22836     22835     22834     22837
     22836     22834     22837     22837     22840     22841     22837     22840     22842
     22837     22840     22843     22838     22837     22839     22838     22837     22840
     22839     22837     22840     22841     22840     22842     22841     22840     22843
     22842     22840     22843     22844     22847     22848     22844     22847     22849
     22844     22847     22850     22845     22844     22846     22845     22844     22847
     22846     22844     22847     22847     22850     22851     22847     22850     22852
     22847     22850     22853     22848     22847     22849     22848     22847     22850
     22849     22847     22850     22850     22853     22854     22850     22853     22855
     22850     22853     22856     22851     22850     22852     22851     22850     22853
     22852     22850     22853     22853     22856     22857     22853     22856     22858
     22853     22856     22859     22854     22853     22855     22854     22853     22856
     22855     22853     22856     22856     22859     22860     22856     22859     22861
     22856     22859     22862     22857     22856     22858     22857     22856     22859
     22858     22856     22859     22859     22862     22863     22859     22862     22864
     22859     22862     22865     22860     22859     22861     22860     22859     22862
     22861     22859     22862     22862     22865     22866     22862     22865     22867
     22862     22865     22868     22863     22862     22864     22863     22862     22865
     22864     22862     22865     22865     22868     22869     22865     22868     22870
     22865     22868     22871     22866     22865     22867     22866     22865     22868
     22867     22865     22868     22868     22871     22872     22868     22871     22873
     22868     22871     22874     22869     22868     22870     22869     22868     22871
     22870     22868     22871     22871     22874     22875     22871     22874     22876
     22871     22874     22877     22872     22871     22873     22872     22871     22874
     22873     22871     22874     22874     22877     22878     22874     22877     22879
     22874     22877     22880     22875     22874     22876     22875     22874     22877
     22876     22874     22877     22877     22880     22881     22877     22880     22882
     22877     22880     22883     22878     22877     22879     22878     22877     22880
     22879     22877     22880     22880     22883     22884     22880     22883     22885
     22880     22883     22886     22881     22880     22882     22881     22880     22883
     22882     22880     22883     22884     22883     22885     22884     22883     22886
     22885     22883     22886     22887     22888     22889     22887     22888     22890
     22887     22888     22903     22887     22891     22892     22887     22891     22893
     22887     22891     22894     22887     22895     22896     22887     22895     22897
     22887     22895     22898     22887     22899     22900     22887     22899     22901
     22887     22899     22902     22888     22887     22891     22888     22887     22895
     22888     22887     22899     22888     22903     22904     22888     22903     22905
     22888     22903     22909     22889     22888     22890     22889     22888     22903
     22890     22888     22903     22891     22887     22895     22891     22887     22899
     22892     22891     22893     22892     22891     22894     22893     22891     22894
     22895     22887     22899     22896     22895     22897     22896     22895     22898
     22897     22895     22898     22900     22899     22901     22900     22899     22902
     22901     22899     22902     22903     22909     22906     22904     22903     22905
     22904     22903     22909     22905     22903     22909     22906     22910     22911
     22907     22906     22908     22907     22906     22909     22907     22906     22910
     22908     22906     22909     22908     22906     22910     22909     22906     22910
     22910     22911     22912     22910     22911     22913     22910     22911     22914
     22911     22914     22915     22911     22914     22916     22911     22914     22922
     22912     22911     22913     22912     22911     22914     22913     22911     22914
     22914     22916     22917     22914     22922     22923     22914     22922     22924
     22914     22922     22925     22915     22914     22916     22915     22914     22922
     22916     22914     22922     22916     22917     22918     22916     22917     22919
     22917     22919     22920     22917     22919     22921     22917     22919     22931
     22918     22917     22919     22919     22931     22932     22919     22931     22933
     22919     22931     22934     22920     22919     22921     22920     22919     22931
     22921     22919     22931     22922     22925     22926     22923     22922     22924
     22923     22922     22925     22924     22922     22925     22925     22926     22927
     22925     22926     22928     22926     22928     22929     22926     22928     22930
     22926     22928     22978     22927     22926     22928     22928     22978     22979
     22928     22978     22980     22928     22978     22981     22929     22928     22930
     22929     22928     22978     22930     22928     22978     22931     22934     22935
     22931     22934     22936     22931     22934     22937     22932     22931     22933
     22932     22931     22934     22933     22931     22934     22934     22937     22938
     22934     22937     22939     22934     22937     22940     22935     22934     22936
     22935     22934     22937     22936     22934     22937     22937     22940     22941
     22937     22940     22942     22937     22940     22943     22938     22937     22939
     22938     22937     22940     22939     22937     22940     22940     22943     22944
     22940     22943     22945     22940     22943     22946     22941     22940     22942
     22941     22940     22943     22942     22940     22943     22943     22946     22947
     22943     22946     22948     22943     22946     22949     22944     22943     22945
     22944     22943     22946     22945     22943     22946     22946     22949     22950
     22946     22949     22951     22947     22946     22948     22947     22946     22949
     22948     22946     22949     22949     22951     22952     22949     22951     22953
     22950     22949     22951     22951     22953     22954     22951     22953     22955
     22951     22953     22956     22952     22951     22953     22953     22956     22957
     22953     22956     22958     22953     22956     22959     22954     22953     22955
     22954     22953     22956     22955     22953     22956     22956     22959     22960
     22956     22959     22961     22956     22959     22962     22957     22956     22958
     22957     22956     22959     22958     22956     22959     22959     22962     22963
     22959     22962     22964     22959     22962     22965     22960     22959     22961
     22960     22959     22962     22961     22959     22962     22962     22965     22966
     22962     22965     22967     22962     22965     22968     22963     22962     22964
     22963     22962     22965     22964     22962     22965     22965     22968     22969
     22965     22968     22970     22965     22968     22971     22966     22965     22967
     22966     22965     22968     22967     22965     22968     22968     22971     22972
     22968     22971     22973     22968     22971     22974     22969     22968     22970
     22969     22968     22971     22970     22968     22971     22971     22974     22975
     22971     22974     22976     22971     22974     22977     22972     22971     22973
     22972     22971     22974     22973     22971     22974     22975     22974     22976
     22975     22974     22977     22976     22974     22977     22978     22981     22982
     22978     22981     22983     22978     22981     22984     22979     22978     22980
     22979     22978     22981     22980     22978     22981     22981     22984     22985
     22981     22984     22986     22981     22984     22987     22982     22981     22983
     22982     22981     22984     22983     22981     22984     22984     22987     22988
     22984     22987     22989     22984     22987     22990     22985     22984     22986
     22985     22984     22987     22986     22984     22987     22987     22990     22991
     22987     22990     22992     22987     22990     22993     22988     22987     22989
     22988     22987     22990     22989     22987     22990     22990     22993     22994
     22990     22993     22995     22990     22993     22996     22991     22990     22992
     22991     22990     22993     22992     22990     22993     22993     22996     22997
     22993     22996     22998     22993     22996     22999     22994     22993     22995
     22994     22993     22996     22995     22993     22996     22996     22999     23000
     22996     22999     23001     22996     22999     23002     22997     22996     22998
     22997     22996     22999     22998     22996     22999     22999     23002     23003
     22999     23002     23004     22999     23002     23005     23000     22999     23001
     23000     22999     23002     23001     22999     23002     23002     23005     23006
     23002     23005     23007     23002     23005     23008     23003     23002     23004
     23003     23002     23005     23004     23002     23005     23005     23008     23009
     23005     23008     23010     23005     23008     23011     23006     23005     23007
     23006     23005     23008     23007     23005     23008     23008     23011     23012
     23008     23011     23013     23008     23011     23014     23009     23008     23010
     23009     23008     23011     23010     23008     23011     23011     23014     23015
     23011     23014     23016     23011     23014     23017     23012     23011     23013
     23012     23011     23014     23013     23011     23014     23014     23017     23018
     23014     23017     23019     23014     23017     23020     23015     23014     23016
     23015     23014     23017     23016     23014     23017     23018     23017     23019
     23018     23017     23020     23019     23017     23020     23021     23022     23023
     23021     23022     23024     23021     23022     23037     23021     23025     23026
     23021     23025     23027     23021     23025     23028     23021     23029     23030
     23021     23029     23031     23021     23029     23032     23021     23033     23034
     23021     23033     23035     23021     23033     23036     23022     23021     23025
     23022     23021     23029     23022     23021     23033     23022     23037     23038
     23022     23037     23039     23022     23037     23043     23023     23022     23024
     23023     23022     23037     23024     23022     23037     23025     23021     23029
     23025     23021     23033     23026     23025     23027     23026     23025     23028
     23027     23025     23028     23029     23021     23033     23030     23029     23031
     23030     23029     23032     23031     23029     23032     23034     23033     23035
     23034     23033     23036     23035     23033     23036     23037     23043     23040
     23038     23037     23039     23038     23037     23043     23039     23037     23043
     23040     23044     23045     23041     23040     23042     23041     23040     23043
     23041     23040     23044     23042     23040     23043     23042     23040     23044
     23043     23040     23044     23044     23045     23046     23044     23045     23047
     23044     23045     23048     23045     23048     23049     23045     23048     23050
     23045     23048     23056     23046     23045     23047     23046     23045     23048
     23047     23045     23048     23048     23050     23051     23048     23056     23057
     23048     23056     23058     23048     23056     23059     23049     23048     23050
     23049     23048     23056     23050     23048     23056     23050     23051     23052
     23050     23051     23053     23051     23053     23054     23051     23053     23055
     23051     23053     23065     23052     23051     23053     23053     23065     23066
     23053     23065     23067     23053     23065     23068     23054     23053     23055
     23054     23053     23065     23055     23053     23065     23056     23059     23060
     23057     23056     23058     23057     23056     23059     23058     23056     23059
     23059     23060     23061     23059     23060     23062     23060     23062     23063
     23060     23062     23064     23060     23062     23112     23061     23060     23062
     23062     23112     23113     23062     23112     23114     23062     23112     23115
     23063     23062     23064     23063     23062     23112     23064     23062     23112
     23065     23068     23069     23065     23068     23070     23065     23068     23071
     23066     23065     23067     23066     23065     23068     23067     23065     23068
     23068     23071     23072     23068     23071     23073     23068     23071     23074
     23069     23068     23070     23069     23068     23071     23070     23068     23071
     23071     23074     23075     23071     23074     23076     23071     23074     23077
     23072     23071     23073     23072     23071     23074     23073     23071     23074
     23074     23077     23078     23074     23077     23079     23074     23077     23080
     23075     23074     23076     23075     23074     23077     23076     23074     23077
     23077     23080     23081     23077     23080     23082     23077     23080     23083
     23078     23077     23079     23078     23077     23080     23079     23077     23080
     23080     23083     23084     23080     23083     23085     23081     23080     23082
     23081     23080     23083     23082     23080     23083     23083     23085     23086
     23083     23085     23087     23084     23083     23085     23085     23087     23088
     23085     23087     23089     23085     23087     23090     23086     23085     23087
     23087     23090     23091     23087     23090     23092     23087     23090     23093
     23088     23087     23089     23088     23087     23090     23089     23087     23090
     23090     23093     23094     23090     23093     23095     23090     23093     23096
     23091     23090     23092     23091     23090     23093     23092     23090     23093
     23093     23096     23097     23093     23096     23098     23093     23096     23099
     23094     23093     23095     23094     23093     23096     23095     23093     23096
     23096     23099     23100     23096     23099     23101     23096     23099     23102
     23097     23096     23098     23097     23096     23099     23098     23096     23099
     23099     23102     23103     23099     23102     23104     23099     23102     23105
     23100     23099     23101     23100     23099     23102     23101     23099     23102
     23102     23105     23106     23102     23105     23107     23102     23105     23108
     23103     23102     23104     23103     23102     23105     23104     23102     23105
     23105     23108     23109     23105     23108     23110     23105     23108     23111
     23106     23105     23107     23106     23105     23108     23107     23105     23108
     23109     23108     23110     23109     23108     23111     23110     23108     23111
     23112     23115     23116     23112     23115     23117     23112     23115     23118
     23113     23112     23114     23113     23112     23115     23114     23112     23115
     23115     23118     23119     23115     23118     23120     23115     23118     23121
     23116     23115     23117     23116     23115     23118     23117     23115     23118
     23118     23121     23122     23118     23121     23123     23118     23121     23124
     23119     23118     23120     23119     23118     23121     23120     23118     23121
     23121     23124     23125     23121     23124     23126     23121     23124     23127
     23122     23121     23123     23122     23121     23124     23123     23121     23124
     23124     23127     23128     23124     23127     23129     23124     23127     23130
     23125     23124     23126     23125     23124     23127     23126     23124     23127
     23127     23130     23131     23127     23130     23132     23127     23130     23133
     23128     23127     23129     23128     23127     23130     23129     23127     23130
     23130     23133     23134     23130     23133     23135     23130     23133     23136
     23131     23130     23132     23131     23130     23133     23132     23130     23133
     23133     23136     23137     23133     23136     23138     23133     23136     23139
     23134     23133     23135     23134     23133     23136     23135     23133     23136
     23136     23139     23140     23136     23139     23141     23136     23139     23142
     23137     23136     23138     23137     23136     23139     23138     23136     23139
     23139     23142     23143     23139     23142     23144     23139     23142     23145
     23140     23139     23141     23140     23139     23142     23141     23139     23142
     23142     23145     23146     23142     23145     23147     23142     23145     23148
     23143     23142     23144     23143     23142     23145     23144     23142     23145
     23145     23148     23149     23145     23148     23150     23145     23148     23151
     23146     23145     23147     23146     23145     23148     23147     23145     23148
     23148     23151     23152     23148     23151     23153     23148     23151     23154
     23149     23148     23150     23149     23148     23151     23150     23148     23151
     23152     23151     23153     23152     23151     23154     23153     23151     23154
     23155     23156     23157     23155     23156     23158     23155     23156     23171
     23155     23159     23160     23155     23159     23161     23155     23159     23162
     23155     23163     23164     23155     23163     23165     23155     23163     23166
     23155     23167     23168     23155     23167     23169     23155     23167     23170
     23156     23155     23159     23156     23155     23163     23156     23155     23167
     23156     23171     23172     23156     23171     23173     23156     23171     23177
     23157     23156     23158     23157     23156     23171     23158     23156     23171
     23159     23155     23163     23159     23155     23167     23160     23159     23161
     23160     23159     23162     23161     23159     23162     23163     23155     23167
     23164     23163     23165     23164     23163     23166     23165     23163     23166
     23168     23167     23169     23168     23167     23170     23169     23167     23170
     23171     23177     23174     23172     23171     23173     23172     23171     23177
     23173     23171     23177     23174     23178     23179     23175     23174     23176
     23175     23174     23177     23175     23174     23178     23176     23174     23177
     23176     23174     23178     23177     23174     23178     23178     23179     23180
     23178     23179     23181     23178     23179     23182     23179     23182     23183
     23179     23182     23184     23179     23182     23190     23180     23179     23181
     23180     23179     23182     23181     23179     23182     23182     23184     23185
     23182     23190     23191     23182     23190     23192     23182     23190     23193
     23183     23182     23184     23183     23182     23190     23184     23182     23190
     23184     23185     23186     23184     23185     23187     23185     23187     23188
     23185     23187     23189     23185     23187     23199     23186     23185     23187
     23187     23199     23200     23187     23199     23201     23187     23199     23202
     23188     23187     23189     23188     23187     23199     23189     23187     23199
     23190     23193     23194     23191     23190     23192     23191     23190     23193
     23192     23190     23193     23193     23194     23195     23193     23194     23196
     23194     23196     23197     23194     23196     23198     23194     23196     23246
     23195     23194     23196     23196     23246     23247     23196     23246     23248
     23196     23246     23249     23197     23196     23198     23197     23196     23246
     23198     23196     23246     23199     23202     23203     23199     23202     23204
     23199     23202     23205     23200     23199     23201     23200     23199     23202
     23201     23199     23202     23202     23205     23206     23202     23205     23207
     23202     23205     23208     23203     23202     23204     23203     23202     23205
     23204     23202     23205     23205     23208     23209     23205     23208     23210
     23205     23208     23211     23206     23205     23207     23206     23205     23208
     23207     23205     23208     23208     23211     23212     23208     23211     23213
     23208     23211     23214     23209     23208     23210     23209     23208     23211
     23210     23208     23211     23211     23214     23215     23211     23214     23216
     23211     23214     23217     23212     23211     23213     23212     23211     23214
     23213     23211     23214     23214     23217     23218     23214     23217     23219
     23215     23214     23216     23215     23214     23217     23216     23214     23217
     23217     23219     23220     23217     23219     23221     23218     23217     23219
     23219     23221     23222     23219     23221     23223     23219     23221     23224
     23220     23219     23221     23221     23224     23225     23221     23224     23226
     23221     23224     23227     23222     23221     23223     23222     23221     23224
     23223     23221     23224     23224     23227     23228     23224     23227     23229
     23224     23227     23230     23225     23224     23226     23225     23224     23227
     23226     23224     23227     23227     23230     23231     23227     23230     23232
     23227     23230     23233     23228     23227     23229     23228     23227     23230
     23229     23227     23230     23230     23233     23234     23230     23233     23235
     23230     23233     23236     23231     23230     23232     23231     23230     23233
     23232     23230     23233     23233     23236     23237     23233     23236     23238
     23233     23236     23239     23234     23233     23235     23234     23233     23236
     23235     23233     23236     23236     23239     23240     23236     23239     23241
     23236     23239     23242     23237     23236     23238     23237     23236     23239
     23238     23236     23239     23239     23242     23243     23239     23242     23244
     23239     23242     23245     23240     23239     23241     23240     23239     23242
     23241     23239     23242     23243     23242     23244     23243     23242     23245
     23244     23242     23245     23246     23249     23250     23246     23249     23251
     23246     23249     23252     23247     23246     23248     23247     23246     23249
     23248     23246     23249     23249     23252     23253     23249     23252     23254
     23249     23252     23255     23250     23249     23251     23250     23249     23252
     23251     23249     23252     23252     23255     23256     23252     23255     23257
     23252     23255     23258     23253     23252     23254     23253     23252     23255
     23254     23252     23255     23255     23258     23259     23255     23258     23260
     23255     23258     23261     23256     23255     23257     23256     23255     23258
     23257     23255     23258     23258     23261     23262     23258     23261     23263
     23258     23261     23264     23259     23258     23260     23259     23258     23261
     23260     23258     23261     23261     23264     23265     23261     23264     23266
     23261     23264     23267     23262     23261     23263     23262     23261     23264
     23263     23261     23264     23264     23267     23268     23264     23267     23269
     23264     23267     23270     23265     23264     23266     23265     23264     23267
     23266     23264     23267     23267     23270     23271     23267     23270     23272
     23267     23270     23273     23268     23267     23269     23268     23267     23270
     23269     23267     23270     23270     23273     23274     23270     23273     23275
     23270     23273     23276     23271     23270     23272     23271     23270     23273
     23272     23270     23273     23273     23276     23277     23273     23276     23278
     23273     23276     23279     23274     23273     23275     23274     23273     23276
     23275     23273     23276     23276     23279     23280     23276     23279     23281
     23276     23279     23282     23277     23276     23278     23277     23276     23279
     23278     23276     23279     23279     23282     23283     23279     23282     23284
     23279     23282     23285     23280     23279     23281     23280     23279     23282
     23281     23279     23282     23282     23285     23286     23282     23285     23287
     23282     23285     23288     23283     23282     23284     23283     23282     23285
     23284     23282     23285     23286     23285     23287     23286     23285     23288
     23287     23285     23288     23289     23290     23291     23289     23290     23292
     23289     23290     23305     23289     23293     23294     23289     23293     23295
     23289     23293     23296     23289     23297     23298     23289     23297     23299
     23289     23297     23300     23289     23301     23302     23289     23301     23303
     23289     23301     23304     23290     23289     23293     23290     23289     23297
     23290     23289     23301     23290     23305     23306     23290     23305     23307
     23290     23305     23311     23291     23290     23292     23291     23290     23305
     23292     23290     23305     23293     23289     23297     23293     23289     23301
     23294     23293     23295     23294     23293     23296     23295     23293     23296
     23297     23289     23301     23298     23297     23299     23298     23297     23300
     23299     23297     23300     23302     23301     23303     23302     23301     23304
     23303     23301     23304     23305     23311     23308     23306     23305     23307
     23306     23305     23311     23307     23305     23311     23308     23312     23313
     23309     23308     23310     23309     23308     23311     23309     23308     23312
     23310     23308     23311     23310     23308     23312     23311     23308     23312
     23312     23313     23314     23312     23313     23315     23312     23313     23316
     23313     23316     23317     23313     23316     23318     23313     23316     23324
     23314     23313     23315     23314     23313     23316     23315     23313     23316
     23316     23318     23319     23316     23324     23325     23316     23324     23326
     23316     23324     23327     23317     23316     23318     23317     23316     23324
     23318     23316     23324     23318     23319     23320     23318     23319     23321
     23319     23321     23322     23319     23321     23323     23319     23321     23333
     23320     23319     23321     23321     23333     23334     23321     23333     23335
     23321     23333     23336     23322     23321     23323     23322     23321     23333
     23323     23321     23333     23324     23327     23328     23325     23324     23326
     23325     23324     23327     23326     23324     23327     23327     23328     23329
     23327     23328     23330     23328     23330     23331     23328     23330     23332
     23328     23330     23380     23329     23328     23330     23330     23380     23381
     23330     23380     23382     23330     23380     23383     23331     23330     23332
     23331     23330     23380     23332     23330     23380     23333     23336     23337
     23333     23336     23338     23333     23336     23339     23334     23333     23335
     23334     23333     23336     23335     23333     23336     23336     23339     23340
     23336     23339     23341     23336     23339     23342     23337     23336     23338
     23337     23336     23339     23338     23336     23339     23339     23342     23343
     23339     23342     23344     23339     23342     23345     23340     23339     23341
     23340     23339     23342     23341     23339     23342     23342     23345     23346
     23342     23345     23347     23342     23345     23348     23343     23342     23344
     23343     23342     23345     23344     23342     23345     23345     23348     23349
     23345     23348     23350     23345     23348     23351     23346     23345     23347
     23346     23345     23348     23347     23345     23348     23348     23351     23352
     23348     23351     23353     23349     23348     23350     23349     23348     23351
     23350     23348     23351     23351     23353     23354     23351     23353     23355
     23352     23351     23353     23353     23355     23356     23353     23355     23357
     23353     23355     23358     23354     23353     23355     23355     23358     23359
     23355     23358     23360     23355     23358     23361     23356     23355     23357
     23356     23355     23358     23357     23355     23358     23358     23361     23362
     23358     23361     23363     23358     23361     23364     23359     23358     23360
     23359     23358     23361     23360     23358     23361     23361     23364     23365
     23361     23364     23366     23361     23364     23367     23362     23361     23363
     23362     23361     23364     23363     23361     23364     23364     23367     23368
     23364     23367     23369     23364     23367     23370     23365     23364     23366
     23365     23364     23367     23366     23364     23367     23367     23370     23371
     23367     23370     23372     23367     23370     23373     23368     23367     23369
     23368     23367     23370     23369     23367     23370     23370     23373     23374
     23370     23373     23375     23370     23373     23376     23371     23370     23372
     23371     23370     23373     23372     23370     23373     23373     23376     23377
     23373     23376     23378     23373     23376     23379     23374     23373     23375
     23374     23373     23376     23375     23373     23376     23377     23376     23378
     23377     23376     23379     23378     23376     23379     23380     23383     23384
     23380     23383     23385     23380     23383     23386     23381     23380     23382
     23381     23380     23383     23382     23380     23383     23383     23386     23387
     23383     23386     23388     23383     23386     23389     23384     23383     23385
     23384     23383     23386     23385     23383     23386     23386     23389     23390
     23386     23389     23391     23386     23389     23392     23387     23386     23388
     23387     23386     23389     23388     23386     23389     23389     23392     23393
     23389     23392     23394     23389     23392     23395     23390     23389     23391
     23390     23389     23392     23391     23389     23392     23392     23395     23396
     23392     23395     23397     23392     23395     23398     23393     23392     23394
     23393     23392     23395     23394     23392     23395     23395     23398     23399
     23395     23398     23400     23395     23398     23401     23396     23395     23397
     23396     23395     23398     23397     23395     23398     23398     23401     23402
     23398     23401     23403     23398     23401     23404     23399     23398     23400
     23399     23398     23401     23400     23398     23401     23401     23404     23405
     23401     23404     23406     23401     23404     23407     23402     23401     23403
     23402     23401     23404     23403     23401     23404     23404     23407     23408
     23404     23407     23409     23404     23407     23410     23405     23404     23406
     23405     23404     23407     23406     23404     23407     23407     23410     23411
     23407     23410     23412     23407     23410     23413     23408     23407     23409
     23408     23407     23410     23409     23407     23410     23410     23413     23414
     23410     23413     23415     23410     23413     23416     23411     23410     23412
     23411     23410     23413     23412     23410     23413     23413     23416     23417
     23413     23416     23418     23413     23416     23419     23414     23413     23415
     23414     23413     23416     23415     23413     23416     23416     23419     23420
     23416     23419     23421     23416     23419     23422     23417     23416     23418
     23417     23416     23419     23418     23416     23419     23420     23419     23421
     23420     23419     23422     23421     23419     23422     23423     23424     23425
     23423     23424     23426     23423     23424     23439     23423     23427     23428
     23423     23427     23429     23423     23427     23430     23423     23431     23432
     23423     23431     23433     23423     23431     23434     23423     23435     23436
     23423     23435     23437     23423     23435     23438     23424     23423     23427
     23424     23423     23431     23424     23423     23435     23424     23439     23440
     23424     23439     23441     23424     23439     23445     23425     23424     23426
     23425     23424     23439     23426     23424     23439     23427     23423     23431
     23427     23423     23435     23428     23427     23429     23428     23427     23430
     23429     23427     23430     23431     23423     23435     23432     23431     23433
     23432     23431     23434     23433     23431     23434     23436     23435     23437
     23436     23435     23438     23437     23435     23438     23439     23445     23442
     23440     23439     23441     23440     23439     23445     23441     23439     23445
     23442     23446     23447     23443     23442     23444     23443     23442     23445
     23443     23442     23446     23444     23442     23445     23444     23442     23446
     23445     23442     23446     23446     23447     23448     23446     23447     23449
     23446     23447     23450     23447     23450     23451     23447     23450     23452
     23447     23450     23458     23448     23447     23449     23448     23447     23450
     23449     23447     23450     23450     23452     23453     23450     23458     23459
     23450     23458     23460     23450     23458     23461     23451     23450     23452
     23451     23450     23458     23452     23450     23458     23452     23453     23454
     23452     23453     23455     23453     23455     23456     23453     23455     23457
     23453     23455     23467     23454     23453     23455     23455     23467     23468
     23455     23467     23469     23455     23467     23470     23456     23455     23457
     23456     23455     23467     23457     23455     23467     23458     23461     23462
     23459     23458     23460     23459     23458     23461     23460     23458     23461
     23461     23462     23463     23461     23462     23464     23462     23464     23465
     23462     23464     23466     23462     23464     23514     23463     23462     23464
     23464     23514     23515     23464     23514     23516     23464     23514     23517
     23465     23464     23466     23465     23464     23514     23466     23464     23514
     23467     23470     23471     23467     23470     23472     23467     23470     23473
     23468     23467     23469     23468     23467     23470     23469     23467     23470
     23470     23473     23474     23470     23473     23475     23470     23473     23476
     23471     23470     23472     23471     23470     23473     23472     23470     23473
     23473     23476     23477     23473     23476     23478     23473     23476     23479
     23474     23473     23475     23474     23473     23476     23475     23473     23476
     23476     23479     23480     23476     23479     23481     23476     23479     23482
     23477     23476     23478     23477     23476     23479     23478     23476     23479
     23479     23482     23483     23479     23482     23484     23479     23482     23485
     23480     23479     23481     23480     23479     23482     23481     23479     23482
     23482     23485     23486     23482     23485     23487     23483     23482     23484
     23483     23482     23485     23484     23482     23485     23485     23487     23488
     23485     23487     23489     23486     23485     23487     23487     23489     23490
     23487     23489     23491     23487     23489     23492     23488     23487     23489
     23489     23492     23493     23489     23492     23494     23489     23492     23495
     23490     23489     23491     23490     23489     23492     23491     23489     23492
     23492     23495     23496     23492     23495     23497     23492     23495     23498
     23493     23492     23494     23493     23492     23495     23494     23492     23495
     23495     23498     23499     23495     23498     23500     23495     23498     23501
     23496     23495     23497     23496     23495     23498     23497     23495     23498
     23498     23501     23502     23498     23501     23503     23498     23501     23504
     23499     23498     23500     23499     23498     23501     23500     23498     23501
     23501     23504     23505     23501     23504     23506     23501     23504     23507
     23502     23501     23503     23502     23501     23504     23503     23501     23504
     23504     23507     23508     23504     23507     23509     23504     23507     23510
     23505     23504     23506     23505     23504     23507     23506     23504     23507
     23507     23510     23511     23507     23510     23512     23507     23510     23513
     23508     23507     23509     23508     23507     23510     23509     23507     23510
     23511     23510     23512     23511     23510     23513     23512     23510     23513
     23514     23517     23518     23514     23517     23519     23514     23517     23520
     23515     23514     23516     23515     23514     23517     23516     23514     23517
     23517     23520     23521     23517     23520     23522     23517     23520     23523
     23518     23517     23519     23518     23517     23520     23519     23517     23520
     23520     23523     23524     23520     23523     23525     23520     23523     23526
     23521     23520     23522     23521     23520     23523     23522     23520     23523
     23523     23526     23527     23523     23526     23528     23523     23526     23529
     23524     23523     23525     23524     23523     23526     23525     23523     23526
     23526     23529     23530     23526     23529     23531     23526     23529     23532
     23527     23526     23528     23527     23526     23529     23528     23526     23529
     23529     23532     23533     23529     23532     23534     23529     23532     23535
     23530     23529     23531     23530     23529     23532     23531     23529     23532
     23532     23535     23536     23532     23535     23537     23532     23535     23538
     23533     23532     23534     23533     23532     23535     23534     23532     23535
     23535     23538     23539     23535     23538     23540     23535     23538     23541
     23536     23535     23537     23536     23535     23538     23537     23535     23538
     23538     23541     23542     23538     23541     23543     23538     23541     23544
     23539     23538     23540     23539     23538     23541     23540     23538     23541
     23541     23544     23545     23541     23544     23546     23541     23544     23547
     23542     23541     23543     23542     23541     23544     23543     23541     23544
     23544     23547     23548     23544     23547     23549     23544     23547     23550
     23545     23544     23546     23545     23544     23547     23546     23544     23547
     23547     23550     23551     23547     23550     23552     23547     23550     23553
     23548     23547     23549     23548     23547     23550     23549     23547     23550
     23550     23553     23554     23550     23553     23555     23550     23553     23556
     23551     23550     23552     23551     23550     23553     23552     23550     23553
     23554     23553     23555     23554     23553     23556     23555     23553     23556
     23557     23558     23559     23557     23558     23560     23557     23558     23573
     23557     23561     23562     23557     23561     23563     23557     23561     23564
     23557     23565     23566     23557     23565     23567     23557     23565     23568
     23557     23569     23570     23557     23569     23571     23557     23569     23572
     23558     23557     23561     23558     23557     23565     23558     23557     23569
     23558     23573     23574     23558     23573     23575     23558     23573     23579
     23559     23558     23560     23559     23558     23573     23560     23558     23573
     23561     23557     23565     23561     23557     23569     23562     23561     23563
     23562     23561     23564     23563     23561     23564     23565     23557     23569
     23566     23565     23567     23566     23565     23568     23567     23565     23568
     23570     23569     23571     23570     23569     23572     23571     23569     23572
     23573     23579     23576     23574     23573     23575     23574     23573     23579
     23575     23573     23579     23576     23580     23581     23577     23576     23578
     23577     23576     23579     23577     23576     23580     23578     23576     23579
     23578     23576     23580     23579     23576     23580     23580     23581     23582
     23580     23581     23583     23580     23581     23584     23581     23584     23585
     23581     23584     23586     23581     23584     23592     23582     23581     23583
     23582     23581     23584     23583     23581     23584     23584     23586     23587
     23584     23592     23593     23584     23592     23594     23584     23592     23595
     23585     23584     23586     23585     23584     23592     23586     23584     23592
     23586     23587     23588     23586     23587     23589     23587     23589     23590
     23587     23589     23591     23587     23589     23601     23588     23587     23589
     23589     23601     23602     23589     23601     23603     23589     23601     23604
     23590     23589     23591     23590     23589     23601     23591     23589     23601
     23592     23595     23596     23593     23592     23594     23593     23592     23595
     23594     23592     23595     23595     23596     23597     23595     23596     23598
     23596     23598     23599     23596     23598     23600     23596     23598     23648
     23597     23596     23598     23598     23648     23649     23598     23648     23650
     23598     23648     23651     23599     23598     23600     23599     23598     23648
     23600     23598     23648     23601     23604     23605     23601     23604     23606
     23601     23604     23607     23602     23601     23603     23602     23601     23604
     23603     23601     23604     23604     23607     23608     23604     23607     23609
     23604     23607     23610     23605     23604     23606     23605     23604     23607
     23606     23604     23607     23607     23610     23611     23607     23610     23612
     23607     23610     23613     23608     23607     23609     23608     23607     23610
     23609     23607     23610     23610     23613     23614     23610     23613     23615
     23610     23613     23616     23611     23610     23612     23611     23610     23613
     23612     23610     23613     23613     23616     23617     23613     23616     23618
     23613     23616     23619     23614     23613     23615     23614     23613     23616
     23615     23613     23616     23616     23619     23620     23616     23619     23621
     23617     23616     23618     23617     23616     23619     23618     23616     23619
     23619     23621     23622     23619     23621     23623     23620     23619     23621
     23621     23623     23624     23621     23623     23625     23621     23623     23626
     23622     23621     23623     23623     23626     23627     23623     23626     23628
     23623     23626     23629     23624     23623     23625     23624     23623     23626
     23625     23623     23626     23626     23629     23630     23626     23629     23631
     23626     23629     23632     23627     23626     23628     23627     23626     23629
     23628     23626     23629     23629     23632     23633     23629     23632     23634
     23629     23632     23635     23630     23629     23631     23630     23629     23632
     23631     23629     23632     23632     23635     23636     23632     23635     23637
     23632     23635     23638     23633     23632     23634     23633     23632     23635
     23634     23632     23635     23635     23638     23639     23635     23638     23640
     23635     23638     23641     23636     23635     23637     23636     23635     23638
     23637     23635     23638     23638     23641     23642     23638     23641     23643
     23638     23641     23644     23639     23638     23640     23639     23638     23641
     23640     23638     23641     23641     23644     23645     23641     23644     23646
     23641     23644     23647     23642     23641     23643     23642     23641     23644
     23643     23641     23644     23645     23644     23646     23645     23644     23647
     23646     23644     23647     23648     23651     23652     23648     23651     23653
     23648     23651     23654     23649     23648     23650     23649     23648     23651
     23650     23648     23651     23651     23654     23655     23651     23654     23656
     23651     23654     23657     23652     23651     23653     23652     23651     23654
     23653     23651     23654     23654     23657     23658     23654     23657     23659
     23654     23657     23660     23655     23654     23656     23655     23654     23657
     23656     23654     23657     23657     23660     23661     23657     23660     23662
     23657     23660     23663     23658     23657     23659     23658     23657     23660
     23659     23657     23660     23660     23663     23664     23660     23663     23665
     23660     23663     23666     23661     23660     23662     23661     23660     23663
     23662     23660     23663     23663     23666     23667     23663     23666     23668
     23663     23666     23669     23664     23663     23665     23664     23663     23666
     23665     23663     23666     23666     23669     23670     23666     23669     23671
     23666     23669     23672     23667     23666     23668     23667     23666     23669
     23668     23666     23669     23669     23672     23673     23669     23672     23674
     23669     23672     23675     23670     23669     23671     23670     23669     23672
     23671     23669     23672     23672     23675     23676     23672     23675     23677
     23672     23675     23678     23673     23672     23674     23673     23672     23675
     23674     23672     23675     23675     23678     23679     23675     23678     23680
     23675     23678     23681     23676     23675     23677     23676     23675     23678
     23677     23675     23678     23678     23681     23682     23678     23681     23683
     23678     23681     23684     23679     23678     23680     23679     23678     23681
     23680     23678     23681     23681     23684     23685     23681     23684     23686
     23681     23684     23687     23682     23681     23683     23682     23681     23684
     23683     23681     23684     23684     23687     23688     23684     23687     23689
     23684     23687     23690     23685     23684     23686     23685     23684     23687
     23686     23684     23687     23688     23687     23689     23688     23687     23690
     23689     23687     23690     23691     23692     23693     23691     23692     23694
     23691     23692     23707     23691     23695     23696     23691     23695     23697
     23691     23695     23698     23691     23699     23700     23691     23699     23701
     23691     23699     23702     23691     23703     23704     23691     23703     23705
     23691     23703     23706     23692     23691     23695     23692     23691     23699
     23692     23691     23703     23692     23707     23708     23692     23707     23709
     23692     23707     23713     23693     23692     23694     23693     23692     23707
     23694     23692     23707     23695     23691     23699     23695     23691     23703
     23696     23695     23697     23696     23695     23698     23697     23695     23698
     23699     23691     23703     23700     23699     23701     23700     23699     23702
     23701     23699     23702     23704     23703     23705     23704     23703     23706
     23705     23703     23706     23707     23713     23710     23708     23707     23709
     23708     23707     23713     23709     23707     23713     23710     23714     23715
     23711     23710     23712     23711     23710     23713     23711     23710     23714
     23712     23710     23713     23712     23710     23714     23713     23710     23714
     23714     23715     23716     23714     23715     23717     23714     23715     23718
     23715     23718     23719     23715     23718     23720     23715     23718     23726
     23716     23715     23717     23716     23715     23718     23717     23715     23718
     23718     23720     23721     23718     23726     23727     23718     23726     23728
     23718     23726     23729     23719     23718     23720     23719     23718     23726
     23720     23718     23726     23720     23721     23722     23720     23721     23723
     23721     23723     23724     23721     23723     23725     23721     23723     23735
     23722     23721     23723     23723     23735     23736     23723     23735     23737
     23723     23735     23738     23724     23723     23725     23724     23723     23735
     23725     23723     23735     23726     23729     23730     23727     23726     23728
     23727     23726     23729     23728     23726     23729     23729     23730     23731
     23729     23730     23732     23730     23732     23733     23730     23732     23734
     23730     23732     23782     23731     23730     23732     23732     23782     23783
     23732     23782     23784     23732     23782     23785     23733     23732     23734
     23733     23732     23782     23734     23732     23782     23735     23738     23739
     23735     23738     23740     23735     23738     23741     23736     23735     23737
     23736     23735     23738     23737     23735     23738     23738     23741     23742
     23738     23741     23743     23738     23741     23744     23739     23738     23740
     23739     23738     23741     23740     23738     23741     23741     23744     23745
     23741     23744     23746     23741     23744     23747     23742     23741     23743
     23742     23741     23744     23743     23741     23744     23744     23747     23748
     23744     23747     23749     23744     23747     23750     23745     23744     23746
     23745     23744     23747     23746     23744     23747     23747     23750     23751
     23747     23750     23752     23747     23750     23753     23748     23747     23749
     23748     23747     23750     23749     23747     23750     23750     23753     23754
     23750     23753     23755     23751     23750     23752     23751     23750     23753
     23752     23750     23753     23753     23755     23756     23753     23755     23757
     23754     23753     23755     23755     23757     23758     23755     23757     23759
     23755     23757     23760     23756     23755     23757     23757     23760     23761
     23757     23760     23762     23757     23760     23763     23758     23757     23759
     23758     23757     23760     23759     23757     23760     23760     23763     23764
     23760     23763     23765     23760     23763     23766     23761     23760     23762
     23761     23760     23763     23762     23760     23763     23763     23766     23767
     23763     23766     23768     23763     23766     23769     23764     23763     23765
     23764     23763     23766     23765     23763     23766     23766     23769     23770
     23766     23769     23771     23766     23769     23772     23767     23766     23768
     23767     23766     23769     23768     23766     23769     23769     23772     23773
     23769     23772     23774     23769     23772     23775     23770     23769     23771
     23770     23769     23772     23771     23769     23772     23772     23775     23776
     23772     23775     23777     23772     23775     23778     23773     23772     23774
     23773     23772     23775     23774     23772     23775     23775     23778     23779
     23775     23778     23780     23775     23778     23781     23776     23775     23777
     23776     23775     23778     23777     23775     23778     23779     23778     23780
     23779     23778     23781     23780     23778     23781     23782     23785     23786
     23782     23785     23787     23782     23785     23788     23783     23782     23784
     23783     23782     23785     23784     23782     23785     23785     23788     23789
     23785     23788     23790     23785     23788     23791     23786     23785     23787
     23786     23785     23788     23787     23785     23788     23788     23791     23792
     23788     23791     23793     23788     23791     23794     23789     23788     23790
     23789     23788     23791     23790     23788     23791     23791     23794     23795
     23791     23794     23796     23791     23794     23797     23792     23791     23793
     23792     23791     23794     23793     23791     23794     23794     23797     23798
     23794     23797     23799     23794     23797     23800     23795     23794     23796
     23795     23794     23797     23796     23794     23797     23797     23800     23801
     23797     23800     23802     23797     23800     23803     23798     23797     23799
     23798     23797     23800     23799     23797     23800     23800     23803     23804
     23800     23803     23805     23800     23803     23806     23801     23800     23802
     23801     23800     23803     23802     23800     23803     23803     23806     23807
     23803     23806     23808     23803     23806     23809     23804     23803     23805
     23804     23803     23806     23805     23803     23806     23806     23809     23810
     23806     23809     23811     23806     23809     23812     23807     23806     23808
     23807     23806     23809     23808     23806     23809     23809     23812     23813
     23809     23812     23814     23809     23812     23815     23810     23809     23811
     23810     23809     23812     23811     23809     23812     23812     23815     23816
     23812     23815     23817     23812     23815     23818     23813     23812     23814
     23813     23812     23815     23814     23812     23815     23815     23818     23819
     23815     23818     23820     23815     23818     23821     23816     23815     23817
     23816     23815     23818     23817     23815     23818     23818     23821     23822
     23818     23821     23823     23818     23821     23824     23819     23818     23820
     23819     23818     23821     23820     23818     23821     23822     23821     23823
     23822     23821     23824     23823     23821     23824     23825     23826     23827
     23825     23826     23828     23825     23826     23841     23825     23829     23830
     23825     23829     23831     23825     23829     23832     23825     23833     23834
     23825     23833     23835     23825     23833     23836     23825     23837     23838
     23825     23837     23839     23825     23837     23840     23826     23825     23829
     23826     23825     23833     23826     23825     23837     23826     23841     23842
     23826     23841     23843     23826     23841     23847     23827     23826     23828
     23827     23826     23841     23828     23826     23841     23829     23825     23833
     23829     23825     23837     23830     23829     23831     23830     23829     23832
     23831     23829     23832     23833     23825     23837     23834     23833     23835
     23834     23833     23836     23835     23833     23836     23838     23837     23839
     23838     23837     23840     23839     23837     23840     23841     23847     23844
     23842     23841     23843     23842     23841     23847     23843     23841     23847
     23844     23848     23849     23845     23844     23846     23845     23844     23847
     23845     23844     23848     23846     23844     23847     23846     23844     23848
     23847     23844     23848     23848     23849     23850     23848     23849     23851
     23848     23849     23852     23849     23852     23853     23849     23852     23854
     23849     23852     23860     23850     23849     23851     23850     23849     23852
     23851     23849     23852     23852     23854     23855     23852     23860     23861
     23852     23860     23862     23852     23860     23863     23853     23852     23854
     23853     23852     23860     23854     23852     23860     23854     23855     23856
     23854     23855     23857     23855     23857     23858     23855     23857     23859
     23855     23857     23869     23856     23855     23857     23857     23869     23870
     23857     23869     23871     23857     23869     23872     23858     23857     23859
     23858     23857     23869     23859     23857     23869     23860     23863     23864
     23861     23860     23862     23861     23860     23863     23862     23860     23863
     23863     23864     23865     23863     23864     23866     23864     23866     23867
     23864     23866     23868     23864     23866     23916     23865     23864     23866
     23866     23916     23917     23866     23916     23918     23866     23916     23919
     23867     23866     23868     23867     23866     23916     23868     23866     23916
     23869     23872     23873     23869     23872     23874     23869     23872     23875
     23870     23869     23871     23870     23869     23872     23871     23869     23872
     23872     23875     23876     23872     23875     23877     23872     23875     23878
     23873     23872     23874     23873     23872     23875     23874     23872     23875
     23875     23878     23879     23875     23878     23880     23875     23878     23881
     23876     23875     23877     23876     23875     23878     23877     23875     23878
     23878     23881     23882     23878     23881     23883     23878     23881     23884
     23879     23878     23880     23879     23878     23881     23880     23878     23881
     23881     23884     23885     23881     23884     23886     23881     23884     23887
     23882     23881     23883     23882     23881     23884     23883     23881     23884
     23884     23887     23888     23884     23887     23889     23885     23884     23886
     23885     23884     23887     23886     23884     23887     23887     23889     23890
     23887     23889     23891     23888     23887     23889     23889     23891     23892
     23889     23891     23893     23889     23891     23894     23890     23889     23891
     23891     23894     23895     23891     23894     23896     23891     23894     23897
     23892     23891     23893     23892     23891     23894     23893     23891     23894
     23894     23897     23898     23894     23897     23899     23894     23897     23900
     23895     23894     23896     23895     23894     23897     23896     23894     23897
     23897     23900     23901     23897     23900     23902     23897     23900     23903
     23898     23897     23899     23898     23897     23900     23899     23897     23900
     23900     23903     23904     23900     23903     23905     23900     23903     23906
     23901     23900     23902     23901     23900     23903     23902     23900     23903
     23903     23906     23907     23903     23906     23908     23903     23906     23909
     23904     23903     23905     23904     23903     23906     23905     23903     23906
     23906     23909     23910     23906     23909     23911     23906     23909     23912
     23907     23906     23908     23907     23906     23909     23908     23906     23909
     23909     23912     23913     23909     23912     23914     23909     23912     23915
     23910     23909     23911     23910     23909     23912     23911     23909     23912
     23913     23912     23914     23913     23912     23915     23914     23912     23915
     23916     23919     23920     23916     23919     23921     23916     23919     23922
     23917     23916     23918     23917     23916     23919     23918     23916     23919
     23919     23922     23923     23919     23922     23924     23919     23922     23925
     23920     23919     23921     23920     23919     23922     23921     23919     23922
     23922     23925     23926     23922     23925     23927     23922     23925     23928
     23923     23922     23924     23923     23922     23925     23924     23922     23925
     23925     23928     23929     23925     23928     23930     23925     23928     23931
     23926     23925     23927     23926     23925     23928     23927     23925     23928
     23928     23931     23932     23928     23931     23933     23928     23931     23934
     23929     23928     23930     23929     23928     23931     23930     23928     23931
     23931     23934     23935     23931     23934     23936     23931     23934     23937
     23932     23931     23933     23932     23931     23934     23933     23931     23934
     23934     23937     23938     23934     23937     23939     23934     23937     23940
     23935     23934     23936     23935     23934     23937     23936     23934     23937
     23937     23940     23941     23937     23940     23942     23937     23940     23943
     23938     23937     23939     23938     23937     23940     23939     23937     23940
     23940     23943     23944     23940     23943     23945     23940     23943     23946
     23941     23940     23942     23941     23940     23943     23942     23940     23943
     23943     23946     23947     23943     23946     23948     23943     23946     23949
     23944     23943     23945     23944     23943     23946     23945     23943     23946
     23946     23949     23950     23946     23949     23951     23946     23949     23952
     23947     23946     23948     23947     23946     23949     23948     23946     23949
     23949     23952     23953     23949     23952     23954     23949     23952     23955
     23950     23949     23951     23950     23949     23952     23951     23949     23952
     23952     23955     23956     23952     23955     23957     23952     23955     23958
     23953     23952     23954     23953     23952     23955     23954     23952     23955
     23956     23955     23957     23956     23955     23958     23957     23955     23958
     23959     23960     23961     23959     23960     23962     23959     23960     23975
     23959     23963     23964     23959     23963     23965     23959     23963     23966
     23959     23967     23968     23959     23967     23969     23959     23967     23970
     23959     23971     23972     23959     23971     23973     23959     23971     23974
     23960     23959     23963     23960     23959     23967     23960     23959     23971
     23960     23975     23976     23960     23975     23977     23960     23975     23981
     23961     23960     23962     23961     23960     23975     23962     23960     23975
     23963     23959     23967     23963     23959     23971     23964     23963     23965
     23964     23963     23966     23965     23963     23966     23967     23959     23971
     23968     23967     23969     23968     23967     23970     23969     23967     23970
     23972     23971     23973     23972     23971     23974     23973     23971     23974
     23975     23981     23978     23976     23975     23977     23976     23975     23981
     23977     23975     23981     23978     23982     23983     23979     23978     23980
     23979     23978     23981     23979     23978     23982     23980     23978     23981
     23980     23978     23982     23981     23978     23982     23982     23983     23984
     23982     23983     23985     23982     23983     23986     23983     23986     23987
     23983     23986     23988     23983     23986     23994     23984     23983     23985
     23984     23983     23986     23985     23983     23986     23986     23988     23989
     23986     23994     23995     23986     23994     23996     23986     23994     23997
     23987     23986     23988     23987     23986     23994     23988     23986     23994
     23988     23989     23990     23988     23989     23991     23989     23991     23992
     23989     23991     23993     23989     23991     24003     23990     23989     23991
     23991     24003     24004     23991     24003     24005     23991     24003     24006
     23992     23991     23993     23992     23991     24003     23993     23991     24003
     23994     23997     23998     23995     23994     23996     23995     23994     23997
     23996     23994     23997     23997     23998     23999     23997     23998     24000
     23998     24000     24001     23998     24000     24002     23998     24000     24050
     23999     23998     24000     24000     24050     24051     24000     24050     24052
     24000     24050     24053     24001     24000     24002     24001     24000     24050
     24002     24000     24050     24003     24006     24007     24003     24006     24008
     24003     24006     24009     24004     24003     24005     24004     24003     24006
     24005     24003     24006     24006     24009     24010     24006     24009     24011
     24006     24009     24012     24007     24006     24008     24007     24006     24009
     24008     24006     24009     24009     24012     24013     24009     24012     24014
     24009     24012     24015     24010     24009     24011     24010     24009     24012
     24011     24009     24012     24012     24015     24016     24012     24015     24017
     24012     24015     24018     24013     24012     24014     24013     24012     24015
     24014     24012     24015     24015     24018     24019     24015     24018     24020
     24015     24018     24021     24016     24015     24017     24016     24015     24018
     24017     24015     24018     24018     24021     24022     24018     24021     24023
     24019     24018     24020     24019     24018     24021     24020     24018     24021
     24021     24023     24024     24021     24023     24025     24022     24021     24023
     24023     24025     24026     24023     24025     24027     24023     24025     24028
     24024     24023     24025     24025     24028     24029     24025     24028     24030
     24025     24028     24031     24026     24025     24027     24026     24025     24028
     24027     24025     24028     24028     24031     24032     24028     24031     24033
     24028     24031     24034     24029     24028     24030     24029     24028     24031
     24030     24028     24031     24031     24034     24035     24031     24034     24036
     24031     24034     24037     24032     24031     24033     24032     24031     24034
     24033     24031     24034     24034     24037     24038     24034     24037     24039
     24034     24037     24040     24035     24034     24036     24035     24034     24037
     24036     24034     24037     24037     24040     24041     24037     24040     24042
     24037     24040     24043     24038     24037     24039     24038     24037     24040
     24039     24037     24040     24040     24043     24044     24040     24043     24045
     24040     24043     24046     24041     24040     24042     24041     24040     24043
     24042     24040     24043     24043     24046     24047     24043     24046     24048
     24043     24046     24049     24044     24043     24045     24044     24043     24046
     24045     24043     24046     24047     24046     24048     24047     24046     24049
     24048     24046     24049     24050     24053     24054     24050     24053     24055
     24050     24053     24056     24051     24050     24052     24051     24050     24053
     24052     24050     24053     24053     24056     24057     24053     24056     24058
     24053     24056     24059     24054     24053     24055     24054     24053     24056
     24055     24053     24056     24056     24059     24060     24056     24059     24061
     24056     24059     24062     24057     24056     24058     24057     24056     24059
     24058     24056     24059     24059     24062     24063     24059     24062     24064
     24059     24062     24065     24060     24059     24061     24060     24059     24062
     24061     24059     24062     24062     24065     24066     24062     24065     24067
     24062     24065     24068     24063     24062     24064     24063     24062     24065
     24064     24062     24065     24065     24068     24069     24065     24068     24070
     24065     24068     24071     24066     24065     24067     24066     24065     24068
     24067     24065     24068     24068     24071     24072     24068     24071     24073
     24068     24071     24074     24069     24068     24070     24069     24068     24071
     24070     24068     24071     24071     24074     24075     24071     24074     24076
     24071     24074     24077     24072     24071     24073     24072     24071     24074
     24073     24071     24074     24074     24077     24078     24074     24077     24079
     24074     24077     24080     24075     24074     24076     24075     24074     24077
     24076     24074     24077     24077     24080     24081     24077     24080     24082
     24077     24080     24083     24078     24077     24079     24078     24077     24080
     24079     24077     24080     24080     24083     24084     24080     24083     24085
     24080     24083     24086     24081     24080     24082     24081     24080     24083
     24082     24080     24083     24083     24086     24087     24083     24086     24088
     24083     24086     24089     24084     24083     24085     24084     24083     24086
     24085     24083     24086     24086     24089     24090     24086     24089     24091
     24086     24089     24092     24087     24086     24088     24087     24086     24089
     24088     24086     24089     24090     24089     24091     24090     24089     24092
     24091     24089     24092     24093     24094     24095     24093     24094     24096
     24093     24094     24109     24093     24097     24098     24093     24097     24099
     24093     24097     24100     24093     24101     24102     24093     24101     24103
     24093     24101     24104     24093     24105     24106     24093     24105     24107
     24093     24105     24108     24094     24093     24097     24094     24093     24101
     24094     24093     24105     24094     24109     24110     24094     24109     24111
     24094     24109     24115     24095     24094     24096     24095     24094     24109
     24096     24094     24109     24097     24093     24101     24097     24093     24105
     24098     24097     24099     24098     24097     24100     24099     24097     24100
     24101     24093     24105     24102     24101     24103     24102     24101     24104
     24103     24101     24104     24106     24105     24107     24106     24105     24108
     24107     24105     24108     24109     24115     24112     24110     24109     24111
     24110     24109     24115     24111     24109     24115     24112     24116     24117
     24113     24112     24114     24113     24112     24115     24113     24112     24116
     24114     24112     24115     24114     24112     24116     24115     24112     24116
     24116     24117     24118     24116     24117     24119     24116     24117     24120
     24117     24120     24121     24117     24120     24122     24117     24120     24128
     24118     24117     24119     24118     24117     24120     24119     24117     24120
     24120     24122     24123     24120     24128     24129     24120     24128     24130
     24120     24128     24131     24121     24120     24122     24121     24120     24128
     24122     24120     24128     24122     24123     24124     24122     24123     24125
     24123     24125     24126     24123     24125     24127     24123     24125     24137
     24124     24123     24125     24125     24137     24138     24125     24137     24139
     24125     24137     24140     24126     24125     24127     24126     24125     24137
     24127     24125     24137     24128     24131     24132     24129     24128     24130
     24129     24128     24131     24130     24128     24131     24131     24132     24133
     24131     24132     24134     24132     24134     24135     24132     24134     24136
     24132     24134     24184     24133     24132     24134     24134     24184     24185
     24134     24184     24186     24134     24184     24187     24135     24134     24136
     24135     24134     24184     24136     24134     24184     24137     24140     24141
     24137     24140     24142     24137     24140     24143     24138     24137     24139
     24138     24137     24140     24139     24137     24140     24140     24143     24144
     24140     24143     24145     24140     24143     24146     24141     24140     24142
     24141     24140     24143     24142     24140     24143     24143     24146     24147
     24143     24146     24148     24143     24146     24149     24144     24143     24145
     24144     24143     24146     24145     24143     24146     24146     24149     24150
     24146     24149     24151     24146     24149     24152     24147     24146     24148
     24147     24146     24149     24148     24146     24149     24149     24152     24153
     24149     24152     24154     24149     24152     24155     24150     24149     24151
     24150     24149     24152     24151     24149     24152     24152     24155     24156
     24152     24155     24157     24153     24152     24154     24153     24152     24155
     24154     24152     24155     24155     24157     24158     24155     24157     24159
     24156     24155     24157     24157     24159     24160     24157     24159     24161
     24157     24159     24162     24158     24157     24159     24159     24162     24163
     24159     24162     24164     24159     24162     24165     24160     24159     24161
     24160     24159     24162     24161     24159     24162     24162     24165     24166
     24162     24165     24167     24162     24165     24168     24163     24162     24164
     24163     24162     24165     24164     24162     24165     24165     24168     24169
     24165     24168     24170     24165     24168     24171     24166     24165     24167
     24166     24165     24168     24167     24165     24168     24168     24171     24172
     24168     24171     24173     24168     24171     24174     24169     24168     24170
     24169     24168     24171     24170     24168     24171     24171     24174     24175
     24171     24174     24176     24171     24174     24177     24172     24171     24173
     24172     24171     24174     24173     24171     24174     24174     24177     24178
     24174     24177     24179     24174     24177     24180     24175     24174     24176
     24175     24174     24177     24176     24174     24177     24177     24180     24181
     24177     24180     24182     24177     24180     24183     24178     24177     24179
     24178     24177     24180     24179     24177     24180     24181     24180     24182
     24181     24180     24183     24182     24180     24183     24184     24187     24188
     24184     24187     24189     24184     24187     24190     24185     24184     24186
     24185     24184     24187     24186     24184     24187     24187     24190     24191
     24187     24190     24192     24187     24190     24193     24188     24187     24189
     24188     24187     24190     24189     24187     24190     24190     24193     24194
     24190     24193     24195     24190     24193     24196     24191     24190     24192
     24191     24190     24193     24192     24190     24193     24193     24196     24197
     24193     24196     24198     24193     24196     24199     24194     24193     24195
     24194     24193     24196     24195     24193     24196     24196     24199     24200
     24196     24199     24201     24196     24199     24202     24197     24196     24198
     24197     24196     24199     24198     24196     24199     24199     24202     24203
     24199     24202     24204     24199     24202     24205     24200     24199     24201
     24200     24199     24202     24201     24199     24202     24202     24205     24206
     24202     24205     24207     24202     24205     24208     24203     24202     24204
     24203     24202     24205     24204     24202     24205     24205     24208     24209
     24205     24208     24210     24205     24208     24211     24206     24205     24207
     24206     24205     24208     24207     24205     24208     24208     24211     24212
     24208     24211     24213     24208     24211     24214     24209     24208     24210
     24209     24208     24211     24210     24208     24211     24211     24214     24215
     24211     24214     24216     24211     24214     24217     24212     24211     24213
     24212     24211     24214     24213     24211     24214     24214     24217     24218
     24214     24217     24219     24214     24217     24220     24215     24214     24216
     24215     24214     24217     24216     24214     24217     24217     24220     24221
     24217     24220     24222     24217     24220     24223     24218     24217     24219
     24218     24217     24220     24219     24217     24220     24220     24223     24224
     24220     24223     24225     24220     24223     24226     24221     24220     24222
     24221     24220     24223     24222     24220     24223     24224     24223     24225
     24224     24223     24226     24225     24223     24226     24227     24228     24229
     24227     24228     24230     24227     24228     24243     24227     24231     24232
     24227     24231     24233     24227     24231     24234     24227     24235     24236
     24227     24235     24237     24227     24235     24238     24227     24239     24240
     24227     24239     24241     24227     24239     24242     24228     24227     24231
     24228     24227     24235     24228     24227     24239     24228     24243     24244
     24228     24243     24245     24228     24243     24249     24229     24228     24230
     24229     24228     24243     24230     24228     24243     24231     24227     24235
     24231     24227     24239     24232     24231     24233     24232     24231     24234
     24233     24231     24234     24235     24227     24239     24236     24235     24237
     24236     24235     24238     24237     24235     24238     24240     24239     24241
     24240     24239     24242     24241     24239     24242     24243     24249     24246
     24244     24243     24245     24244     24243     24249     24245     24243     24249
     24246     24250     24251     24247     24246     24248     24247     24246     24249
     24247     24246     24250     24248     24246     24249     24248     24246     24250
     24249     24246     24250     24250     24251     24252     24250     24251     24253
     24250     24251     24254     24251     24254     24255     24251     24254     24256
     24251     24254     24262     24252     24251     24253     24252     24251     24254
     24253     24251     24254     24254     24256     24257     24254     24262     24263
     24254     24262     24264     24254     24262     24265     24255     24254     24256
     24255     24254     24262     24256     24254     24262     24256     24257     24258
     24256     24257     24259     24257     24259     24260     24257     24259     24261
     24257     24259     24271     24258     24257     24259     24259     24271     24272
     24259     24271     24273     24259     24271     24274     24260     24259     24261
     24260     24259     24271     24261     24259     24271     24262     24265     24266
     24263     24262     24264     24263     24262     24265     24264     24262     24265
     24265     24266     24267     24265     24266     24268     24266     24268     24269
     24266     24268     24270     24266     24268     24318     24267     24266     24268
     24268     24318     24319     24268     24318     24320     24268     24318     24321
     24269     24268     24270     24269     24268     24318     24270     24268     24318
     24271     24274     24275     24271     24274     24276     24271     24274     24277
     24272     24271     24273     24272     24271     24274     24273     24271     24274
     24274     24277     24278     24274     24277     24279     24274     24277     24280
     24275     24274     24276     24275     24274     24277     24276     24274     24277
     24277     24280     24281     24277     24280     24282     24277     24280     24283
     24278     24277     24279     24278     24277     24280     24279     24277     24280
     24280     24283     24284     24280     24283     24285     24280     24283     24286
     24281     24280     24282     24281     24280     24283     24282     24280     24283
     24283     24286     24287     24283     24286     24288     24283     24286     24289
     24284     24283     24285     24284     24283     24286     24285     24283     24286
     24286     24289     24290     24286     24289     24291     24287     24286     24288
     24287     24286     24289     24288     24286     24289     24289     24291     24292
     24289     24291     24293     24290     24289     24291     24291     24293     24294
     24291     24293     24295     24291     24293     24296     24292     24291     24293
     24293     24296     24297     24293     24296     24298     24293     24296     24299
     24294     24293     24295     24294     24293     24296     24295     24293     24296
     24296     24299     24300     24296     24299     24301     24296     24299     24302
     24297     24296     24298     24297     24296     24299     24298     24296     24299
     24299     24302     24303     24299     24302     24304     24299     24302     24305
     24300     24299     24301     24300     24299     24302     24301     24299     24302
     24302     24305     24306     24302     24305     24307     24302     24305     24308
     24303     24302     24304     24303     24302     24305     24304     24302     24305
     24305     24308     24309     24305     24308     24310     24305     24308     24311
     24306     24305     24307     24306     24305     24308     24307     24305     24308
     24308     24311     24312     24308     24311     24313     24308     24311     24314
     24309     24308     24310     24309     24308     24311     24310     24308     24311
     24311     24314     24315     24311     24314     24316     24311     24314     24317
     24312     24311     24313     24312     24311     24314     24313     24311     24314
     24315     24314     24316     24315     24314     24317     24316     24314     24317
     24318     24321     24322     24318     24321     24323     24318     24321     24324
     24319     24318     24320     24319     24318     24321     24320     24318     24321
     24321     24324     24325     24321     24324     24326     24321     24324     24327
     24322     24321     24323     24322     24321     24324     24323     24321     24324
     24324     24327     24328     24324     24327     24329     24324     24327     24330
     24325     24324     24326     24325     24324     24327     24326     24324     24327
     24327     24330     24331     24327     24330     24332     24327     24330     24333
     24328     24327     24329     24328     24327     24330     24329     24327     24330
     24330     24333     24334     24330     24333     24335     24330     24333     24336
     24331     24330     24332     24331     24330     24333     24332     24330     24333
     24333     24336     24337     24333     24336     24338     24333     24336     24339
     24334     24333     24335     24334     24333     24336     24335     24333     24336
     24336     24339     24340     24336     24339     24341     24336     24339     24342
     24337     24336     24338     24337     24336     24339     24338     24336     24339
     24339     24342     24343     24339     24342     24344     24339     24342     24345
     24340     24339     24341     24340     24339     24342     24341     24339     24342
     24342     24345     24346     24342     24345     24347     24342     24345     24348
     24343     24342     24344     24343     24342     24345     24344     24342     24345
     24345     24348     24349     24345     24348     24350     24345     24348     24351
     24346     24345     24347     24346     24345     24348     24347     24345     24348
     24348     24351     24352     24348     24351     24353     24348     24351     24354
     24349     24348     24350     24349     24348     24351     24350     24348     24351
     24351     24354     24355     24351     24354     24356     24351     24354     24357
     24352     24351     24353     24352     24351     24354     24353     24351     24354
     24354     24357     24358     24354     24357     24359     24354     24357     24360
     24355     24354     24356     24355     24354     24357     24356     24354     24357
     24358     24357     24359     24358     24357     24360     24359     24357     24360
     24361     24362     24363     24361     24362     24364     24361     24362     24377
     24361     24365     24366     24361     24365     24367     24361     24365     24368
     24361     24369     24370     24361     24369     24371     24361     24369     24372
     24361     24373     24374     24361     24373     24375     24361     24373     24376
     24362     24361     24365     24362     24361     24369     24362     24361     24373
     24362     24377     24378     24362     24377     24379     24362     24377     24383
     24363     24362     24364     24363     24362     24377     24364     24362     24377
     24365     24361     24369     24365     24361     24373     24366     24365     24367
     24366     24365     24368     24367     24365     24368     24369     24361     24373
     24370     24369     24371     24370     24369     24372     24371     24369     24372
     24374     24373     24375     24374     24373     24376     24375     24373     24376
     24377     24383     24380     24378     24377     24379     24378     24377     24383
     24379     24377     24383     24380     24384     24385     24381     24380     24382
     24381     24380     24383     24381     24380     24384     24382     24380     24383
     24382     24380     24384     24383     24380     24384     24384     24385     24386
     24384     24385     24387     24384     24385     24388     24385     24388     24389
     24385     24388     24390     24385     24388     24396     24386     24385     24387
     24386     24385     24388     24387     24385     24388     24388     24390     24391
     24388     24396     24397     24388     24396     24398     24388     24396     24399
     24389     24388     24390     24389     24388     24396     24390     24388     24396
     24390     24391     24392     24390     24391     24393     24391     24393     24394
     24391     24393     24395     24391     24393     24405     24392     24391     24393
     24393     24405     24406     24393     24405     24407     24393     24405     24408
     24394     24393     24395     24394     24393     24405     24395     24393     24405
     24396     24399     24400     24397     24396     24398     24397     24396     24399
     24398     24396     24399     24399     24400     24401     24399     24400     24402
     24400     24402     24403     24400     24402     24404     24400     24402     24452
     24401     24400     24402     24402     24452     24453     24402     24452     24454
     24402     24452     24455     24403     24402     24404     24403     24402     24452
     24404     24402     24452     24405     24408     24409     24405     24408     24410
     24405     24408     24411     24406     24405     24407     24406     24405     24408
     24407     24405     24408     24408     24411     24412     24408     24411     24413
     24408     24411     24414     24409     24408     24410     24409     24408     24411
     24410     24408     24411     24411     24414     24415     24411     24414     24416
     24411     24414     24417     24412     24411     24413     24412     24411     24414
     24413     24411     24414     24414     24417     24418     24414     24417     24419
     24414     24417     24420     24415     24414     24416     24415     24414     24417
     24416     24414     24417     24417     24420     24421     24417     24420     24422
     24417     24420     24423     24418     24417     24419     24418     24417     24420
     24419     24417     24420     24420     24423     24424     24420     24423     24425
     24421     24420     24422     24421     24420     24423     24422     24420     24423
     24423     24425     24426     24423     24425     24427     24424     24423     24425
     24425     24427     24428     24425     24427     24429     24425     24427     24430
     24426     24425     24427     24427     24430     24431     24427     24430     24432
     24427     24430     24433     24428     24427     24429     24428     24427     24430
     24429     24427     24430     24430     24433     24434     24430     24433     24435
     24430     24433     24436     24431     24430     24432     24431     24430     24433
     24432     24430     24433     24433     24436     24437     24433     24436     24438
     24433     24436     24439     24434     24433     24435     24434     24433     24436
     24435     24433     24436     24436     24439     24440     24436     24439     24441
     24436     24439     24442     24437     24436     24438     24437     24436     24439
     24438     24436     24439     24439     24442     24443     24439     24442     24444
     24439     24442     24445     24440     24439     24441     24440     24439     24442
     24441     24439     24442     24442     24445     24446     24442     24445     24447
     24442     24445     24448     24443     24442     24444     24443     24442     24445
     24444     24442     24445     24445     24448     24449     24445     24448     24450
     24445     24448     24451     24446     24445     24447     24446     24445     24448
     24447     24445     24448     24449     24448     24450     24449     24448     24451
     24450     24448     24451     24452     24455     24456     24452     24455     24457
     24452     24455     24458     24453     24452     24454     24453     24452     24455
     24454     24452     24455     24455     24458     24459     24455     24458     24460
     24455     24458     24461     24456     24455     24457     24456     24455     24458
     24457     24455     24458     24458     24461     24462     24458     24461     24463
     24458     24461     24464     24459     24458     24460     24459     24458     24461
     24460     24458     24461     24461     24464     24465     24461     24464     24466
     24461     24464     24467     24462     24461     24463     24462     24461     24464
     24463     24461     24464     24464     24467     24468     24464     24467     24469
     24464     24467     24470     24465     24464     24466     24465     24464     24467
     24466     24464     24467     24467     24470     24471     24467     24470     24472
     24467     24470     24473     24468     24467     24469     24468     24467     24470
     24469     24467     24470     24470     24473     24474     24470     24473     24475
     24470     24473     24476     24471     24470     24472     24471     24470     24473
     24472     24470     24473     24473     24476     24477     24473     24476     24478
     24473     24476     24479     24474     24473     24475     24474     24473     24476
     24475     24473     24476     24476     24479     24480     24476     24479     24481
     24476     24479     24482     24477     24476     24478     24477     24476     24479
     24478     24476     24479     24479     24482     24483     24479     24482     24484
     24479     24482     24485     24480     24479     24481     24480     24479     24482
     24481     24479     24482     24482     24485     24486     24482     24485     24487
     24482     24485     24488     24483     24482     24484     24483     24482     24485
     24484     24482     24485     24485     24488     24489     24485     24488     24490
     24485     24488     24491     24486     24485     24487     24486     24485     24488
     24487     24485     24488     24488     24491     24492     24488     24491     24493
     24488     24491     24494     24489     24488     24490     24489     24488     24491
     24490     24488     24491     24492     24491     24493     24492     24491     24494
     24493     24491     24494     24495     24496     24497     24495     24496     24498
     24495     24496     24511     24495     24499     24500     24495     24499     24501
     24495     24499     24502     24495     24503     24504     24495     24503     24505
     24495     24503     24506     24495     24507     24508     24495     24507     24509
     24495     24507     24510     24496     24495     24499     24496     24495     24503
     24496     24495     24507     24496     24511     24512     24496     24511     24513
     24496     24511     24517     24497     24496     24498     24497     24496     24511
     24498     24496     24511     24499     24495     24503     24499     24495     24507
     24500     24499     24501     24500     24499     24502     24501     24499     24502
     24503     24495     24507     24504     24503     24505     24504     24503     24506
     24505     24503     24506     24508     24507     24509     24508     24507     24510
     24509     24507     24510     24511     24517     24514     24512     24511     24513
     24512     24511     24517     24513     24511     24517     24514     24518     24519
     24515     24514     24516     24515     24514     24517     24515     24514     24518
     24516     24514     24517     24516     24514     24518     24517     24514     24518
     24518     24519     24520     24518     24519     24521     24518     24519     24522
     24519     24522     24523     24519     24522     24524     24519     24522     24530
     24520     24519     24521     24520     24519     24522     24521     24519     24522
     24522     24524     24525     24522     24530     24531     24522     24530     24532
     24522     24530     24533     24523     24522     24524     24523     24522     24530
     24524     24522     24530     24524     24525     24526     24524     24525     24527
     24525     24527     24528     24525     24527     24529     24525     24527     24539
     24526     24525     24527     24527     24539     24540     24527     24539     24541
     24527     24539     24542     24528     24527     24529     24528     24527     24539
     24529     24527     24539     24530     24533     24534     24531     24530     24532
     24531     24530     24533     24532     24530     24533     24533     24534     24535
     24533     24534     24536     24534     24536     24537     24534     24536     24538
     24534     24536     24586     24535     24534     24536     24536     24586     24587
     24536     24586     24588     24536     24586     24589     24537     24536     24538
     24537     24536     24586     24538     24536     24586     24539     24542     24543
     24539     24542     24544     24539     24542     24545     24540     24539     24541
     24540     24539     24542     24541     24539     24542     24542     24545     24546
     24542     24545     24547     24542     24545     24548     24543     24542     24544
     24543     24542     24545     24544     24542     24545     24545     24548     24549
     24545     24548     24550     24545     24548     24551     24546     24545     24547
     24546     24545     24548     24547     24545     24548     24548     24551     24552
     24548     24551     24553     24548     24551     24554     24549     24548     24550
     24549     24548     24551     24550     24548     24551     24551     24554     24555
     24551     24554     24556     24551     24554     24557     24552     24551     24553
     24552     24551     24554     24553     24551     24554     24554     24557     24558
     24554     24557     24559     24555     24554     24556     24555     24554     24557
     24556     24554     24557     24557     24559     24560     24557     24559     24561
     24558     24557     24559     24559     24561     24562     24559     24561     24563
     24559     24561     24564     24560     24559     24561     24561     24564     24565
     24561     24564     24566     24561     24564     24567     24562     24561     24563
     24562     24561     24564     24563     24561     24564     24564     24567     24568
     24564     24567     24569     24564     24567     24570     24565     24564     24566
     24565     24564     24567     24566     24564     24567     24567     24570     24571
     24567     24570     24572     24567     24570     24573     24568     24567     24569
     24568     24567     24570     24569     24567     24570     24570     24573     24574
     24570     24573     24575     24570     24573     24576     24571     24570     24572
     24571     24570     24573     24572     24570     24573     24573     24576     24577
     24573     24576     24578     24573     24576     24579     24574     24573     24575
     24574     24573     24576     24575     24573     24576     24576     24579     24580
     24576     24579     24581     24576     24579     24582     24577     24576     24578
     24577     24576     24579     24578     24576     24579     24579     24582     24583
     24579     24582     24584     24579     24582     24585     24580     24579     24581
     24580     24579     24582     24581     24579     24582     24583     24582     24584
     24583     24582     24585     24584     24582     24585     24586     24589     24590
     24586     24589     24591     24586     24589     24592     24587     24586     24588
     24587     24586     24589     24588     24586     24589     24589     24592     24593
     24589     24592     24594     24589     24592     24595     24590     24589     24591
     24590     24589     24592     24591     24589     24592     24592     24595     24596
     24592     24595     24597     24592     24595     24598     24593     24592     24594
     24593     24592     24595     24594     24592     24595     24595     24598     24599
     24595     24598     24600     24595     24598     24601     24596     24595     24597
     24596     24595     24598     24597     24595     24598     24598     24601     24602
     24598     24601     24603     24598     24601     24604     24599     24598     24600
     24599     24598     24601     24600     24598     24601     24601     24604     24605
     24601     24604     24606     24601     24604     24607     24602     24601     24603
     24602     24601     24604     24603     24601     24604     24604     24607     24608
     24604     24607     24609     24604     24607     24610     24605     24604     24606
     24605     24604     24607     24606     24604     24607     24607     24610     24611
     24607     24610     24612     24607     24610     24613     24608     24607     24609
     24608     24607     24610     24609     24607     24610     24610     24613     24614
     24610     24613     24615     24610     24613     24616     24611     24610     24612
     24611     24610     24613     24612     24610     24613     24613     24616     24617
     24613     24616     24618     24613     24616     24619     24614     24613     24615
     24614     24613     24616     24615     24613     24616     24616     24619     24620
     24616     24619     24621     24616     24619     24622     24617     24616     24618
     24617     24616     24619     24618     24616     24619     24619     24622     24623
     24619     24622     24624     24619     24622     24625     24620     24619     24621
     24620     24619     24622     24621     24619     24622     24622     24625     24626
     24622     24625     24627     24622     24625     24628     24623     24622     24624
     24623     24622     24625     24624     24622     24625     24626     24625     24627
     24626     24625     24628     24627     24625     24628     24629     24630     24631
     24629     24630     24632     24629     24630     24645     24629     24633     24634
     24629     24633     24635     24629     24633     24636     24629     24637     24638
     24629     24637     24639     24629     24637     24640     24629     24641     24642
     24629     24641     24643     24629     24641     24644     24630     24629     24633
     24630     24629     24637     24630     24629     24641     24630     24645     24646
     24630     24645     24647     24630     24645     24651     24631     24630     24632
     24631     24630     24645     24632     24630     24645     24633     24629     24637
     24633     24629     24641     24634     24633     24635     24634     24633     24636
     24635     24633     24636     24637     24629     24641     24638     24637     24639
     24638     24637     24640     24639     24637     24640     24642     24641     24643
     24642     24641     24644     24643     24641     24644     24645     24651     24648
     24646     24645     24647     24646     24645     24651     24647     24645     24651
     24648     24652     24653     24649     24648     24650     24649     24648     24651
     24649     24648     24652     24650     24648     24651     24650     24648     24652
     24651     24648     24652     24652     24653     24654     24652     24653     24655
     24652     24653     24656     24653     24656     24657     24653     24656     24658
     24653     24656     24664     24654     24653     24655     24654     24653     24656
     24655     24653     24656     24656     24658     24659     24656     24664     24665
     24656     24664     24666     24656     24664     24667     24657     24656     24658
     24657     24656     24664     24658     24656     24664     24658     24659     24660
     24658     24659     24661     24659     24661     24662     24659     24661     24663
     24659     24661     24673     24660     24659     24661     24661     24673     24674
     24661     24673     24675     24661     24673     24676     24662     24661     24663
     24662     24661     24673     24663     24661     24673     24664     24667     24668
     24665     24664     24666     24665     24664     24667     24666     24664     24667
     24667     24668     24669     24667     24668     24670     24668     24670     24671
     24668     24670     24672     24668     24670     24720     24669     24668     24670
     24670     24720     24721     24670     24720     24722     24670     24720     24723
     24671     24670     24672     24671     24670     24720     24672     24670     24720
     24673     24676     24677     24673     24676     24678     24673     24676     24679
     24674     24673     24675     24674     24673     24676     24675     24673     24676
     24676     24679     24680     24676     24679     24681     24676     24679     24682
     24677     24676     24678     24677     24676     24679     24678     24676     24679
     24679     24682     24683     24679     24682     24684     24679     24682     24685
     24680     24679     24681     24680     24679     24682     24681     24679     24682
     24682     24685     24686     24682     24685     24687     24682     24685     24688
     24683     24682     24684     24683     24682     24685     24684     24682     24685
     24685     24688     24689     24685     24688     24690     24685     24688     24691
     24686     24685     24687     24686     24685     24688     24687     24685     24688
     24688     24691     24692     24688     24691     24693     24689     24688     24690
     24689     24688     24691     24690     24688     24691     24691     24693     24694
     24691     24693     24695     24692     24691     24693     24693     24695     24696
     24693     24695     24697     24693     24695     24698     24694     24693     24695
     24695     24698     24699     24695     24698     24700     24695     24698     24701
     24696     24695     24697     24696     24695     24698     24697     24695     24698
     24698     24701     24702     24698     24701     24703     24698     24701     24704
     24699     24698     24700     24699     24698     24701     24700     24698     24701
     24701     24704     24705     24701     24704     24706     24701     24704     24707
     24702     24701     24703     24702     24701     24704     24703     24701     24704
     24704     24707     24708     24704     24707     24709     24704     24707     24710
     24705     24704     24706     24705     24704     24707     24706     24704     24707
     24707     24710     24711     24707     24710     24712     24707     24710     24713
     24708     24707     24709     24708     24707     24710     24709     24707     24710
     24710     24713     24714     24710     24713     24715     24710     24713     24716
     24711     24710     24712     24711     24710     24713     24712     24710     24713
     24713     24716     24717     24713     24716     24718     24713     24716     24719
     24714     24713     24715     24714     24713     24716     24715     24713     24716
     24717     24716     24718     24717     24716     24719     24718     24716     24719
     24720     24723     24724     24720     24723     24725     24720     24723     24726
     24721     24720     24722     24721     24720     24723     24722     24720     24723
     24723     24726     24727     24723     24726     24728     24723     24726     24729
     24724     24723     24725     24724     24723     24726     24725     24723     24726
     24726     24729     24730     24726     24729     24731     24726     24729     24732
     24727     24726     24728     24727     24726     24729     24728     24726     24729
     24729     24732     24733     24729     24732     24734     24729     24732     24735
     24730     24729     24731     24730     24729     24732     24731     24729     24732
     24732     24735     24736     24732     24735     24737     24732     24735     24738
     24733     24732     24734     24733     24732     24735     24734     24732     24735
     24735     24738     24739     24735     24738     24740     24735     24738     24741
     24736     24735     24737     24736     24735     24738     24737     24735     24738
     24738     24741     24742     24738     24741     24743     24738     24741     24744
     24739     24738     24740     24739     24738     24741     24740     24738     24741
     24741     24744     24745     24741     24744     24746     24741     24744     24747
     24742     24741     24743     24742     24741     24744     24743     24741     24744
     24744     24747     24748     24744     24747     24749     24744     24747     24750
     24745     24744     24746     24745     24744     24747     24746     24744     24747
     24747     24750     24751     24747     24750     24752     24747     24750     24753
     24748     24747     24749     24748     24747     24750     24749     24747     24750
     24750     24753     24754     24750     24753     24755     24750     24753     24756
     24751     24750     24752     24751     24750     24753     24752     24750     24753
     24753     24756     24757     24753     24756     24758     24753     24756     24759
     24754     24753     24755     24754     24753     24756     24755     24753     24756
     24756     24759     24760     24756     24759     24761     24756     24759     24762
     24757     24756     24758     24757     24756     24759     24758     24756     24759
     24760     24759     24761     24760     24759     24762     24761     24759     24762
     24763     24764     24765     24763     24764     24766     24763     24764     24779
     24763     24767     24768     24763     24767     24769     24763     24767     24770
     24763     24771     24772     24763     24771     24773     24763     24771     24774
     24763     24775     24776     24763     24775     24777     24763     24775     24778
     24764     24763     24767     24764     24763     24771     24764     24763     24775
     24764     24779     24780     24764     24779     24781     24764     24779     24785
     24765     24764     24766     24765     24764     24779     24766     24764     24779
     24767     24763     24771     24767     24763     24775     24768     24767     24769
     24768     24767     24770     24769     24767     24770     24771     24763     24775
     24772     24771     24773     24772     24771     24774     24773     24771     24774
     24776     24775     24777     24776     24775     24778     24777     24775     24778
     24779     24785     24782     24780     24779     24781     24780     24779     24785
     24781     24779     24785     24782     24786     24787     24783     24782     24784
     24783     24782     24785     24783     24782     24786     24784     24782     24785
     24784     24782     24786     24785     24782     24786     24786     24787     24788
     24786     24787     24789     24786     24787     24790     24787     24790     24791
     24787     24790     24792     24787     24790     24798     24788     24787     24789
     24788     24787     24790     24789     24787     24790     24790     24792     24793
     24790     24798     24799     24790     24798     24800     24790     24798     24801
     24791     24790     24792     24791     24790     24798     24792     24790     24798
     24792     24793     24794     24792     24793     24795     24793     24795     24796
     24793     24795     24797     24793     24795     24807     24794     24793     24795
     24795     24807     24808     24795     24807     24809     24795     24807     24810
     24796     24795     24797     24796     24795     24807     24797     24795     24807
     24798     24801     24802     24799     24798     24800     24799     24798     24801
     24800     24798     24801     24801     24802     24803     24801     24802     24804
     24802     24804     24805     24802     24804     24806     24802     24804     24854
     24803     24802     24804     24804     24854     24855     24804     24854     24856
     24804     24854     24857     24805     24804     24806     24805     24804     24854
     24806     24804     24854     24807     24810     24811     24807     24810     24812
     24807     24810     24813     24808     24807     24809     24808     24807     24810
     24809     24807     24810     24810     24813     24814     24810     24813     24815
     24810     24813     24816     24811     24810     24812     24811     24810     24813
     24812     24810     24813     24813     24816     24817     24813     24816     24818
     24813     24816     24819     24814     24813     24815     24814     24813     24816
     24815     24813     24816     24816     24819     24820     24816     24819     24821
     24816     24819     24822     24817     24816     24818     24817     24816     24819
     24818     24816     24819     24819     24822     24823     24819     24822     24824
     24819     24822     24825     24820     24819     24821     24820     24819     24822
     24821     24819     24822     24822     24825     24826     24822     24825     24827
     24823     24822     24824     24823     24822     24825     24824     24822     24825
     24825     24827     24828     24825     24827     24829     24826     24825     24827
     24827     24829     24830     24827     24829     24831     24827     24829     24832
     24828     24827     24829     24829     24832     24833     24829     24832     24834
     24829     24832     24835     24830     24829     24831     24830     24829     24832
     24831     24829     24832     24832     24835     24836     24832     24835     24837
     24832     24835     24838     24833     24832     24834     24833     24832     24835
     24834     24832     24835     24835     24838     24839     24835     24838     24840
     24835     24838     24841     24836     24835     24837     24836     24835     24838
     24837     24835     24838     24838     24841     24842     24838     24841     24843
     24838     24841     24844     24839     24838     24840     24839     24838     24841
     24840     24838     24841     24841     24844     24845     24841     24844     24846
     24841     24844     24847     24842     24841     24843     24842     24841     24844
     24843     24841     24844     24844     24847     24848     24844     24847     24849
     24844     24847     24850     24845     24844     24846     24845     24844     24847
     24846     24844     24847     24847     24850     24851     24847     24850     24852
     24847     24850     24853     24848     24847     24849     24848     24847     24850
     24849     24847     24850     24851     24850     24852     24851     24850     24853
     24852     24850     24853     24854     24857     24858     24854     24857     24859
     24854     24857     24860     24855     24854     24856     24855     24854     24857
     24856     24854     24857     24857     24860     24861     24857     24860     24862
     24857     24860     24863     24858     24857     24859     24858     24857     24860
     24859     24857     24860     24860     24863     24864     24860     24863     24865
     24860     24863     24866     24861     24860     24862     24861     24860     24863
     24862     24860     24863     24863     24866     24867     24863     24866     24868
     24863     24866     24869     24864     24863     24865     24864     24863     24866
     24865     24863     24866     24866     24869     24870     24866     24869     24871
     24866     24869     24872     24867     24866     24868     24867     24866     24869
     24868     24866     24869     24869     24872     24873     24869     24872     24874
     24869     24872     24875     24870     24869     24871     24870     24869     24872
     24871     24869     24872     24872     24875     24876     24872     24875     24877
     24872     24875     24878     24873     24872     24874     24873     24872     24875
     24874     24872     24875     24875     24878     24879     24875     24878     24880
     24875     24878     24881     24876     24875     24877     24876     24875     24878
     24877     24875     24878     24878     24881     24882     24878     24881     24883
     24878     24881     24884     24879     24878     24880     24879     24878     24881
     24880     24878     24881     24881     24884     24885     24881     24884     24886
     24881     24884     24887     24882     24881     24883     24882     24881     24884
     24883     24881     24884     24884     24887     24888     24884     24887     24889
     24884     24887     24890     24885     24884     24886     24885     24884     24887
     24886     24884     24887     24887     24890     24891     24887     24890     24892
     24887     24890     24893     24888     24887     24889     24888     24887     24890
     24889     24887     24890     24890     24893     24894     24890     24893     24895
     24890     24893     24896     24891     24890     24892     24891     24890     24893
     24892     24890     24893     24894     24893     24895     24894     24893     24896
     24895     24893     24896     24897     24898     24899     24897     24898     24900
     24897     24898     24913     24897     24901     24902     24897     24901     24903
     24897     24901     24904     24897     24905     24906     24897     24905     24907
     24897     24905     24908     24897     24909     24910     24897     24909     24911
     24897     24909     24912     24898     24897     24901     24898     24897     24905
     24898     24897     24909     24898     24913     24914     24898     24913     24915
     24898     24913     24919     24899     24898     24900     24899     24898     24913
     24900     24898     24913     24901     24897     24905     24901     24897     24909
     24902     24901     24903     24902     24901     24904     24903     24901     24904
     24905     24897     24909     24906     24905     24907     24906     24905     24908
     24907     24905     24908     24910     24909     24911     24910     24909     24912
     24911     24909     24912     24913     24919     24916     24914     24913     24915
     24914     24913     24919     24915     24913     24919     24916     24920     24921
     24917     24916     24918     24917     24916     24919     24917     24916     24920
     24918     24916     24919     24918     24916     24920     24919     24916     24920
     24920     24921     24922     24920     24921     24923     24920     24921     24924
     24921     24924     24925     24921     24924     24926     24921     24924     24932
     24922     24921     24923     24922     24921     24924     24923     24921     24924
     24924     24926     24927     24924     24932     24933     24924     24932     24934
     24924     24932     24935     24925     24924     24926     24925     24924     24932
     24926     24924     24932     24926     24927     24928     24926     24927     24929
     24927     24929     24930     24927     24929     24931     24927     24929     24941
     24928     24927     24929     24929     24941     24942     24929     24941     24943
     24929     24941     24944     24930     24929     24931     24930     24929     24941
     24931     24929     24941     24932     24935     24936     24933     24932     24934
     24933     24932     24935     24934     24932     24935     24935     24936     24937
     24935     24936     24938     24936     24938     24939     24936     24938     24940
     24936     24938     24988     24937     24936     24938     24938     24988     24989
     24938     24988     24990     24938     24988     24991     24939     24938     24940
     24939     24938     24988     24940     24938     24988     24941     24944     24945
     24941     24944     24946     24941     24944     24947     24942     24941     24943
     24942     24941     24944     24943     24941     24944     24944     24947     24948
     24944     24947     24949     24944     24947     24950     24945     24944     24946
     24945     24944     24947     24946     24944     24947     24947     24950     24951
     24947     24950     24952     24947     24950     24953     24948     24947     24949
     24948     24947     24950     24949     24947     24950     24950     24953     24954
     24950     24953     24955     24950     24953     24956     24951     24950     24952
     24951     24950     24953     24952     24950     24953     24953     24956     24957
     24953     24956     24958     24953     24956     24959     24954     24953     24955
     24954     24953     24956     24955     24953     24956     24956     24959     24960
     24956     24959     24961     24957     24956     24958     24957     24956     24959
     24958     24956     24959     24959     24961     24962     24959     24961     24963
     24960     24959     24961     24961     24963     24964     24961     24963     24965
     24961     24963     24966     24962     24961     24963     24963     24966     24967
     24963     24966     24968     24963     24966     24969     24964     24963     24965
     24964     24963     24966     24965     24963     24966     24966     24969     24970
     24966     24969     24971     24966     24969     24972     24967     24966     24968
     24967     24966     24969     24968     24966     24969     24969     24972     24973
     24969     24972     24974     24969     24972     24975     24970     24969     24971
     24970     24969     24972     24971     24969     24972     24972     24975     24976
     24972     24975     24977     24972     24975     24978     24973     24972     24974
     24973     24972     24975     24974     24972     24975     24975     24978     24979
     24975     24978     24980     24975     24978     24981     24976     24975     24977
     24976     24975     24978     24977     24975     24978     24978     24981     24982
     24978     24981     24983     24978     24981     24984     24979     24978     24980
     24979     24978     24981     24980     24978     24981     24981     24984     24985
     24981     24984     24986     24981     24984     24987     24982     24981     24983
     24982     24981     24984     24983     24981     24984     24985     24984     24986
     24985     24984     24987     24986     24984     24987     24988     24991     24992
     24988     24991     24993     24988     24991     24994     24989     24988     24990
     24989     24988     24991     24990     24988     24991     24991     24994     24995
     24991     24994     24996     24991     24994     24997     24992     24991     24993
     24992     24991     24994     24993     24991     24994     24994     24997     24998
     24994     24997     24999     24994     24997     25000     24995     24994     24996
     24995     24994     24997     24996     24994     24997     24997     25000     25001
     24997     25000     25002     24997     25000     25003     24998     24997     24999
     24998     24997     25000     24999     24997     25000     25000     25003     25004
     25000     25003     25005     25000     25003     25006     25001     25000     25002
     25001     25000     25003     25002     25000     25003     25003     25006     25007
     25003     25006     25008     25003     25006     25009     25004     25003     25005
     25004     25003     25006     25005     25003     25006     25006     25009     25010
     25006     25009     25011     25006     25009     25012     25007     25006     25008
     25007     25006     25009     25008     25006     25009     25009     25012     25013
     25009     25012     25014     25009     25012     25015     25010     25009     25011
     25010     25009     25012     25011     25009     25012     25012     25015     25016
     25012     25015     25017     25012     25015     25018     25013     25012     25014
     25013     25012     25015     25014     25012     25015     25015     25018     25019
     25015     25018     25020     25015     25018     25021     25016     25015     25017
     25016     25015     25018     25017     25015     25018     25018     25021     25022
     25018     25021     25023     25018     25021     25024     25019     25018     25020
     25019     25018     25021     25020     25018     25021     25021     25024     25025
     25021     25024     25026     25021     25024     25027     25022     25021     25023
     25022     25021     25024     25023     25021     25024     25024     25027     25028
     25024     25027     25029     25024     25027     25030     25025     25024     25026
     25025     25024     25027     25026     25024     25027     25028     25027     25029
     25028     25027     25030     25029     25027     25030     25031     25032     25033
     25031     25032     25034     25031     25032     25047     25031     25035     25036
     25031     25035     25037     25031     25035     25038     25031     25039     25040
     25031     25039     25041     25031     25039     25042     25031     25043     25044
     25031     25043     25045     25031     25043     25046     25032     25031     25035
     25032     25031     25039     25032     25031     25043     25032     25047     25048
     25032     25047     25049     25032     25047     25053     25033     25032     25034
     25033     25032     25047     25034     25032     25047     25035     25031     25039
     25035     25031     25043     25036     25035     25037     25036     25035     25038
     25037     25035     25038     25039     25031     25043     25040     25039     25041
     25040     25039     25042     25041     25039     25042     25044     25043     25045
     25044     25043     25046     25045     25043     25046     25047     25053     25050
     25048     25047     25049     25048     25047     25053     25049     25047     25053
     25050     25054     25055     25051     25050     25052     25051     25050     25053
     25051     25050     25054     25052     25050     25053     25052     25050     25054
     25053     25050     25054     25054     25055     25056     25054     25055     25057
     25054     25055     25058     25055     25058     25059     25055     25058     25060
     25055     25058     25066     25056     25055     25057     25056     25055     25058
     25057     25055     25058     25058     25060     25061     25058     25066     25067
     25058     25066     25068     25058     25066     25069     25059     25058     25060
     25059     25058     25066     25060     25058     25066     25060     25061     25062
     25060     25061     25063     25061     25063     25064     25061     25063     25065
     25061     25063     25075     25062     25061     25063     25063     25075     25076
     25063     25075     25077     25063     25075     25078     25064     25063     25065
     25064     25063     25075     25065     25063     25075     25066     25069     25070
     25067     25066     25068     25067     25066     25069     25068     25066     25069
     25069     25070     25071     25069     25070     25072     25070     25072     25073
     25070     25072     25074     25070     25072     25122     25071     25070     25072
     25072     25122     25123     25072     25122     25124     25072     25122     25125
     25073     25072     25074     25073     25072     25122     25074     25072     25122
     25075     25078     25079     25075     25078     25080     25075     25078     25081
     25076     25075     25077     25076     25075     25078     25077     25075     25078
     25078     25081     25082     25078     25081     25083     25078     25081     25084
     25079     25078     25080     25079     25078     25081     25080     25078     25081
     25081     25084     25085     25081     25084     25086     25081     25084     25087
     25082     25081     25083     25082     25081     25084     25083     25081     25084
     25084     25087     25088     25084     25087     25089     25084     25087     25090
     25085     25084     25086     25085     25084     25087     25086     25084     25087
     25087     25090     25091     25087     25090     25092     25087     25090     25093
     25088     25087     25089     25088     25087     25090     25089     25087     25090
     25090     25093     25094     25090     25093     25095     25091     25090     25092
     25091     25090     25093     25092     25090     25093     25093     25095     25096
     25093     25095     25097     25094     25093     25095     25095     25097     25098
     25095     25097     25099     25095     25097     25100     25096     25095     25097
     25097     25100     25101     25097     25100     25102     25097     25100     25103
     25098     25097     25099     25098     25097     25100     25099     25097     25100
     25100     25103     25104     25100     25103     25105     25100     25103     25106
     25101     25100     25102     25101     25100     25103     25102     25100     25103
     25103     25106     25107     25103     25106     25108     25103     25106     25109
     25104     25103     25105     25104     25103     25106     25105     25103     25106
     25106     25109     25110     25106     25109     25111     25106     25109     25112
     25107     25106     25108     25107     25106     25109     25108     25106     25109
     25109     25112     25113     25109     25112     25114     25109     25112     25115
     25110     25109     25111     25110     25109     25112     25111     25109     25112
     25112     25115     25116     25112     25115     25117     25112     25115     25118
     25113     25112     25114     25113     25112     25115     25114     25112     25115
     25115     25118     25119     25115     25118     25120     25115     25118     25121
     25116     25115     25117     25116     25115     25118     25117     25115     25118
     25119     25118     25120     25119     25118     25121     25120     25118     25121
     25122     25125     25126     25122     25125     25127     25122     25125     25128
     25123     25122     25124     25123     25122     25125     25124     25122     25125
     25125     25128     25129     25125     25128     25130     25125     25128     25131
     25126     25125     25127     25126     25125     25128     25127     25125     25128
     25128     25131     25132     25128     25131     25133     25128     25131     25134
     25129     25128     25130     25129     25128     25131     25130     25128     25131
     25131     25134     25135     25131     25134     25136     25131     25134     25137
     25132     25131     25133     25132     25131     25134     25133     25131     25134
     25134     25137     25138     25134     25137     25139     25134     25137     25140
     25135     25134     25136     25135     25134     25137     25136     25134     25137
     25137     25140     25141     25137     25140     25142     25137     25140     25143
     25138     25137     25139     25138     25137     25140     25139     25137     25140
     25140     25143     25144     25140     25143     25145     25140     25143     25146
     25141     25140     25142     25141     25140     25143     25142     25140     25143
     25143     25146     25147     25143     25146     25148     25143     25146     25149
     25144     25143     25145     25144     25143     25146     25145     25143     25146
     25146     25149     25150     25146     25149     25151     25146     25149     25152
     25147     25146     25148     25147     25146     25149     25148     25146     25149
     25149     25152     25153     25149     25152     25154     25149     25152     25155
     25150     25149     25151     25150     25149     25152     25151     25149     25152
     25152     25155     25156     25152     25155     25157     25152     25155     25158
     25153     25152     25154     25153     25152     25155     25154     25152     25155
     25155     25158     25159     25155     25158     25160     25155     25158     25161
     25156     25155     25157     25156     25155     25158     25157     25155     25158
     25158     25161     25162     25158     25161     25163     25158     25161     25164
     25159     25158     25160     25159     25158     25161     25160     25158     25161
     25162     25161     25163     25162     25161     25164     25163     25161     25164
     25165     25166     25167     25165     25166     25168     25165     25166     25181
     25165     25169     25170     25165     25169     25171     25165     25169     25172
     25165     25173     25174     25165     25173     25175     25165     25173     25176
     25165     25177     25178     25165     25177     25179     25165     25177     25180
     25166     25165     25169     25166     25165     25173     25166     25165     25177
     25166     25181     25182     25166     25181     25183     25166     25181     25187
     25167     25166     25168     25167     25166     25181     25168     25166     25181
     25169     25165     25173     25169     25165     25177     25170     25169     25171
     25170     25169     25172     25171     25169     25172     25173     25165     25177
     25174     25173     25175     25174     25173     25176     25175     25173     25176
     25178     25177     25179     25178     25177     25180     25179     25177     25180
     25181     25187     25184     25182     25181     25183     25182     25181     25187
     25183     25181     25187     25184     25188     25189     25185     25184     25186
     25185     25184     25187     25185     25184     25188     25186     25184     25187
     25186     25184     25188     25187     25184     25188     25188     25189     25190
     25188     25189     25191     25188     25189     25192     25189     25192     25193
     25189     25192     25194     25189     25192     25200     25190     25189     25191
     25190     25189     25192     25191     25189     25192     25192     25194     25195
     25192     25200     25201     25192     25200     25202     25192     25200     25203
     25193     25192     25194     25193     25192     25200     25194     25192     25200
     25194     25195     25196     25194     25195     25197     25195     25197     25198
     25195     25197     25199     25195     25197     25209     25196     25195     25197
     25197     25209     25210     25197     25209     25211     25197     25209     25212
     25198     25197     25199     25198     25197     25209     25199     25197     25209
     25200     25203     25204     25201     25200     25202     25201     25200     25203
     25202     25200     25203     25203     25204     25205     25203     25204     25206
     25204     25206     25207     25204     25206     25208     25204     25206     25256
     25205     25204     25206     25206     25256     25257     25206     25256     25258
     25206     25256     25259     25207     25206     25208     25207     25206     25256
     25208     25206     25256     25209     25212     25213     25209     25212     25214
     25209     25212     25215     25210     25209     25211     25210     25209     25212
     25211     25209     25212     25212     25215     25216     25212     25215     25217
     25212     25215     25218     25213     25212     25214     25213     25212     25215
     25214     25212     25215     25215     25218     25219     25215     25218     25220
     25215     25218     25221     25216     25215     25217     25216     25215     25218
     25217     25215     25218     25218     25221     25222     25218     25221     25223
     25218     25221     25224     25219     25218     25220     25219     25218     25221
     25220     25218     25221     25221     25224     25225     25221     25224     25226
     25221     25224     25227     25222     25221     25223     25222     25221     25224
     25223     25221     25224     25224     25227     25228     25224     25227     25229
     25225     25224     25226     25225     25224     25227     25226     25224     25227
     25227     25229     25230     25227     25229     25231     25228     25227     25229
     25229     25231     25232     25229     25231     25233     25229     25231     25234
     25230     25229     25231     25231     25234     25235     25231     25234     25236
     25231     25234     25237     25232     25231     25233     25232     25231     25234
     25233     25231     25234     25234     25237     25238     25234     25237     25239
     25234     25237     25240     25235     25234     25236     25235     25234     25237
     25236     25234     25237     25237     25240     25241     25237     25240     25242
     25237     25240     25243     25238     25237     25239     25238     25237     25240
     25239     25237     25240     25240     25243     25244     25240     25243     25245
     25240     25243     25246     25241     25240     25242     25241     25240     25243
     25242     25240     25243     25243     25246     25247     25243     25246     25248
     25243     25246     25249     25244     25243     25245     25244     25243     25246
     25245     25243     25246     25246     25249     25250     25246     25249     25251
     25246     25249     25252     25247     25246     25248     25247     25246     25249
     25248     25246     25249     25249     25252     25253     25249     25252     25254
     25249     25252     25255     25250     25249     25251     25250     25249     25252
     25251     25249     25252     25253     25252     25254     25253     25252     25255
     25254     25252     25255     25256     25259     25260     25256     25259     25261
     25256     25259     25262     25257     25256     25258     25257     25256     25259
     25258     25256     25259     25259     25262     25263     25259     25262     25264
     25259     25262     25265     25260     25259     25261     25260     25259     25262
     25261     25259     25262     25262     25265     25266     25262     25265     25267
     25262     25265     25268     25263     25262     25264     25263     25262     25265
     25264     25262     25265     25265     25268     25269     25265     25268     25270
     25265     25268     25271     25266     25265     25267     25266     25265     25268
     25267     25265     25268     25268     25271     25272     25268     25271     25273
     25268     25271     25274     25269     25268     25270     25269     25268     25271
     25270     25268     25271     25271     25274     25275     25271     25274     25276
     25271     25274     25277     25272     25271     25273     25272     25271     25274
     25273     25271     25274     25274     25277     25278     25274     25277     25279
     25274     25277     25280     25275     25274     25276     25275     25274     25277
     25276     25274     25277     25277     25280     25281     25277     25280     25282
     25277     25280     25283     25278     25277     25279     25278     25277     25280
     25279     25277     25280     25280     25283     25284     25280     25283     25285
     25280     25283     25286     25281     25280     25282     25281     25280     25283
     25282     25280     25283     25283     25286     25287     25283     25286     25288
     25283     25286     25289     25284     25283     25285     25284     25283     25286
     25285     25283     25286     25286     25289     25290     25286     25289     25291
     25286     25289     25292     25287     25286     25288     25287     25286     25289
     25288     25286     25289     25289     25292     25293     25289     25292     25294
     25289     25292     25295     25290     25289     25291     25290     25289     25292
     25291     25289     25292     25292     25295     25296     25292     25295     25297
     25292     25295     25298     25293     25292     25294     25293     25292     25295
     25294     25292     25295     25296     25295     25297     25296     25295     25298
     25297     25295     25298     25299     25300     25301     25299     25300     25302
     25299     25300     25315     25299     25303     25304     25299     25303     25305
     25299     25303     25306     25299     25307     25308     25299     25307     25309
     25299     25307     25310     25299     25311     25312     25299     25311     25313
     25299     25311     25314     25300     25299     25303     25300     25299     25307
     25300     25299     25311     25300     25315     25316     25300     25315     25317
     25300     25315     25321     25301     25300     25302     25301     25300     25315
     25302     25300     25315     25303     25299     25307     25303     25299     25311
     25304     25303     25305     25304     25303     25306     25305     25303     25306
     25307     25299     25311     25308     25307     25309     25308     25307     25310
     25309     25307     25310     25312     25311     25313     25312     25311     25314
     25313     25311     25314     25315     25321     25318     25316     25315     25317
     25316     25315     25321     25317     25315     25321     25318     25322     25323
     25319     25318     25320     25319     25318     25321     25319     25318     25322
     25320     25318     25321     25320     25318     25322     25321     25318     25322
     25322     25323     25324     25322     25323     25325     25322     25323     25326
     25323     25326     25327     25323     25326     25328     25323     25326     25334
     25324     25323     25325     25324     25323     25326     25325     25323     25326
     25326     25328     25329     25326     25334     25335     25326     25334     25336
     25326     25334     25337     25327     25326     25328     25327     25326     25334
     25328     25326     25334     25328     25329     25330     25328     25329     25331
     25329     25331     25332     25329     25331     25333     25329     25331     25343
     25330     25329     25331     25331     25343     25344     25331     25343     25345
     25331     25343     25346     25332     25331     25333     25332     25331     25343
     25333     25331     25343     25334     25337     25338     25335     25334     25336
     25335     25334     25337     25336     25334     25337     25337     25338     25339
     25337     25338     25340     25338     25340     25341     25338     25340     25342
     25338     25340     25390     25339     25338     25340     25340     25390     25391
     25340     25390     25392     25340     25390     25393     25341     25340     25342
     25341     25340     25390     25342     25340     25390     25343     25346     25347
     25343     25346     25348     25343     25346     25349     25344     25343     25345
     25344     25343     25346     25345     25343     25346     25346     25349     25350
     25346     25349     25351     25346     25349     25352     25347     25346     25348
     25347     25346     25349     25348     25346     25349     25349     25352     25353
     25349     25352     25354     25349     25352     25355     25350     25349     25351
     25350     25349     25352     25351     25349     25352     25352     25355     25356
     25352     25355     25357     25352     25355     25358     25353     25352     25354
     25353     25352     25355     25354     25352     25355     25355     25358     25359
     25355     25358     25360     25355     25358     25361     25356     25355     25357
     25356     25355     25358     25357     25355     25358     25358     25361     25362
     25358     25361     25363     25359     25358     25360     25359     25358     25361
     25360     25358     25361     25361     25363     25364     25361     25363     25365
     25362     25361     25363     25363     25365     25366     25363     25365     25367
     25363     25365     25368     25364     25363     25365     25365     25368     25369
     25365     25368     25370     25365     25368     25371     25366     25365     25367
     25366     25365     25368     25367     25365     25368     25368     25371     25372
     25368     25371     25373     25368     25371     25374     25369     25368     25370
     25369     25368     25371     25370     25368     25371     25371     25374     25375
     25371     25374     25376     25371     25374     25377     25372     25371     25373
     25372     25371     25374     25373     25371     25374     25374     25377     25378
     25374     25377     25379     25374     25377     25380     25375     25374     25376
     25375     25374     25377     25376     25374     25377     25377     25380     25381
     25377     25380     25382     25377     25380     25383     25378     25377     25379
     25378     25377     25380     25379     25377     25380     25380     25383     25384
     25380     25383     25385     25380     25383     25386     25381     25380     25382
     25381     25380     25383     25382     25380     25383     25383     25386     25387
     25383     25386     25388     25383     25386     25389     25384     25383     25385
     25384     25383     25386     25385     25383     25386     25387     25386     25388
     25387     25386     25389     25388     25386     25389     25390     25393     25394
     25390     25393     25395     25390     25393     25396     25391     25390     25392
     25391     25390     25393     25392     25390     25393     25393     25396     25397
     25393     25396     25398     25393     25396     25399     25394     25393     25395
     25394     25393     25396     25395     25393     25396     25396     25399     25400
     25396     25399     25401     25396     25399     25402     25397     25396     25398
     25397     25396     25399     25398     25396     25399     25399     25402     25403
     25399     25402     25404     25399     25402     25405     25400     25399     25401
     25400     25399     25402     25401     25399     25402     25402     25405     25406
     25402     25405     25407     25402     25405     25408     25403     25402     25404
     25403     25402     25405     25404     25402     25405     25405     25408     25409
     25405     25408     25410     25405     25408     25411     25406     25405     25407
     25406     25405     25408     25407     25405     25408     25408     25411     25412
     25408     25411     25413     25408     25411     25414     25409     25408     25410
     25409     25408     25411     25410     25408     25411     25411     25414     25415
     25411     25414     25416     25411     25414     25417     25412     25411     25413
     25412     25411     25414     25413     25411     25414     25414     25417     25418
     25414     25417     25419     25414     25417     25420     25415     25414     25416
     25415     25414     25417     25416     25414     25417     25417     25420     25421
     25417     25420     25422     25417     25420     25423     25418     25417     25419
     25418     25417     25420     25419     25417     25420     25420     25423     25424
     25420     25423     25425     25420     25423     25426     25421     25420     25422
     25421     25420     25423     25422     25420     25423     25423     25426     25427
     25423     25426     25428     25423     25426     25429     25424     25423     25425
     25424     25423     25426     25425     25423     25426     25426     25429     25430
     25426     25429     25431     25426     25429     25432     25427     25426     25428
     25427     25426     25429     25428     25426     25429     25430     25429     25431
     25430     25429     25432     25431     25429     25432     25433     25434     25435
     25433     25434     25436     25433     25434     25449     25433     25437     25438
     25433     25437     25439     25433     25437     25440     25433     25441     25442
     25433     25441     25443     25433     25441     25444     25433     25445     25446
     25433     25445     25447     25433     25445     25448     25434     25433     25437
     25434     25433     25441     25434     25433     25445     25434     25449     25450
     25434     25449     25451     25434     25449     25455     25435     25434     25436
     25435     25434     25449     25436     25434     25449     25437     25433     25441
     25437     25433     25445     25438     25437     25439     25438     25437     25440
     25439     25437     25440     25441     25433     25445     25442     25441     25443
     25442     25441     25444     25443     25441     25444     25446     25445     25447
     25446     25445     25448     25447     25445     25448     25449     25455     25452
     25450     25449     25451     25450     25449     25455     25451     25449     25455
     25452     25456     25457     25453     25452     25454     25453     25452     25455
     25453     25452     25456     25454     25452     25455     25454     25452     25456
     25455     25452     25456     25456     25457     25458     25456     25457     25459
     25456     25457     25460     25457     25460     25461     25457     25460     25462
     25457     25460     25468     25458     25457     25459     25458     25457     25460
     25459     25457     25460     25460     25462     25463     25460     25468     25469
     25460     25468     25470     25460     25468     25471     25461     25460     25462
     25461     25460     25468     25462     25460     25468     25462     25463     25464
     25462     25463     25465     25463     25465     25466     25463     25465     25467
     25463     25465     25477     25464     25463     25465     25465     25477     25478
     25465     25477     25479     25465     25477     25480     25466     25465     25467
     25466     25465     25477     25467     25465     25477     25468     25471     25472
     25469     25468     25470     25469     25468     25471     25470     25468     25471
     25471     25472     25473     25471     25472     25474     25472     25474     25475
     25472     25474     25476     25472     25474     25524     25473     25472     25474
     25474     25524     25525     25474     25524     25526     25474     25524     25527
     25475     25474     25476     25475     25474     25524     25476     25474     25524
     25477     25480     25481     25477     25480     25482     25477     25480     25483
     25478     25477     25479     25478     25477     25480     25479     25477     25480
     25480     25483     25484     25480     25483     25485     25480     25483     25486
     25481     25480     25482     25481     25480     25483     25482     25480     25483
     25483     25486     25487     25483     25486     25488     25483     25486     25489
     25484     25483     25485     25484     25483     25486     25485     25483     25486
     25486     25489     25490     25486     25489     25491     25486     25489     25492
     25487     25486     25488     25487     25486     25489     25488     25486     25489
     25489     25492     25493     25489     25492     25494     25489     25492     25495
     25490     25489     25491     25490     25489     25492     25491     25489     25492
     25492     25495     25496     25492     25495     25497     25493     25492     25494
     25493     25492     25495     25494     25492     25495     25495     25497     25498
     25495     25497     25499     25496     25495     25497     25497     25499     25500
     25497     25499     25501     25497     25499     25502     25498     25497     25499
     25499     25502     25503     25499     25502     25504     25499     25502     25505
     25500     25499     25501     25500     25499     25502     25501     25499     25502
     25502     25505     25506     25502     25505     25507     25502     25505     25508
     25503     25502     25504     25503     25502     25505     25504     25502     25505
     25505     25508     25509     25505     25508     25510     25505     25508     25511
     25506     25505     25507     25506     25505     25508     25507     25505     25508
     25508     25511     25512     25508     25511     25513     25508     25511     25514
     25509     25508     25510     25509     25508     25511     25510     25508     25511
     25511     25514     25515     25511     25514     25516     25511     25514     25517
     25512     25511     25513     25512     25511     25514     25513     25511     25514
     25514     25517     25518     25514     25517     25519     25514     25517     25520
     25515     25514     25516     25515     25514     25517     25516     25514     25517
     25517     25520     25521     25517     25520     25522     25517     25520     25523
     25518     25517     25519     25518     25517     25520     25519     25517     25520
     25521     25520     25522     25521     25520     25523     25522     25520     25523
     25524     25527     25528     25524     25527     25529     25524     25527     25530
     25525     25524     25526     25525     25524     25527     25526     25524     25527
     25527     25530     25531     25527     25530     25532     25527     25530     25533
     25528     25527     25529     25528     25527     25530     25529     25527     25530
     25530     25533     25534     25530     25533     25535     25530     25533     25536
     25531     25530     25532     25531     25530     25533     25532     25530     25533
     25533     25536     25537     25533     25536     25538     25533     25536     25539
     25534     25533     25535     25534     25533     25536     25535     25533     25536
     25536     25539     25540     25536     25539     25541     25536     25539     25542
     25537     25536     25538     25537     25536     25539     25538     25536     25539
     25539     25542     25543     25539     25542     25544     25539     25542     25545
     25540     25539     25541     25540     25539     25542     25541     25539     25542
     25542     25545     25546     25542     25545     25547     25542     25545     25548
     25543     25542     25544     25543     25542     25545     25544     25542     25545
     25545     25548     25549     25545     25548     25550     25545     25548     25551
     25546     25545     25547     25546     25545     25548     25547     25545     25548
     25548     25551     25552     25548     25551     25553     25548     25551     25554
     25549     25548     25550     25549     25548     25551     25550     25548     25551
     25551     25554     25555     25551     25554     25556     25551     25554     25557
     25552     25551     25553     25552     25551     25554     25553     25551     25554
     25554     25557     25558     25554     25557     25559     25554     25557     25560
     25555     25554     25556     25555     25554     25557     25556     25554     25557
     25557     25560     25561     25557     25560     25562     25557     25560     25563
     25558     25557     25559     25558     25557     25560     25559     25557     25560
     25560     25563     25564     25560     25563     25565     25560     25563     25566
     25561     25560     25562     25561     25560     25563     25562     25560     25563
     25564     25563     25565     25564     25563     25566     25565     25563     25566
     25567     25568     25569     25567     25568     25570     25567     25568     25583
     25567     25571     25572     25567     25571     25573     25567     25571     25574
     25567     25575     25576     25567     25575     25577     25567     25575     25578
     25567     25579     25580     25567     25579     25581     25567     25579     25582
     25568     25567     25571     25568     25567     25575     25568     25567     25579
     25568     25583     25584     25568     25583     25585     25568     25583     25589
     25569     25568     25570     25569     25568     25583     25570     25568     25583
     25571     25567     25575     25571     25567     25579     25572     25571     25573
     25572     25571     25574     25573     25571     25574     25575     25567     25579
     25576     25575     25577     25576     25575     25578     25577     25575     25578
     25580     25579     25581     25580     25579     25582     25581     25579     25582
     25583     25589     25586     25584     25583     25585     25584     25583     25589
     25585     25583     25589     25586     25590     25591     25587     25586     25588
     25587     25586     25589     25587     25586     25590     25588     25586     25589
     25588     25586     25590     25589     25586     25590     25590     25591     25592
     25590     25591     25593     25590     25591     25594     25591     25594     25595
     25591     25594     25596     25591     25594     25602     25592     25591     25593
     25592     25591     25594     25593     25591     25594     25594     25596     25597
     25594     25602     25603     25594     25602     25604     25594     25602     25605
     25595     25594     25596     25595     25594     25602     25596     25594     25602
     25596     25597     25598     25596     25597     25599     25597     25599     25600
     25597     25599     25601     25597     25599     25611     25598     25597     25599
     25599     25611     25612     25599     25611     25613     25599     25611     25614
     25600     25599     25601     25600     25599     25611     25601     25599     25611
     25602     25605     25606     25603     25602     25604     25603     25602     25605
     25604     25602     25605     25605     25606     25607     25605     25606     25608
     25606     25608     25609     25606     25608     25610     25606     25608     25658
     25607     25606     25608     25608     25658     25659     25608     25658     25660
     25608     25658     25661     25609     25608     25610     25609     25608     25658
     25610     25608     25658     25611     25614     25615     25611     25614     25616
     25611     25614     25617     25612     25611     25613     25612     25611     25614
     25613     25611     25614     25614     25617     25618     25614     25617     25619
     25614     25617     25620     25615     25614     25616     25615     25614     25617
     25616     25614     25617     25617     25620     25621     25617     25620     25622
     25617     25620     25623     25618     25617     25619     25618     25617     25620
     25619     25617     25620     25620     25623     25624     25620     25623     25625
     25620     25623     25626     25621     25620     25622     25621     25620     25623
     25622     25620     25623     25623     25626     25627     25623     25626     25628
     25623     25626     25629     25624     25623     25625     25624     25623     25626
     25625     25623     25626     25626     25629     25630     25626     25629     25631
     25627     25626     25628     25627     25626     25629     25628     25626     25629
     25629     25631     25632     25629     25631     25633     25630     25629     25631
     25631     25633     25634     25631     25633     25635     25631     25633     25636
     25632     25631     25633     25633     25636     25637     25633     25636     25638
     25633     25636     25639     25634     25633     25635     25634     25633     25636
     25635     25633     25636     25636     25639     25640     25636     25639     25641
     25636     25639     25642     25637     25636     25638     25637     25636     25639
     25638     25636     25639     25639     25642     25643     25639     25642     25644
     25639     25642     25645     25640     25639     25641     25640     25639     25642
     25641     25639     25642     25642     25645     25646     25642     25645     25647
     25642     25645     25648     25643     25642     25644     25643     25642     25645
     25644     25642     25645     25645     25648     25649     25645     25648     25650
     25645     25648     25651     25646     25645     25647     25646     25645     25648
     25647     25645     25648     25648     25651     25652     25648     25651     25653
     25648     25651     25654     25649     25648     25650     25649     25648     25651
     25650     25648     25651     25651     25654     25655     25651     25654     25656
     25651     25654     25657     25652     25651     25653     25652     25651     25654
     25653     25651     25654     25655     25654     25656     25655     25654     25657
     25656     25654     25657     25658     25661     25662     25658     25661     25663
     25658     25661     25664     25659     25658     25660     25659     25658     25661
     25660     25658     25661     25661     25664     25665     25661     25664     25666
     25661     25664     25667     25662     25661     25663     25662     25661     25664
     25663     25661     25664     25664     25667     25668     25664     25667     25669
     25664     25667     25670     25665     25664     25666     25665     25664     25667
     25666     25664     25667     25667     25670     25671     25667     25670     25672
     25667     25670     25673     25668     25667     25669     25668     25667     25670
     25669     25667     25670     25670     25673     25674     25670     25673     25675
     25670     25673     25676     25671     25670     25672     25671     25670     25673
     25672     25670     25673     25673     25676     25677     25673     25676     25678
     25673     25676     25679     25674     25673     25675     25674     25673     25676
     25675     25673     25676     25676     25679     25680     25676     25679     25681
     25676     25679     25682     25677     25676     25678     25677     25676     25679
     25678     25676     25679     25679     25682     25683     25679     25682     25684
     25679     25682     25685     25680     25679     25681     25680     25679     25682
     25681     25679     25682     25682     25685     25686     25682     25685     25687
     25682     25685     25688     25683     25682     25684     25683     25682     25685
     25684     25682     25685     25685     25688     25689     25685     25688     25690
     25685     25688     25691     25686     25685     25687     25686     25685     25688
     25687     25685     25688     25688     25691     25692     25688     25691     25693
     25688     25691     25694     25689     25688     25690     25689     25688     25691
     25690     25688     25691     25691     25694     25695     25691     25694     25696
     25691     25694     25697     25692     25691     25693     25692     25691     25694
     25693     25691     25694     25694     25697     25698     25694     25697     25699
     25694     25697     25700     25695     25694     25696     25695     25694     25697
     25696     25694     25697     25698     25697     25699     25698     25697     25700
     25699     25697     25700     25701     25702     25703     25701     25702     25704
     25701     25702     25717     25701     25705     25706     25701     25705     25707
     25701     25705     25708     25701     25709     25710     25701     25709     25711
     25701     25709     25712     25701     25713     25714     25701     25713     25715
     25701     25713     25716     25702     25701     25705     25702     25701     25709
     25702     25701     25713     25702     25717     25718     25702     25717     25719
     25702     25717     25723     25703     25702     25704     25703     25702     25717
     25704     25702     25717     25705     25701     25709     25705     25701     25713
     25706     25705     25707     25706     25705     25708     25707     25705     25708
     25709     25701     25713     25710     25709     25711     25710     25709     25712
     25711     25709     25712     25714     25713     25715     25714     25713     25716
     25715     25713     25716     25717     25723     25720     25718     25717     25719
     25718     25717     25723     25719     25717     25723     25720     25724     25725
     25721     25720     25722     25721     25720     25723     25721     25720     25724
     25722     25720     25723     25722     25720     25724     25723     25720     25724
     25724     25725     25726     25724     25725     25727     25724     25725     25728
     25725     25728     25729     25725     25728     25730     25725     25728     25736
     25726     25725     25727     25726     25725     25728     25727     25725     25728
     25728     25730     25731     25728     25736     25737     25728     25736     25738
     25728     25736     25739     25729     25728     25730     25729     25728     25736
     25730     25728     25736     25730     25731     25732     25730     25731     25733
     25731     25733     25734     25731     25733     25735     25731     25733     25745
     25732     25731     25733     25733     25745     25746     25733     25745     25747
     25733     25745     25748     25734     25733     25735     25734     25733     25745
     25735     25733     25745     25736     25739     25740     25737     25736     25738
     25737     25736     25739     25738     25736     25739     25739     25740     25741
     25739     25740     25742     25740     25742     25743     25740     25742     25744
     25740     25742     25792     25741     25740     25742     25742     25792     25793
     25742     25792     25794     25742     25792     25795     25743     25742     25744
     25743     25742     25792     25744     25742     25792     25745     25748     25749
     25745     25748     25750     25745     25748     25751     25746     25745     25747
     25746     25745     25748     25747     25745     25748     25748     25751     25752
     25748     25751     25753     25748     25751     25754     25749     25748     25750
     25749     25748     25751     25750     25748     25751     25751     25754     25755
     25751     25754     25756     25751     25754     25757     25752     25751     25753
     25752     25751     25754     25753     25751     25754     25754     25757     25758
     25754     25757     25759     25754     25757     25760     25755     25754     25756
     25755     25754     25757     25756     25754     25757     25757     25760     25761
     25757     25760     25762     25757     25760     25763     25758     25757     25759
     25758     25757     25760     25759     25757     25760     25760     25763     25764
     25760     25763     25765     25761     25760     25762     25761     25760     25763
     25762     25760     25763     25763     25765     25766     25763     25765     25767
     25764     25763     25765     25765     25767     25768     25765     25767     25769
     25765     25767     25770     25766     25765     25767     25767     25770     25771
     25767     25770     25772     25767     25770     25773     25768     25767     25769
     25768     25767     25770     25769     25767     25770     25770     25773     25774
     25770     25773     25775     25770     25773     25776     25771     25770     25772
     25771     25770     25773     25772     25770     25773     25773     25776     25777
     25773     25776     25778     25773     25776     25779     25774     25773     25775
     25774     25773     25776     25775     25773     25776     25776     25779     25780
     25776     25779     25781     25776     25779     25782     25777     25776     25778
     25777     25776     25779     25778     25776     25779     25779     25782     25783
     25779     25782     25784     25779     25782     25785     25780     25779     25781
     25780     25779     25782     25781     25779     25782     25782     25785     25786
     25782     25785     25787     25782     25785     25788     25783     25782     25784
     25783     25782     25785     25784     25782     25785     25785     25788     25789
     25785     25788     25790     25785     25788     25791     25786     25785     25787
     25786     25785     25788     25787     25785     25788     25789     25788     25790
     25789     25788     25791     25790     25788     25791     25792     25795     25796
     25792     25795     25797     25792     25795     25798     25793     25792     25794
     25793     25792     25795     25794     25792     25795     25795     25798     25799
     25795     25798     25800     25795     25798     25801     25796     25795     25797
     25796     25795     25798     25797     25795     25798     25798     25801     25802
     25798     25801     25803     25798     25801     25804     25799     25798     25800
     25799     25798     25801     25800     25798     25801     25801     25804     25805
     25801     25804     25806     25801     25804     25807     25802     25801     25803
     25802     25801     25804     25803     25801     25804     25804     25807     25808
     25804     25807     25809     25804     25807     25810     25805     25804     25806
     25805     25804     25807     25806     25804     25807     25807     25810     25811
     25807     25810     25812     25807     25810     25813     25808     25807     25809
     25808     25807     25810     25809     25807     25810     25810     25813     25814
     25810     25813     25815     25810     25813     25816     25811     25810     25812
     25811     25810     25813     25812     25810     25813     25813     25816     25817
     25813     25816     25818     25813     25816     25819     25814     25813     25815
     25814     25813     25816     25815     25813     25816     25816     25819     25820
     25816     25819     25821     25816     25819     25822     25817     25816     25818
     25817     25816     25819     25818     25816     25819     25819     25822     25823
     25819     25822     25824     25819     25822     25825     25820     25819     25821
     25820     25819     25822     25821     25819     25822     25822     25825     25826
     25822     25825     25827     25822     25825     25828     25823     25822     25824
     25823     25822     25825     25824     25822     25825     25825     25828     25829
     25825     25828     25830     25825     25828     25831     25826     25825     25827
     25826     25825     25828     25827     25825     25828     25828     25831     25832
     25828     25831     25833     25828     25831     25834     25829     25828     25830
     25829     25828     25831     25830     25828     25831     25832     25831     25833
     25832     25831     25834     25833     25831     25834     25835     25836     25837
     25835     25836     25838     25835     25836     25851     25835     25839     25840
     25835     25839     25841     25835     25839     25842     25835     25843     25844
     25835     25843     25845     25835     25843     25846     25835     25847     25848
     25835     25847     25849     25835     25847     25850     25836     25835     25839
     25836     25835     25843     25836     25835     25847     25836     25851     25852
     25836     25851     25853     25836     25851     25857     25837     25836     25838
     25837     25836     25851     25838     25836     25851     25839     25835     25843
     25839     25835     25847     25840     25839     25841     25840     25839     25842
     25841     25839     25842     25843     25835     25847     25844     25843     25845
     25844     25843     25846     25845     25843     25846     25848     25847     25849
     25848     25847     25850     25849     25847     25850     25851     25857     25854
     25852     25851     25853     25852     25851     25857     25853     25851     25857
     25854     25858     25859     25855     25854     25856     25855     25854     25857
     25855     25854     25858     25856     25854     25857     25856     25854     25858
     25857     25854     25858     25858     25859     25860     25858     25859     25861
     25858     25859     25862     25859     25862     25863     25859     25862     25864
     25859     25862     25870     25860     25859     25861     25860     25859     25862
     25861     25859     25862     25862     25864     25865     25862     25870     25871
     25862     25870     25872     25862     25870     25873     25863     25862     25864
     25863     25862     25870     25864     25862     25870     25864     25865     25866
     25864     25865     25867     25865     25867     25868     25865     25867     25869
     25865     25867     25879     25866     25865     25867     25867     25879     25880
     25867     25879     25881     25867     25879     25882     25868     25867     25869
     25868     25867     25879     25869     25867     25879     25870     25873     25874
     25871     25870     25872     25871     25870     25873     25872     25870     25873
     25873     25874     25875     25873     25874     25876     25874     25876     25877
     25874     25876     25878     25874     25876     25926     25875     25874     25876
     25876     25926     25927     25876     25926     25928     25876     25926     25929
     25877     25876     25878     25877     25876     25926     25878     25876     25926
     25879     25882     25883     25879     25882     25884     25879     25882     25885
     25880     25879     25881     25880     25879     25882     25881     25879     25882
     25882     25885     25886     25882     25885     25887     25882     25885     25888
     25883     25882     25884     25883     25882     25885     25884     25882     25885
     25885     25888     25889     25885     25888     25890     25885     25888     25891
     25886     25885     25887     25886     25885     25888     25887     25885     25888
     25888     25891     25892     25888     25891     25893     25888     25891     25894
     25889     25888     25890     25889     25888     25891     25890     25888     25891
     25891     25894     25895     25891     25894     25896     25891     25894     25897
     25892     25891     25893     25892     25891     25894     25893     25891     25894
     25894     25897     25898     25894     25897     25899     25895     25894     25896
     25895     25894     25897     25896     25894     25897     25897     25899     25900
     25897     25899     25901     25898     25897     25899     25899     25901     25902
     25899     25901     25903     25899     25901     25904     25900     25899     25901
     25901     25904     25905     25901     25904     25906     25901     25904     25907
     25902     25901     25903     25902     25901     25904     25903     25901     25904
     25904     25907     25908     25904     25907     25909     25904     25907     25910
     25905     25904     25906     25905     25904     25907     25906     25904     25907
     25907     25910     25911     25907     25910     25912     25907     25910     25913
     25908     25907     25909     25908     25907     25910     25909     25907     25910
     25910     25913     25914     25910     25913     25915     25910     25913     25916
     25911     25910     25912     25911     25910     25913     25912     25910     25913
     25913     25916     25917     25913     25916     25918     25913     25916     25919
     25914     25913     25915     25914     25913     25916     25915     25913     25916
     25916     25919     25920     25916     25919     25921     25916     25919     25922
     25917     25916     25918     25917     25916     25919     25918     25916     25919
     25919     25922     25923     25919     25922     25924     25919     25922     25925
     25920     25919     25921     25920     25919     25922     25921     25919     25922
     25923     25922     25924     25923     25922     25925     25924     25922     25925
     25926     25929     25930     25926     25929     25931     25926     25929     25932
     25927     25926     25928     25927     25926     25929     25928     25926     25929
     25929     25932     25933     25929     25932     25934     25929     25932     25935
     25930     25929     25931     25930     25929     25932     25931     25929     25932
     25932     25935     25936     25932     25935     25937     25932     25935     25938
     25933     25932     25934     25933     25932     25935     25934     25932     25935
     25935     25938     25939     25935     25938     25940     25935     25938     25941
     25936     25935     25937     25936     25935     25938     25937     25935     25938
     25938     25941     25942     25938     25941     25943     25938     25941     25944
     25939     25938     25940     25939     25938     25941     25940     25938     25941
     25941     25944     25945     25941     25944     25946     25941     25944     25947
     25942     25941     25943     25942     25941     25944     25943     25941     25944
     25944     25947     25948     25944     25947     25949     25944     25947     25950
     25945     25944     25946     25945     25944     25947     25946     25944     25947
     25947     25950     25951     25947     25950     25952     25947     25950     25953
     25948     25947     25949     25948     25947     25950     25949     25947     25950
     25950     25953     25954     25950     25953     25955     25950     25953     25956
     25951     25950     25952     25951     25950     25953     25952     25950     25953
     25953     25956     25957     25953     25956     25958     25953     25956     25959
     25954     25953     25955     25954     25953     25956     25955     25953     25956
     25956     25959     25960     25956     25959     25961     25956     25959     25962
     25957     25956     25958     25957     25956     25959     25958     25956     25959
     25959     25962     25963     25959     25962     25964     25959     25962     25965
     25960     25959     25961     25960     25959     25962     25961     25959     25962
     25962     25965     25966     25962     25965     25967     25962     25965     25968
     25963     25962     25964     25963     25962     25965     25964     25962     25965
     25966     25965     25967     25966     25965     25968     25967     25965     25968
     25969     25970     25971     25969     25970     25972     25969     25970     25985
     25969     25973     25974     25969     25973     25975     25969     25973     25976
     25969     25977     25978     25969     25977     25979     25969     25977     25980
     25969     25981     25982     25969     25981     25983     25969     25981     25984
     25970     25969     25973     25970     25969     25977     25970     25969     25981
     25970     25985     25986     25970     25985     25987     25970     25985     25991
     25971     25970     25972     25971     25970     25985     25972     25970     25985
     25973     25969     25977     25973     25969     25981     25974     25973     25975
     25974     25973     25976     25975     25973     25976     25977     25969     25981
     25978     25977     25979     25978     25977     25980     25979     25977     25980
     25982     25981     25983     25982     25981     25984     25983     25981     25984
     25985     25991     25988     25986     25985     25987     25986     25985     25991
     25987     25985     25991     25988     25992     25993     25989     25988     25990
     25989     25988     25991     25989     25988     25992     25990     25988     25991
     25990     25988     25992     25991     25988     25992     25992     25993     25994
     25992     25993     25995     25992     25993     25996     25993     25996     25997
     25993     25996     25998     25993     25996     26004     25994     25993     25995
     25994     25993     25996     25995     25993     25996     25996     25998     25999
     25996     26004     26005     25996     26004     26006     25996     26004     26007
     25997     25996     25998     25997     25996     26004     25998     25996     26004
     25998     25999     26000     25998     25999     26001     25999     26001     26002
     25999     26001     26003     25999     26001     26013     26000     25999     26001
     26001     26013     26014     26001     26013     26015     26001     26013     26016
     26002     26001     26003     26002     26001     26013     26003     26001     26013
     26004     26007     26008     26005     26004     26006     26005     26004     26007
     26006     26004     26007     26007     26008     26009     26007     26008     26010
     26008     26010     26011     26008     26010     26012     26008     26010     26060
     26009     26008     26010     26010     26060     26061     26010     26060     26062
     26010     26060     26063     26011     26010     26012     26011     26010     26060
     26012     26010     26060     26013     26016     26017     26013     26016     26018
     26013     26016     26019     26014     26013     26015     26014     26013     26016
     26015     26013     26016     26016     26019     26020     26016     26019     26021
     26016     26019     26022     26017     26016     26018     26017     26016     26019
     26018     26016     26019     26019     26022     26023     26019     26022     26024
     26019     26022     26025     26020     26019     26021     26020     26019     26022
     26021     26019     26022     26022     26025     26026     26022     26025     26027
     26022     26025     26028     26023     26022     26024     26023     26022     26025
     26024     26022     26025     26025     26028     26029     26025     26028     26030
     26025     26028     26031     26026     26025     26027     26026     26025     26028
     26027     26025     26028     26028     26031     26032     26028     26031     26033
     26029     26028     26030     26029     26028     26031     26030     26028     26031
     26031     26033     26034     26031     26033     26035     26032     26031     26033
     26033     26035     26036     26033     26035     26037     26033     26035     26038
     26034     26033     26035     26035     26038     26039     26035     26038     26040
     26035     26038     26041     26036     26035     26037     26036     26035     26038
     26037     26035     26038     26038     26041     26042     26038     26041     26043
     26038     26041     26044     26039     26038     26040     26039     26038     26041
     26040     26038     26041     26041     26044     26045     26041     26044     26046
     26041     26044     26047     26042     26041     26043     26042     26041     26044
     26043     26041     26044     26044     26047     26048     26044     26047     26049
     26044     26047     26050     26045     26044     26046     26045     26044     26047
     26046     26044     26047     26047     26050     26051     26047     26050     26052
     26047     26050     26053     26048     26047     26049     26048     26047     26050
     26049     26047     26050     26050     26053     26054     26050     26053     26055
     26050     26053     26056     26051     26050     26052     26051     26050     26053
     26052     26050     26053     26053     26056     26057     26053     26056     26058
     26053     26056     26059     26054     26053     26055     26054     26053     26056
     26055     26053     26056     26057     26056     26058     26057     26056     26059
     26058     26056     26059     26060     26063     26064     26060     26063     26065
     26060     26063     26066     26061     26060     26062     26061     26060     26063
     26062     26060     26063     26063     26066     26067     26063     26066     26068
     26063     26066     26069     26064     26063     26065     26064     26063     26066
     26065     26063     26066     26066     26069     26070     26066     26069     26071
     26066     26069     26072     26067     26066     26068     26067     26066     26069
     26068     26066     26069     26069     26072     26073     26069     26072     26074
     26069     26072     26075     26070     26069     26071     26070     26069     26072
     26071     26069     26072     26072     26075     26076     26072     26075     26077
     26072     26075     26078     26073     26072     26074     26073     26072     26075
     26074     26072     26075     26075     26078     26079     26075     26078     26080
     26075     26078     26081     26076     26075     26077     26076     26075     26078
     26077     26075     26078     26078     26081     26082     26078     26081     26083
     26078     26081     26084     26079     26078     26080     26079     26078     26081
     26080     26078     26081     26081     26084     26085     26081     26084     26086
     26081     26084     26087     26082     26081     26083     26082     26081     26084
     26083     26081     26084     26084     26087     26088     26084     26087     26089
     26084     26087     26090     26085     26084     26086     26085     26084     26087
     26086     26084     26087     26087     26090     26091     26087     26090     26092
     26087     26090     26093     26088     26087     26089     26088     26087     26090
     26089     26087     26090     26090     26093     26094     26090     26093     26095
     26090     26093     26096     26091     26090     26092     26091     26090     26093
     26092     26090     26093     26093     26096     26097     26093     26096     26098
     26093     26096     26099     26094     26093     26095     26094     26093     26096
     26095     26093     26096     26096     26099     26100     26096     26099     26101
     26096     26099     26102     26097     26096     26098     26097     26096     26099
     26098     26096     26099     26100     26099     26101     26100     26099     26102
     26101     26099     26102     26103     26104     26105     26103     26104     26106
     26103     26104     26119     26103     26107     26108     26103     26107     26109
     26103     26107     26110     26103     26111     26112     26103     26111     26113
     26103     26111     26114     26103     26115     26116     26103     26115     26117
     26103     26115     26118     26104     26103     26107     26104     26103     26111
     26104     26103     26115     26104     26119     26120     26104     26119     26121
     26104     26119     26125     26105     26104     26106     26105     26104     26119
     26106     26104     26119     26107     26103     26111     26107     26103     26115
     26108     26107     26109     26108     26107     26110     26109     26107     26110
     26111     26103     26115     26112     26111     26113     26112     26111     26114
     26113     26111     26114     26116     26115     26117     26116     26115     26118
     26117     26115     26118     26119     26125     26122     26120     26119     26121
     26120     26119     26125     26121     26119     26125     26122     26126     26127
     26123     26122     26124     26123     26122     26125     26123     26122     26126
     26124     26122     26125     26124     26122     26126     26125     26122     26126
     26126     26127     26128     26126     26127     26129     26126     26127     26130
     26127     26130     26131     26127     26130     26132     26127     26130     26138
     26128     26127     26129     26128     26127     26130     26129     26127     26130
     26130     26132     26133     26130     26138     26139     26130     26138     26140
     26130     26138     26141     26131     26130     26132     26131     26130     26138
     26132     26130     26138     26132     26133     26134     26132     26133     26135
     26133     26135     26136     26133     26135     26137     26133     26135     26147
     26134     26133     26135     26135     26147     26148     26135     26147     26149
     26135     26147     26150     26136     26135     26137     26136     26135     26147
     26137     26135     26147     26138     26141     26142     26139     26138     26140
     26139     26138     26141     26140     26138     26141     26141     26142     26143
     26141     26142     26144     26142     26144     26145     26142     26144     26146
     26142     26144     26194     26143     26142     26144     26144     26194     26195
     26144     26194     26196     26144     26194     26197     26145     26144     26146
     26145     26144     26194     26146     26144     26194     26147     26150     26151
     26147     26150     26152     26147     26150     26153     26148     26147     26149
     26148     26147     26150     26149     26147     26150     26150     26153     26154
     26150     26153     26155     26150     26153     26156     26151     26150     26152
     26151     26150     26153     26152     26150     26153     26153     26156     26157
     26153     26156     26158     26153     26156     26159     26154     26153     26155
     26154     26153     26156     26155     26153     26156     26156     26159     26160
     26156     26159     26161     26156     26159     26162     26157     26156     26158
     26157     26156     26159     26158     26156     26159     26159     26162     26163
     26159     26162     26164     26159     26162     26165     26160     26159     26161
     26160     26159     26162     26161     26159     26162     26162     26165     26166
     26162     26165     26167     26163     26162     26164     26163     26162     26165
     26164     26162     26165     26165     26167     26168     26165     26167     26169
     26166     26165     26167     26167     26169     26170     26167     26169     26171
     26167     26169     26172     26168     26167     26169     26169     26172     26173
     26169     26172     26174     26169     26172     26175     26170     26169     26171
     26170     26169     26172     26171     26169     26172     26172     26175     26176
     26172     26175     26177     26172     26175     26178     26173     26172     26174
     26173     26172     26175     26174     26172     26175     26175     26178     26179
     26175     26178     26180     26175     26178     26181     26176     26175     26177
     26176     26175     26178     26177     26175     26178     26178     26181     26182
     26178     26181     26183     26178     26181     26184     26179     26178     26180
     26179     26178     26181     26180     26178     26181     26181     26184     26185
     26181     26184     26186     26181     26184     26187     26182     26181     26183
     26182     26181     26184     26183     26181     26184     26184     26187     26188
     26184     26187     26189     26184     26187     26190     26185     26184     26186
     26185     26184     26187     26186     26184     26187     26187     26190     26191
     26187     26190     26192     26187     26190     26193     26188     26187     26189
     26188     26187     26190     26189     26187     26190     26191     26190     26192
     26191     26190     26193     26192     26190     26193     26194     26197     26198
     26194     26197     26199     26194     26197     26200     26195     26194     26196
     26195     26194     26197     26196     26194     26197     26197     26200     26201
     26197     26200     26202     26197     26200     26203     26198     26197     26199
     26198     26197     26200     26199     26197     26200     26200     26203     26204
     26200     26203     26205     26200     26203     26206     26201     26200     26202
     26201     26200     26203     26202     26200     26203     26203     26206     26207
     26203     26206     26208     26203     26206     26209     26204     26203     26205
     26204     26203     26206     26205     26203     26206     26206     26209     26210
     26206     26209     26211     26206     26209     26212     26207     26206     26208
     26207     26206     26209     26208     26206     26209     26209     26212     26213
     26209     26212     26214     26209     26212     26215     26210     26209     26211
     26210     26209     26212     26211     26209     26212     26212     26215     26216
     26212     26215     26217     26212     26215     26218     26213     26212     26214
     26213     26212     26215     26214     26212     26215     26215     26218     26219
     26215     26218     26220     26215     26218     26221     26216     26215     26217
     26216     26215     26218     26217     26215     26218     26218     26221     26222
     26218     26221     26223     26218     26221     26224     26219     26218     26220
     26219     26218     26221     26220     26218     26221     26221     26224     26225
     26221     26224     26226     26221     26224     26227     26222     26221     26223
     26222     26221     26224     26223     26221     26224     26224     26227     26228
     26224     26227     26229     26224     26227     26230     26225     26224     26226
     26225     26224     26227     26226     26224     26227     26227     26230     26231
     26227     26230     26232     26227     26230     26233     26228     26227     26229
     26228     26227     26230     26229     26227     26230     26230     26233     26234
     26230     26233     26235     26230     26233     26236     26231     26230     26232
     26231     26230     26233     26232     26230     26233     26234     26233     26235
     26234     26233     26236     26235     26233     26236     26237     26238     26239
     26237     26238     26240     26237     26238     26253     26237     26241     26242
     26237     26241     26243     26237     26241     26244     26237     26245     26246
     26237     26245     26247     26237     26245     26248     26237     26249     26250
     26237     26249     26251     26237     26249     26252     26238     26237     26241
     26238     26237     26245     26238     26237     26249     26238     26253     26254
     26238     26253     26255     26238     26253     26259     26239     26238     26240
     26239     26238     26253     26240     26238     26253     26241     26237     26245
     26241     26237     26249     26242     26241     26243     26242     26241     26244
     26243     26241     26244     26245     26237     26249     26246     26245     26247
     26246     26245     26248     26247     26245     26248     26250     26249     26251
     26250     26249     26252     26251     26249     26252     26253     26259     26256
     26254     26253     26255     26254     26253     26259     26255     26253     26259
     26256     26260     26261     26257     26256     26258     26257     26256     26259
     26257     26256     26260     26258     26256     26259     26258     26256     26260
     26259     26256     26260     26260     26261     26262     26260     26261     26263
     26260     26261     26264     26261     26264     26265     26261     26264     26266
     26261     26264     26272     26262     26261     26263     26262     26261     26264
     26263     26261     26264     26264     26266     26267     26264     26272     26273
     26264     26272     26274     26264     26272     26275     26265     26264     26266
     26265     26264     26272     26266     26264     26272     26266     26267     26268
     26266     26267     26269     26267     26269     26270     26267     26269     26271
     26267     26269     26281     26268     26267     26269     26269     26281     26282
     26269     26281     26283     26269     26281     26284     26270     26269     26271
     26270     26269     26281     26271     26269     26281     26272     26275     26276
     26273     26272     26274     26273     26272     26275     26274     26272     26275
     26275     26276     26277     26275     26276     26278     26276     26278     26279
     26276     26278     26280     26276     26278     26328     26277     26276     26278
     26278     26328     26329     26278     26328     26330     26278     26328     26331
     26279     26278     26280     26279     26278     26328     26280     26278     26328
     26281     26284     26285     26281     26284     26286     26281     26284     26287
     26282     26281     26283     26282     26281     26284     26283     26281     26284
     26284     26287     26288     26284     26287     26289     26284     26287     26290
     26285     26284     26286     26285     26284     26287     26286     26284     26287
     26287     26290     26291     26287     26290     26292     26287     26290     26293
     26288     26287     26289     26288     26287     26290     26289     26287     26290
     26290     26293     26294     26290     26293     26295     26290     26293     26296
     26291     26290     26292     26291     26290     26293     26292     26290     26293
     26293     26296     26297     26293     26296     26298     26293     26296     26299
     26294     26293     26295     26294     26293     26296     26295     26293     26296
     26296     26299     26300     26296     26299     26301     26297     26296     26298
     26297     26296     26299     26298     26296     26299     26299     26301     26302
     26299     26301     26303     26300     26299     26301     26301     26303     26304
     26301     26303     26305     26301     26303     26306     26302     26301     26303
     26303     26306     26307     26303     26306     26308     26303     26306     26309
     26304     26303     26305     26304     26303     26306     26305     26303     26306
     26306     26309     26310     26306     26309     26311     26306     26309     26312
     26307     26306     26308     26307     26306     26309     26308     26306     26309
     26309     26312     26313     26309     26312     26314     26309     26312     26315
     26310     26309     26311     26310     26309     26312     26311     26309     26312
     26312     26315     26316     26312     26315     26317     26312     26315     26318
     26313     26312     26314     26313     26312     26315     26314     26312     26315
     26315     26318     26319     26315     26318     26320     26315     26318     26321
     26316     26315     26317     26316     26315     26318     26317     26315     26318
     26318     26321     26322     26318     26321     26323     26318     26321     26324
     26319     26318     26320     26319     26318     26321     26320     26318     26321
     26321     26324     26325     26321     26324     26326     26321     26324     26327
     26322     26321     26323     26322     26321     26324     26323     26321     26324
     26325     26324     26326     26325     26324     26327     26326     26324     26327
     26328     26331     26332     26328     26331     26333     26328     26331     26334
     26329     26328     26330     26329     26328     26331     26330     26328     26331
     26331     26334     26335     26331     26334     26336     26331     26334     26337
     26332     26331     26333     26332     26331     26334     26333     26331     26334
     26334     26337     26338     26334     26337     26339     26334     26337     26340
     26335     26334     26336     26335     26334     26337     26336     26334     26337
     26337     26340     26341     26337     26340     26342     26337     26340     26343
     26338     26337     26339     26338     26337     26340     26339     26337     26340
     26340     26343     26344     26340     26343     26345     26340     26343     26346
     26341     26340     26342     26341     26340     26343     26342     26340     26343
     26343     26346     26347     26343     26346     26348     26343     26346     26349
     26344     26343     26345     26344     26343     26346     26345     26343     26346
     26346     26349     26350     26346     26349     26351     26346     26349     26352
     26347     26346     26348     26347     26346     26349     26348     26346     26349
     26349     26352     26353     26349     26352     26354     26349     26352     26355
     26350     26349     26351     26350     26349     26352     26351     26349     26352
     26352     26355     26356     26352     26355     26357     26352     26355     26358
     26353     26352     26354     26353     26352     26355     26354     26352     26355
     26355     26358     26359     26355     26358     26360     26355     26358     26361
     26356     26355     26357     26356     26355     26358     26357     26355     26358
     26358     26361     26362     26358     26361     26363     26358     26361     26364
     26359     26358     26360     26359     26358     26361     26360     26358     26361
     26361     26364     26365     26361     26364     26366     26361     26364     26367
     26362     26361     26363     26362     26361     26364     26363     26361     26364
     26364     26367     26368     26364     26367     26369     26364     26367     26370
     26365     26364     26366     26365     26364     26367     26366     26364     26367
     26368     26367     26369     26368     26367     26370     26369     26367     26370
     26371     26372     26373     26371     26372     26374     26371     26372     26387
     26371     26375     26376     26371     26375     26377     26371     26375     26378
     26371     26379     26380     26371     26379     26381     26371     26379     26382
     26371     26383     26384     26371     26383     26385     26371     26383     26386
     26372     26371     26375     26372     26371     26379     26372     26371     26383
     26372     26387     26388     26372     26387     26389     26372     26387     26393
     26373     26372     26374     26373     26372     26387     26374     26372     26387
     26375     26371     26379     26375     26371     26383     26376     26375     26377
     26376     26375     26378     26377     26375     26378     26379     26371     26383
     26380     26379     26381     26380     26379     26382     26381     26379     26382
     26384     26383     26385     26384     26383     26386     26385     26383     26386
     26387     26393     26390     26388     26387     26389     26388     26387     26393
     26389     26387     26393     26390     26394     26395     26391     26390     26392
     26391     26390     26393     26391     26390     26394     26392     26390     26393
     26392     26390     26394     26393     26390     26394     26394     26395     26396
     26394     26395     26397     26394     26395     26398     26395     26398     26399
     26395     26398     26400     26395     26398     26406     26396     26395     26397
     26396     26395     26398     26397     26395     26398     26398     26400     26401
     26398     26406     26407     26398     26406     26408     26398     26406     26409
     26399     26398     26400     26399     26398     26406     26400     26398     26406
     26400     26401     26402     26400     26401     26403     26401     26403     26404
     26401     26403     26405     26401     26403     26415     26402     26401     26403
     26403     26415     26416     26403     26415     26417     26403     26415     26418
     26404     26403     26405     26404     26403     26415     26405     26403     26415
     26406     26409     26410     26407     26406     26408     26407     26406     26409
     26408     26406     26409     26409     26410     26411     26409     26410     26412
     26410     26412     26413     26410     26412     26414     26410     26412     26462
     26411     26410     26412     26412     26462     26463     26412     26462     26464
     26412     26462     26465     26413     26412     26414     26413     26412     26462
     26414     26412     26462     26415     26418     26419     26415     26418     26420
     26415     26418     26421     26416     26415     26417     26416     26415     26418
     26417     26415     26418     26418     26421     26422     26418     26421     26423
     26418     26421     26424     26419     26418     26420     26419     26418     26421
     26420     26418     26421     26421     26424     26425     26421     26424     26426
     26421     26424     26427     26422     26421     26423     26422     26421     26424
     26423     26421     26424     26424     26427     26428     26424     26427     26429
     26424     26427     26430     26425     26424     26426     26425     26424     26427
     26426     26424     26427     26427     26430     26431     26427     26430     26432
     26427     26430     26433     26428     26427     26429     26428     26427     26430
     26429     26427     26430     26430     26433     26434     26430     26433     26435
     26431     26430     26432     26431     26430     26433     26432     26430     26433
     26433     26435     26436     26433     26435     26437     26434     26433     26435
     26435     26437     26438     26435     26437     26439     26435     26437     26440
     26436     26435     26437     26437     26440     26441     26437     26440     26442
     26437     26440     26443     26438     26437     26439     26438     26437     26440
     26439     26437     26440     26440     26443     26444     26440     26443     26445
     26440     26443     26446     26441     26440     26442     26441     26440     26443
     26442     26440     26443     26443     26446     26447     26443     26446     26448
     26443     26446     26449     26444     26443     26445     26444     26443     26446
     26445     26443     26446     26446     26449     26450     26446     26449     26451
     26446     26449     26452     26447     26446     26448     26447     26446     26449
     26448     26446     26449     26449     26452     26453     26449     26452     26454
     26449     26452     26455     26450     26449     26451     26450     26449     26452
     26451     26449     26452     26452     26455     26456     26452     26455     26457
     26452     26455     26458     26453     26452     26454     26453     26452     26455
     26454     26452     26455     26455     26458     26459     26455     26458     26460
     26455     26458     26461     26456     26455     26457     26456     26455     26458
     26457     26455     26458     26459     26458     26460     26459     26458     26461
     26460     26458     26461     26462     26465     26466     26462     26465     26467
     26462     26465     26468     26463     26462     26464     26463     26462     26465
     26464     26462     26465     26465     26468     26469     26465     26468     26470
     26465     26468     26471     26466     26465     26467     26466     26465     26468
     26467     26465     26468     26468     26471     26472     26468     26471     26473
     26468     26471     26474     26469     26468     26470     26469     26468     26471
     26470     26468     26471     26471     26474     26475     26471     26474     26476
     26471     26474     26477     26472     26471     26473     26472     26471     26474
     26473     26471     26474     26474     26477     26478     26474     26477     26479
     26474     26477     26480     26475     26474     26476     26475     26474     26477
     26476     26474     26477     26477     26480     26481     26477     26480     26482
     26477     26480     26483     26478     26477     26479     26478     26477     26480
     26479     26477     26480     26480     26483     26484     26480     26483     26485
     26480     26483     26486     26481     26480     26482     26481     26480     26483
     26482     26480     26483     26483     26486     26487     26483     26486     26488
     26483     26486     26489     26484     26483     26485     26484     26483     26486
     26485     26483     26486     26486     26489     26490     26486     26489     26491
     26486     26489     26492     26487     26486     26488     26487     26486     26489
     26488     26486     26489     26489     26492     26493     26489     26492     26494
     26489     26492     26495     26490     26489     26491     26490     26489     26492
     26491     26489     26492     26492     26495     26496     26492     26495     26497
     26492     26495     26498     26493     26492     26494     26493     26492     26495
     26494     26492     26495     26495     26498     26499     26495     26498     26500
     26495     26498     26501     26496     26495     26497     26496     26495     26498
     26497     26495     26498     26498     26501     26502     26498     26501     26503
     26498     26501     26504     26499     26498     26500     26499     26498     26501
     26500     26498     26501     26502     26501     26503     26502     26501     26504
     26503     26501     26504     26505     26506     26507     26505     26506     26508
     26505     26506     26521     26505     26509     26510     26505     26509     26511
     26505     26509     26512     26505     26513     26514     26505     26513     26515
     26505     26513     26516     26505     26517     26518     26505     26517     26519
     26505     26517     26520     26506     26505     26509     26506     26505     26513
     26506     26505     26517     26506     26521     26522     26506     26521     26523
     26506     26521     26527     26507     26506     26508     26507     26506     26521
     26508     26506     26521     26509     26505     26513     26509     26505     26517
     26510     26509     26511     26510     26509     26512     26511     26509     26512
     26513     26505     26517     26514     26513     26515     26514     26513     26516
     26515     26513     26516     26518     26517     26519     26518     26517     26520
     26519     26517     26520     26521     26527     26524     26522     26521     26523
     26522     26521     26527     26523     26521     26527     26524     26528     26529
     26525     26524     26526     26525     26524     26527     26525     26524     26528
     26526     26524     26527     26526     26524     26528     26527     26524     26528
     26528     26529     26530     26528     26529     26531     26528     26529     26532
     26529     26532     26533     26529     26532     26534     26529     26532     26540
     26530     26529     26531     26530     26529     26532     26531     26529     26532
     26532     26534     26535     26532     26540     26541     26532     26540     26542
     26532     26540     26543     26533     26532     26534     26533     26532     26540
     26534     26532     26540     26534     26535     26536     26534     26535     26537
     26535     26537     26538     26535     26537     26539     26535     26537     26549
     26536     26535     26537     26537     26549     26550     26537     26549     26551
     26537     26549     26552     26538     26537     26539     26538     26537     26549
     26539     26537     26549     26540     26543     26544     26541     26540     26542
     26541     26540     26543     26542     26540     26543     26543     26544     26545
     26543     26544     26546     26544     26546     26547     26544     26546     26548
     26544     26546     26596     26545     26544     26546     26546     26596     26597
     26546     26596     26598     26546     26596     26599     26547     26546     26548
     26547     26546     26596     26548     26546     26596     26549     26552     26553
     26549     26552     26554     26549     26552     26555     26550     26549     26551
     26550     26549     26552     26551     26549     26552     26552     26555     26556
     26552     26555     26557     26552     26555     26558     26553     26552     26554
     26553     26552     26555     26554     26552     26555     26555     26558     26559
     26555     26558     26560     26555     26558     26561     26556     26555     26557
     26556     26555     26558     26557     26555     26558     26558     26561     26562
     26558     26561     26563     26558     26561     26564     26559     26558     26560
     26559     26558     26561     26560     26558     26561     26561     26564     26565
     26561     26564     26566     26561     26564     26567     26562     26561     26563
     26562     26561     26564     26563     26561     26564     26564     26567     26568
     26564     26567     26569     26565     26564     26566     26565     26564     26567
     26566     26564     26567     26567     26569     26570     26567     26569     26571
     26568     26567     26569     26569     26571     26572     26569     26571     26573
     26569     26571     26574     26570     26569     26571     26571     26574     26575
     26571     26574     26576     26571     26574     26577     26572     26571     26573
     26572     26571     26574     26573     26571     26574     26574     26577     26578
     26574     26577     26579     26574     26577     26580     26575     26574     26576
     26575     26574     26577     26576     26574     26577     26577     26580     26581
     26577     26580     26582     26577     26580     26583     26578     26577     26579
     26578     26577     26580     26579     26577     26580     26580     26583     26584
     26580     26583     26585     26580     26583     26586     26581     26580     26582
     26581     26580     26583     26582     26580     26583     26583     26586     26587
     26583     26586     26588     26583     26586     26589     26584     26583     26585
     26584     26583     26586     26585     26583     26586     26586     26589     26590
     26586     26589     26591     26586     26589     26592     26587     26586     26588
     26587     26586     26589     26588     26586     26589     26589     26592     26593
     26589     26592     26594     26589     26592     26595     26590     26589     26591
     26590     26589     26592     26591     26589     26592     26593     26592     26594
     26593     26592     26595     26594     26592     26595     26596     26599     26600
     26596     26599     26601     26596     26599     26602     26597     26596     26598
     26597     26596     26599     26598     26596     26599     26599     26602     26603
     26599     26602     26604     26599     26602     26605     26600     26599     26601
     26600     26599     26602     26601     26599     26602     26602     26605     26606
     26602     26605     26607     26602     26605     26608     26603     26602     26604
     26603     26602     26605     26604     26602     26605     26605     26608     26609
     26605     26608     26610     26605     26608     26611     26606     26605     26607
     26606     26605     26608     26607     26605     26608     26608     26611     26612
     26608     26611     26613     26608     26611     26614     26609     26608     26610
     26609     26608     26611     26610     26608     26611     26611     26614     26615
     26611     26614     26616     26611     26614     26617     26612     26611     26613
     26612     26611     26614     26613     26611     26614     26614     26617     26618
     26614     26617     26619     26614     26617     26620     26615     26614     26616
     26615     26614     26617     26616     26614     26617     26617     26620     26621
     26617     26620     26622     26617     26620     26623     26618     26617     26619
     26618     26617     26620     26619     26617     26620     26620     26623     26624
     26620     26623     26625     26620     26623     26626     26621     26620     26622
     26621     26620     26623     26622     26620     26623     26623     26626     26627
     26623     26626     26628     26623     26626     26629     26624     26623     26625
     26624     26623     26626     26625     26623     26626     26626     26629     26630
     26626     26629     26631     26626     26629     26632     26627     26626     26628
     26627     26626     26629     26628     26626     26629     26629     26632     26633
     26629     26632     26634     26629     26632     26635     26630     26629     26631
     26630     26629     26632     26631     26629     26632     26632     26635     26636
     26632     26635     26637     26632     26635     26638     26633     26632     26634
     26633     26632     26635     26634     26632     26635     26636     26635     26637
     26636     26635     26638     26637     26635     26638     26639     26640     26641
     26639     26640     26642     26639     26640     26655     26639     26643     26644
     26639     26643     26645     26639     26643     26646     26639     26647     26648
     26639     26647     26649     26639     26647     26650     26639     26651     26652
     26639     26651     26653     26639     26651     26654     26640     26639     26643
     26640     26639     26647     26640     26639     26651     26640     26655     26656
     26640     26655     26657     26640     26655     26661     26641     26640     26642
     26641     26640     26655     26642     26640     26655     26643     26639     26647
     26643     26639     26651     26644     26643     26645     26644     26643     26646
     26645     26643     26646     26647     26639     26651     26648     26647     26649
     26648     26647     26650     26649     26647     26650     26652     26651     26653
     26652     26651     26654     26653     26651     26654     26655     26661     26658
     26656     26655     26657     26656     26655     26661     26657     26655     26661
     26658     26662     26663     26659     26658     26660     26659     26658     26661
     26659     26658     26662     26660     26658     26661     26660     26658     26662
     26661     26658     26662     26662     26663     26664     26662     26663     26665
     26662     26663     26666     26663     26666     26667     26663     26666     26668
     26663     26666     26674     26664     26663     26665     26664     26663     26666
     26665     26663     26666     26666     26668     26669     26666     26674     26675
     26666     26674     26676     26666     26674     26677     26667     26666     26668
     26667     26666     26674     26668     26666     26674     26668     26669     26670
     26668     26669     26671     26669     26671     26672     26669     26671     26673
     26669     26671     26683     26670     26669     26671     26671     26683     26684
     26671     26683     26685     26671     26683     26686     26672     26671     26673
     26672     26671     26683     26673     26671     26683     26674     26677     26678
     26675     26674     26676     26675     26674     26677     26676     26674     26677
     26677     26678     26679     26677     26678     26680     26678     26680     26681
     26678     26680     26682     26678     26680     26730     26679     26678     26680
     26680     26730     26731     26680     26730     26732     26680     26730     26733
     26681     26680     26682     26681     26680     26730     26682     26680     26730
     26683     26686     26687     26683     26686     26688     26683     26686     26689
     26684     26683     26685     26684     26683     26686     26685     26683     26686
     26686     26689     26690     26686     26689     26691     26686     26689     26692
     26687     26686     26688     26687     26686     26689     26688     26686     26689
     26689     26692     26693     26689     26692     26694     26689     26692     26695
     26690     26689     26691     26690     26689     26692     26691     26689     26692
     26692     26695     26696     26692     26695     26697     26692     26695     26698
     26693     26692     26694     26693     26692     26695     26694     26692     26695
     26695     26698     26699     26695     26698     26700     26695     26698     26701
     26696     26695     26697     26696     26695     26698     26697     26695     26698
     26698     26701     26702     26698     26701     26703     26699     26698     26700
     26699     26698     26701     26700     26698     26701     26701     26703     26704
     26701     26703     26705     26702     26701     26703     26703     26705     26706
     26703     26705     26707     26703     26705     26708     26704     26703     26705
     26705     26708     26709     26705     26708     26710     26705     26708     26711
     26706     26705     26707     26706     26705     26708     26707     26705     26708
     26708     26711     26712     26708     26711     26713     26708     26711     26714
     26709     26708     26710     26709     26708     26711     26710     26708     26711
     26711     26714     26715     26711     26714     26716     26711     26714     26717
     26712     26711     26713     26712     26711     26714     26713     26711     26714
     26714     26717     26718     26714     26717     26719     26714     26717     26720
     26715     26714     26716     26715     26714     26717     26716     26714     26717
     26717     26720     26721     26717     26720     26722     26717     26720     26723
     26718     26717     26719     26718     26717     26720     26719     26717     26720
     26720     26723     26724     26720     26723     26725     26720     26723     26726
     26721     26720     26722     26721     26720     26723     26722     26720     26723
     26723     26726     26727     26723     26726     26728     26723     26726     26729
     26724     26723     26725     26724     26723     26726     26725     26723     26726
     26727     26726     26728     26727     26726     26729     26728     26726     26729
     26730     26733     26734     26730     26733     26735     26730     26733     26736
     26731     26730     26732     26731     26730     26733     26732     26730     26733
     26733     26736     26737     26733     26736     26738     26733     26736     26739
     26734     26733     26735     26734     26733     26736     26735     26733     26736
     26736     26739     26740     26736     26739     26741     26736     26739     26742
     26737     26736     26738     26737     26736     26739     26738     26736     26739
     26739     26742     26743     26739     26742     26744     26739     26742     26745
     26740     26739     26741     26740     26739     26742     26741     26739     26742
     26742     26745     26746     26742     26745     26747     26742     26745     26748
     26743     26742     26744     26743     26742     26745     26744     26742     26745
     26745     26748     26749     26745     26748     26750     26745     26748     26751
     26746     26745     26747     26746     26745     26748     26747     26745     26748
     26748     26751     26752     26748     26751     26753     26748     26751     26754
     26749     26748     26750     26749     26748     26751     26750     26748     26751
     26751     26754     26755     26751     26754     26756     26751     26754     26757
     26752     26751     26753     26752     26751     26754     26753     26751     26754
     26754     26757     26758     26754     26757     26759     26754     26757     26760
     26755     26754     26756     26755     26754     26757     26756     26754     26757
     26757     26760     26761     26757     26760     26762     26757     26760     26763
     26758     26757     26759     26758     26757     26760     26759     26757     26760
     26760     26763     26764     26760     26763     26765     26760     26763     26766
     26761     26760     26762     26761     26760     26763     26762     26760     26763
     26763     26766     26767     26763     26766     26768     26763     26766     26769
     26764     26763     26765     26764     26763     26766     26765     26763     26766
     26766     26769     26770     26766     26769     26771     26766     26769     26772
     26767     26766     26768     26767     26766     26769     26768     26766     26769
     26770     26769     26771     26770     26769     26772     26771     26769     26772
     26773     26774     26775     26773     26774     26776     26773     26774     26789
     26773     26777     26778     26773     26777     26779     26773     26777     26780
     26773     26781     26782     26773     26781     26783     26773     26781     26784
     26773     26785     26786     26773     26785     26787     26773     26785     26788
     26774     26773     26777     26774     26773     26781     26774     26773     26785
     26774     26789     26790     26774     26789     26791     26774     26789     26795
     26775     26774     26776     26775     26774     26789     26776     26774     26789
     26777     26773     26781     26777     26773     26785     26778     26777     26779
     26778     26777     26780     26779     26777     26780     26781     26773     26785
     26782     26781     26783     26782     26781     26784     26783     26781     26784
     26786     26785     26787     26786     26785     26788     26787     26785     26788
     26789     26795     26792     26790     26789     26791     26790     26789     26795
     26791     26789     26795     26792     26796     26797     26793     26792     26794
     26793     26792     26795     26793     26792     26796     26794     26792     26795
     26794     26792     26796     26795     26792     26796     26796     26797     26798
     26796     26797     26799     26796     26797     26800     26797     26800     26801
     26797     26800     26802     26797     26800     26808     26798     26797     26799
     26798     26797     26800     26799     26797     26800     26800     26802     26803
     26800     26808     26809     26800     26808     26810     26800     26808     26811
     26801     26800     26802     26801     26800     26808     26802     26800     26808
     26802     26803     26804     26802     26803     26805     26803     26805     26806
     26803     26805     26807     26803     26805     26817     26804     26803     26805
     26805     26817     26818     26805     26817     26819     26805     26817     26820
     26806     26805     26807     26806     26805     26817     26807     26805     26817
     26808     26811     26812     26809     26808     26810     26809     26808     26811
     26810     26808     26811     26811     26812     26813     26811     26812     26814
     26812     26814     26815     26812     26814     26816     26812     26814     26864
     26813     26812     26814     26814     26864     26865     26814     26864     26866
     26814     26864     26867     26815     26814     26816     26815     26814     26864
     26816     26814     26864     26817     26820     26821     26817     26820     26822
     26817     26820     26823     26818     26817     26819     26818     26817     26820
     26819     26817     26820     26820     26823     26824     26820     26823     26825
     26820     26823     26826     26821     26820     26822     26821     26820     26823
     26822     26820     26823     26823     26826     26827     26823     26826     26828
     26823     26826     26829     26824     26823     26825     26824     26823     26826
     26825     26823     26826     26826     26829     26830     26826     26829     26831
     26826     26829     26832     26827     26826     26828     26827     26826     26829
     26828     26826     26829     26829     26832     26833     26829     26832     26834
     26829     26832     26835     26830     26829     26831     26830     26829     26832
     26831     26829     26832     26832     26835     26836     26832     26835     26837
     26833     26832     26834     26833     26832     26835     26834     26832     26835
     26835     26837     26838     26835     26837     26839     26836     26835     26837
     26837     26839     26840     26837     26839     26841     26837     26839     26842
     26838     26837     26839     26839     26842     26843     26839     26842     26844
     26839     26842     26845     26840     26839     26841     26840     26839     26842
     26841     26839     26842     26842     26845     26846     26842     26845     26847
     26842     26845     26848     26843     26842     26844     26843     26842     26845
     26844     26842     26845     26845     26848     26849     26845     26848     26850
     26845     26848     26851     26846     26845     26847     26846     26845     26848
     26847     26845     26848     26848     26851     26852     26848     26851     26853
     26848     26851     26854     26849     26848     26850     26849     26848     26851
     26850     26848     26851     26851     26854     26855     26851     26854     26856
     26851     26854     26857     26852     26851     26853     26852     26851     26854
     26853     26851     26854     26854     26857     26858     26854     26857     26859
     26854     26857     26860     26855     26854     26856     26855     26854     26857
     26856     26854     26857     26857     26860     26861     26857     26860     26862
     26857     26860     26863     26858     26857     26859     26858     26857     26860
     26859     26857     26860     26861     26860     26862     26861     26860     26863
     26862     26860     26863     26864     26867     26868     26864     26867     26869
     26864     26867     26870     26865     26864     26866     26865     26864     26867
     26866     26864     26867     26867     26870     26871     26867     26870     26872
     26867     26870     26873     26868     26867     26869     26868     26867     26870
     26869     26867     26870     26870     26873     26874     26870     26873     26875
     26870     26873     26876     26871     26870     26872     26871     26870     26873
     26872     26870     26873     26873     26876     26877     26873     26876     26878
     26873     26876     26879     26874     26873     26875     26874     26873     26876
     26875     26873     26876     26876     26879     26880     26876     26879     26881
     26876     26879     26882     26877     26876     26878     26877     26876     26879
     26878     26876     26879     26879     26882     26883     26879     26882     26884
     26879     26882     26885     26880     26879     26881     26880     26879     26882
     26881     26879     26882     26882     26885     26886     26882     26885     26887
     26882     26885     26888     26883     26882     26884     26883     26882     26885
     26884     26882     26885     26885     26888     26889     26885     26888     26890
     26885     26888     26891     26886     26885     26887     26886     26885     26888
     26887     26885     26888     26888     26891     26892     26888     26891     26893
     26888     26891     26894     26889     26888     26890     26889     26888     26891
     26890     26888     26891     26891     26894     26895     26891     26894     26896
     26891     26894     26897     26892     26891     26893     26892     26891     26894
     26893     26891     26894     26894     26897     26898     26894     26897     26899
     26894     26897     26900     26895     26894     26896     26895     26894     26897
     26896     26894     26897     26897     26900     26901     26897     26900     26902
     26897     26900     26903     26898     26897     26899     26898     26897     26900
     26899     26897     26900     26900     26903     26904     26900     26903     26905
     26900     26903     26906     26901     26900     26902     26901     26900     26903
     26902     26900     26903     26904     26903     26905     26904     26903     26906
     26905     26903     26906     26907     26908     26909     26907     26908     26910
     26907     26908     26923     26907     26911     26912     26907     26911     26913
     26907     26911     26914     26907     26915     26916     26907     26915     26917
     26907     26915     26918     26907     26919     26920     26907     26919     26921
     26907     26919     26922     26908     26907     26911     26908     26907     26915
     26908     26907     26919     26908     26923     26924     26908     26923     26925
     26908     26923     26929     26909     26908     26910     26909     26908     26923
     26910     26908     26923     26911     26907     26915     26911     26907     26919
     26912     26911     26913     26912     26911     26914     26913     26911     26914
     26915     26907     26919     26916     26915     26917     26916     26915     26918
     26917     26915     26918     26920     26919     26921     26920     26919     26922
     26921     26919     26922     26923     26929     26926     26924     26923     26925
     26924     26923     26929     26925     26923     26929     26926     26930     26931
     26927     26926     26928     26927     26926     26929     26927     26926     26930
     26928     26926     26929     26928     26926     26930     26929     26926     26930
     26930     26931     26932     26930     26931     26933     26930     26931     26934
     26931     26934     26935     26931     26934     26936     26931     26934     26942
     26932     26931     26933     26932     26931     26934     26933     26931     26934
     26934     26936     26937     26934     26942     26943     26934     26942     26944
     26934     26942     26945     26935     26934     26936     26935     26934     26942
     26936     26934     26942     26936     26937     26938     26936     26937     26939
     26937     26939     26940     26937     26939     26941     26937     26939     26951
     26938     26937     26939     26939     26951     26952     26939     26951     26953
     26939     26951     26954     26940     26939     26941     26940     26939     26951
     26941     26939     26951     26942     26945     26946     26943     26942     26944
     26943     26942     26945     26944     26942     26945     26945     26946     26947
     26945     26946     26948     26946     26948     26949     26946     26948     26950
     26946     26948     26998     26947     26946     26948     26948     26998     26999
     26948     26998     27000     26948     26998     27001     26949     26948     26950
     26949     26948     26998     26950     26948     26998     26951     26954     26955
     26951     26954     26956     26951     26954     26957     26952     26951     26953
     26952     26951     26954     26953     26951     26954     26954     26957     26958
     26954     26957     26959     26954     26957     26960     26955     26954     26956
     26955     26954     26957     26956     26954     26957     26957     26960     26961
     26957     26960     26962     26957     26960     26963     26958     26957     26959
     26958     26957     26960     26959     26957     26960     26960     26963     26964
     26960     26963     26965     26960     26963     26966     26961     26960     26962
     26961     26960     26963     26962     26960     26963     26963     26966     26967
     26963     26966     26968     26963     26966     26969     26964     26963     26965
     26964     26963     26966     26965     26963     26966     26966     26969     26970
     26966     26969     26971     26967     26966     26968     26967     26966     26969
     26968     26966     26969     26969     26971     26972     26969     26971     26973
     26970     26969     26971     26971     26973     26974     26971     26973     26975
     26971     26973     26976     26972     26971     26973     26973     26976     26977
     26973     26976     26978     26973     26976     26979     26974     26973     26975
     26974     26973     26976     26975     26973     26976     26976     26979     26980
     26976     26979     26981     26976     26979     26982     26977     26976     26978
     26977     26976     26979     26978     26976     26979     26979     26982     26983
     26979     26982     26984     26979     26982     26985     26980     26979     26981
     26980     26979     26982     26981     26979     26982     26982     26985     26986
     26982     26985     26987     26982     26985     26988     26983     26982     26984
     26983     26982     26985     26984     26982     26985     26985     26988     26989
     26985     26988     26990     26985     26988     26991     26986     26985     26987
     26986     26985     26988     26987     26985     26988     26988     26991     26992
     26988     26991     26993     26988     26991     26994     26989     26988     26990
     26989     26988     26991     26990     26988     26991     26991     26994     26995
     26991     26994     26996     26991     26994     26997     26992     26991     26993
     26992     26991     26994     26993     26991     26994     26995     26994     26996
     26995     26994     26997     26996     26994     26997     26998     27001     27002
     26998     27001     27003     26998     27001     27004     26999     26998     27000
     26999     26998     27001     27000     26998     27001     27001     27004     27005
     27001     27004     27006     27001     27004     27007     27002     27001     27003
     27002     27001     27004     27003     27001     27004     27004     27007     27008
     27004     27007     27009     27004     27007     27010     27005     27004     27006
     27005     27004     27007     27006     27004     27007     27007     27010     27011
     27007     27010     27012     27007     27010     27013     27008     27007     27009
     27008     27007     27010     27009     27007     27010     27010     27013     27014
     27010     27013     27015     27010     27013     27016     27011     27010     27012
     27011     27010     27013     27012     27010     27013     27013     27016     27017
     27013     27016     27018     27013     27016     27019     27014     27013     27015
     27014     27013     27016     27015     27013     27016     27016     27019     27020
     27016     27019     27021     27016     27019     27022     27017     27016     27018
     27017     27016     27019     27018     27016     27019     27019     27022     27023
     27019     27022     27024     27019     27022     27025     27020     27019     27021
     27020     27019     27022     27021     27019     27022     27022     27025     27026
     27022     27025     27027     27022     27025     27028     27023     27022     27024
     27023     27022     27025     27024     27022     27025     27025     27028     27029
     27025     27028     27030     27025     27028     27031     27026     27025     27027
     27026     27025     27028     27027     27025     27028     27028     27031     27032
     27028     27031     27033     27028     27031     27034     27029     27028     27030
     27029     27028     27031     27030     27028     27031     27031     27034     27035
     27031     27034     27036     27031     27034     27037     27032     27031     27033
     27032     27031     27034     27033     27031     27034     27034     27037     27038
     27034     27037     27039     27034     27037     27040     27035     27034     27036
     27035     27034     27037     27036     27034     27037     27038     27037     27039
     27038     27037     27040     27039     27037     27040     27041     27042     27043
     27041     27042     27044     27041     27042     27057     27041     27045     27046
     27041     27045     27047     27041     27045     27048     27041     27049     27050
     27041     27049     27051     27041     27049     27052     27041     27053     27054
     27041     27053     27055     27041     27053     27056     27042     27041     27045
     27042     27041     27049     27042     27041     27053     27042     27057     27058
     27042     27057     27059     27042     27057     27063     27043     27042     27044
     27043     27042     27057     27044     27042     27057     27045     27041     27049
     27045     27041     27053     27046     27045     27047     27046     27045     27048
     27047     27045     27048     27049     27041     27053     27050     27049     27051
     27050     27049     27052     27051     27049     27052     27054     27053     27055
     27054     27053     27056     27055     27053     27056     27057     27063     27060
     27058     27057     27059     27058     27057     27063     27059     27057     27063
     27060     27064     27065     27061     27060     27062     27061     27060     27063
     27061     27060     27064     27062     27060     27063     27062     27060     27064
     27063     27060     27064     27064     27065     27066     27064     27065     27067
     27064     27065     27068     27065     27068     27069     27065     27068     27070
     27065     27068     27076     27066     27065     27067     27066     27065     27068
     27067     27065     27068     27068     27070     27071     27068     27076     27077
     27068     27076     27078     27068     27076     27079     27069     27068     27070
     27069     27068     27076     27070     27068     27076     27070     27071     27072
     27070     27071     27073     27071     27073     27074     27071     27073     27075
     27071     27073     27085     27072     27071     27073     27073     27085     27086
     27073     27085     27087     27073     27085     27088     27074     27073     27075
     27074     27073     27085     27075     27073     27085     27076     27079     27080
     27077     27076     27078     27077     27076     27079     27078     27076     27079
     27079     27080     27081     27079     27080     27082     27080     27082     27083
     27080     27082     27084     27080     27082     27132     27081     27080     27082
     27082     27132     27133     27082     27132     27134     27082     27132     27135
     27083     27082     27084     27083     27082     27132     27084     27082     27132
     27085     27088     27089     27085     27088     27090     27085     27088     27091
     27086     27085     27087     27086     27085     27088     27087     27085     27088
     27088     27091     27092     27088     27091     27093     27088     27091     27094
     27089     27088     27090     27089     27088     27091     27090     27088     27091
     27091     27094     27095     27091     27094     27096     27091     27094     27097
     27092     27091     27093     27092     27091     27094     27093     27091     27094
     27094     27097     27098     27094     27097     27099     27094     27097     27100
     27095     27094     27096     27095     27094     27097     27096     27094     27097
     27097     27100     27101     27097     27100     27102     27097     27100     27103
     27098     27097     27099     27098     27097     27100     27099     27097     27100
     27100     27103     27104     27100     27103     27105     27101     27100     27102
     27101     27100     27103     27102     27100     27103     27103     27105     27106
     27103     27105     27107     27104     27103     27105     27105     27107     27108
     27105     27107     27109     27105     27107     27110     27106     27105     27107
     27107     27110     27111     27107     27110     27112     27107     27110     27113
     27108     27107     27109     27108     27107     27110     27109     27107     27110
     27110     27113     27114     27110     27113     27115     27110     27113     27116
     27111     27110     27112     27111     27110     27113     27112     27110     27113
     27113     27116     27117     27113     27116     27118     27113     27116     27119
     27114     27113     27115     27114     27113     27116     27115     27113     27116
     27116     27119     27120     27116     27119     27121     27116     27119     27122
     27117     27116     27118     27117     27116     27119     27118     27116     27119
     27119     27122     27123     27119     27122     27124     27119     27122     27125
     27120     27119     27121     27120     27119     27122     27121     27119     27122
     27122     27125     27126     27122     27125     27127     27122     27125     27128
     27123     27122     27124     27123     27122     27125     27124     27122     27125
     27125     27128     27129     27125     27128     27130     27125     27128     27131
     27126     27125     27127     27126     27125     27128     27127     27125     27128
     27129     27128     27130     27129     27128     27131     27130     27128     27131
     27132     27135     27136     27132     27135     27137     27132     27135     27138
     27133     27132     27134     27133     27132     27135     27134     27132     27135
     27135     27138     27139     27135     27138     27140     27135     27138     27141
     27136     27135     27137     27136     27135     27138     27137     27135     27138
     27138     27141     27142     27138     27141     27143     27138     27141     27144
     27139     27138     27140     27139     27138     27141     27140     27138     27141
     27141     27144     27145     27141     27144     27146     27141     27144     27147
     27142     27141     27143     27142     27141     27144     27143     27141     27144
     27144     27147     27148     27144     27147     27149     27144     27147     27150
     27145     27144     27146     27145     27144     27147     27146     27144     27147
     27147     27150     27151     27147     27150     27152     27147     27150     27153
     27148     27147     27149     27148     27147     27150     27149     27147     27150
     27150     27153     27154     27150     27153     27155     27150     27153     27156
     27151     27150     27152     27151     27150     27153     27152     27150     27153
     27153     27156     27157     27153     27156     27158     27153     27156     27159
     27154     27153     27155     27154     27153     27156     27155     27153     27156
     27156     27159     27160     27156     27159     27161     27156     27159     27162
     27157     27156     27158     27157     27156     27159     27158     27156     27159
     27159     27162     27163     27159     27162     27164     27159     27162     27165
     27160     27159     27161     27160     27159     27162     27161     27159     27162
     27162     27165     27166     27162     27165     27167     27162     27165     27168
     27163     27162     27164     27163     27162     27165     27164     27162     27165
     27165     27168     27169     27165     27168     27170     27165     27168     27171
     27166     27165     27167     27166     27165     27168     27167     27165     27168
     27168     27171     27172     27168     27171     27173     27168     27171     27174
     27169     27168     27170     27169     27168     27171     27170     27168     27171
     27172     27171     27173     27172     27171     27174     27173     27171     27174
     27175     27176     27177     27175     27176     27178     27175     27176     27191
     27175     27179     27180     27175     27179     27181     27175     27179     27182
     27175     27183     27184     27175     27183     27185     27175     27183     27186
     27175     27187     27188     27175     27187     27189     27175     27187     27190
     27176     27175     27179     27176     27175     27183     27176     27175     27187
     27176     27191     27192     27176     27191     27193     27176     27191     27197
     27177     27176     27178     27177     27176     27191     27178     27176     27191
     27179     27175     27183     27179     27175     27187     27180     27179     27181
     27180     27179     27182     27181     27179     27182     27183     27175     27187
     27184     27183     27185     27184     27183     27186     27185     27183     27186
     27188     27187     27189     27188     27187     27190     27189     27187     27190
     27191     27197     27194     27192     27191     27193     27192     27191     27197
     27193     27191     27197     27194     27198     27199     27195     27194     27196
     27195     27194     27197     27195     27194     27198     27196     27194     27197
     27196     27194     27198     27197     27194     27198     27198     27199     27200
     27198     27199     27201     27198     27199     27202     27199     27202     27203
     27199     27202     27204     27199     27202     27210     27200     27199     27201
     27200     27199     27202     27201     27199     27202     27202     27204     27205
     27202     27210     27211     27202     27210     27212     27202     27210     27213
     27203     27202     27204     27203     27202     27210     27204     27202     27210
     27204     27205     27206     27204     27205     27207     27205     27207     27208
     27205     27207     27209     27205     27207     27219     27206     27205     27207
     27207     27219     27220     27207     27219     27221     27207     27219     27222
     27208     27207     27209     27208     27207     27219     27209     27207     27219
     27210     27213     27214     27211     27210     27212     27211     27210     27213
     27212     27210     27213     27213     27214     27215     27213     27214     27216
     27214     27216     27217     27214     27216     27218     27214     27216     27266
     27215     27214     27216     27216     27266     27267     27216     27266     27268
     27216     27266     27269     27217     27216     27218     27217     27216     27266
     27218     27216     27266     27219     27222     27223     27219     27222     27224
     27219     27222     27225     27220     27219     27221     27220     27219     27222
     27221     27219     27222     27222     27225     27226     27222     27225     27227
     27222     27225     27228     27223     27222     27224     27223     27222     27225
     27224     27222     27225     27225     27228     27229     27225     27228     27230
     27225     27228     27231     27226     27225     27227     27226     27225     27228
     27227     27225     27228     27228     27231     27232     27228     27231     27233
     27228     27231     27234     27229     27228     27230     27229     27228     27231
     27230     27228     27231     27231     27234     27235     27231     27234     27236
     27231     27234     27237     27232     27231     27233     27232     27231     27234
     27233     27231     27234     27234     27237     27238     27234     27237     27239
     27235     27234     27236     27235     27234     27237     27236     27234     27237
     27237     27239     27240     27237     27239     27241     27238     27237     27239
     27239     27241     27242     27239     27241     27243     27239     27241     27244
     27240     27239     27241     27241     27244     27245     27241     27244     27246
     27241     27244     27247     27242     27241     27243     27242     27241     27244
     27243     27241     27244     27244     27247     27248     27244     27247     27249
     27244     27247     27250     27245     27244     27246     27245     27244     27247
     27246     27244     27247     27247     27250     27251     27247     27250     27252
     27247     27250     27253     27248     27247     27249     27248     27247     27250
     27249     27247     27250     27250     27253     27254     27250     27253     27255
     27250     27253     27256     27251     27250     27252     27251     27250     27253
     27252     27250     27253     27253     27256     27257     27253     27256     27258
     27253     27256     27259     27254     27253     27255     27254     27253     27256
     27255     27253     27256     27256     27259     27260     27256     27259     27261
     27256     27259     27262     27257     27256     27258     27257     27256     27259
     27258     27256     27259     27259     27262     27263     27259     27262     27264
     27259     27262     27265     27260     27259     27261     27260     27259     27262
     27261     27259     27262     27263     27262     27264     27263     27262     27265
     27264     27262     27265     27266     27269     27270     27266     27269     27271
     27266     27269     27272     27267     27266     27268     27267     27266     27269
     27268     27266     27269     27269     27272     27273     27269     27272     27274
     27269     27272     27275     27270     27269     27271     27270     27269     27272
     27271     27269     27272     27272     27275     27276     27272     27275     27277
     27272     27275     27278     27273     27272     27274     27273     27272     27275
     27274     27272     27275     27275     27278     27279     27275     27278     27280
     27275     27278     27281     27276     27275     27277     27276     27275     27278
     27277     27275     27278     27278     27281     27282     27278     27281     27283
     27278     27281     27284     27279     27278     27280     27279     27278     27281
     27280     27278     27281     27281     27284     27285     27281     27284     27286
     27281     27284     27287     27282     27281     27283     27282     27281     27284
     27283     27281     27284     27284     27287     27288     27284     27287     27289
     27284     27287     27290     27285     27284     27286     27285     27284     27287
     27286     27284     27287     27287     27290     27291     27287     27290     27292
     27287     27290     27293     27288     27287     27289     27288     27287     27290
     27289     27287     27290     27290     27293     27294     27290     27293     27295
     27290     27293     27296     27291     27290     27292     27291     27290     27293
     27292     27290     27293     27293     27296     27297     27293     27296     27298
     27293     27296     27299     27294     27293     27295     27294     27293     27296
     27295     27293     27296     27296     27299     27300     27296     27299     27301
     27296     27299     27302     27297     27296     27298     27297     27296     27299
     27298     27296     27299     27299     27302     27303     27299     27302     27304
     27299     27302     27305     27300     27299     27301     27300     27299     27302
     27301     27299     27302     27302     27305     27306     27302     27305     27307
     27302     27305     27308     27303     27302     27304     27303     27302     27305
     27304     27302     27305     27306     27305     27307     27306     27305     27308
     27307     27305     27308     27309     27310     27311     27309     27310     27312
     27309     27310     27325     27309     27313     27314     27309     27313     27315
     27309     27313     27316     27309     27317     27318     27309     27317     27319
     27309     27317     27320     27309     27321     27322     27309     27321     27323
     27309     27321     27324     27310     27309     27313     27310     27309     27317
     27310     27309     27321     27310     27325     27326     27310     27325     27327
     27310     27325     27331     27311     27310     27312     27311     27310     27325
     27312     27310     27325     27313     27309     27317     27313     27309     27321
     27314     27313     27315     27314     27313     27316     27315     27313     27316
     27317     27309     27321     27318     27317     27319     27318     27317     27320
     27319     27317     27320     27322     27321     27323     27322     27321     27324
     27323     27321     27324     27325     27331     27328     27326     27325     27327
     27326     27325     27331     27327     27325     27331     27328     27332     27333
     27329     27328     27330     27329     27328     27331     27329     27328     27332
     27330     27328     27331     27330     27328     27332     27331     27328     27332
     27332     27333     27334     27332     27333     27335     27332     27333     27336
     27333     27336     27337     27333     27336     27338     27333     27336     27344
     27334     27333     27335     27334     27333     27336     27335     27333     27336
     27336     27338     27339     27336     27344     27345     27336     27344     27346
     27336     27344     27347     27337     27336     27338     27337     27336     27344
     27338     27336     27344     27338     27339     27340     27338     27339     27341
     27339     27341     27342     27339     27341     27343     27339     27341     27353
     27340     27339     27341     27341     27353     27354     27341     27353     27355
     27341     27353     27356     27342     27341     27343     27342     27341     27353
     27343     27341     27353     27344     27347     27348     27345     27344     27346
     27345     27344     27347     27346     27344     27347     27347     27348     27349
     27347     27348     27350     27348     27350     27351     27348     27350     27352
     27348     27350     27400     27349     27348     27350     27350     27400     27401
     27350     27400     27402     27350     27400     27403     27351     27350     27352
     27351     27350     27400     27352     27350     27400     27353     27356     27357
     27353     27356     27358     27353     27356     27359     27354     27353     27355
     27354     27353     27356     27355     27353     27356     27356     27359     27360
     27356     27359     27361     27356     27359     27362     27357     27356     27358
     27357     27356     27359     27358     27356     27359     27359     27362     27363
     27359     27362     27364     27359     27362     27365     27360     27359     27361
     27360     27359     27362     27361     27359     27362     27362     27365     27366
     27362     27365     27367     27362     27365     27368     27363     27362     27364
     27363     27362     27365     27364     27362     27365     27365     27368     27369
     27365     27368     27370     27365     27368     27371     27366     27365     27367
     27366     27365     27368     27367     27365     27368     27368     27371     27372
     27368     27371     27373     27369     27368     27370     27369     27368     27371
     27370     27368     27371     27371     27373     27374     27371     27373     27375
     27372     27371     27373     27373     27375     27376     27373     27375     27377
     27373     27375     27378     27374     27373     27375     27375     27378     27379
     27375     27378     27380     27375     27378     27381     27376     27375     27377
     27376     27375     27378     27377     27375     27378     27378     27381     27382
     27378     27381     27383     27378     27381     27384     27379     27378     27380
     27379     27378     27381     27380     27378     27381     27381     27384     27385
     27381     27384     27386     27381     27384     27387     27382     27381     27383
     27382     27381     27384     27383     27381     27384     27384     27387     27388
     27384     27387     27389     27384     27387     27390     27385     27384     27386
     27385     27384     27387     27386     27384     27387     27387     27390     27391
     27387     27390     27392     27387     27390     27393     27388     27387     27389
     27388     27387     27390     27389     27387     27390     27390     27393     27394
     27390     27393     27395     27390     27393     27396     27391     27390     27392
     27391     27390     27393     27392     27390     27393     27393     27396     27397
     27393     27396     27398     27393     27396     27399     27394     27393     27395
     27394     27393     27396     27395     27393     27396     27397     27396     27398
     27397     27396     27399     27398     27396     27399     27400     27403     27404
     27400     27403     27405     27400     27403     27406     27401     27400     27402
     27401     27400     27403     27402     27400     27403     27403     27406     27407
     27403     27406     27408     27403     27406     27409     27404     27403     27405
     27404     27403     27406     27405     27403     27406     27406     27409     27410
     27406     27409     27411     27406     27409     27412     27407     27406     27408
     27407     27406     27409     27408     27406     27409     27409     27412     27413
     27409     27412     27414     27409     27412     27415     27410     27409     27411
     27410     27409     27412     27411     27409     27412     27412     27415     27416
     27412     27415     27417     27412     27415     27418     27413     27412     27414
     27413     27412     27415     27414     27412     27415     27415     27418     27419
     27415     27418     27420     27415     27418     27421     27416     27415     27417
     27416     27415     27418     27417     27415     27418     27418     27421     27422
     27418     27421     27423     27418     27421     27424     27419     27418     27420
     27419     27418     27421     27420     27418     27421     27421     27424     27425
     27421     27424     27426     27421     27424     27427     27422     27421     27423
     27422     27421     27424     27423     27421     27424     27424     27427     27428
     27424     27427     27429     27424     27427     27430     27425     27424     27426
     27425     27424     27427     27426     27424     27427     27427     27430     27431
     27427     27430     27432     27427     27430     27433     27428     27427     27429
     27428     27427     27430     27429     27427     27430     27430     27433     27434
     27430     27433     27435     27430     27433     27436     27431     27430     27432
     27431     27430     27433     27432     27430     27433     27433     27436     27437
     27433     27436     27438     27433     27436     27439     27434     27433     27435
     27434     27433     27436     27435     27433     27436     27436     27439     27440
     27436     27439     27441     27436     27439     27442     27437     27436     27438
     27437     27436     27439     27438     27436     27439     27440     27439     27441
     27440     27439     27442     27441     27439     27442     27443     27444     27445
     27443     27444     27446     27443     27444     27459     27443     27447     27448
     27443     27447     27449     27443     27447     27450     27443     27451     27452
     27443     27451     27453     27443     27451     27454     27443     27455     27456
     27443     27455     27457     27443     27455     27458     27444     27443     27447
     27444     27443     27451     27444     27443     27455     27444     27459     27460
     27444     27459     27461     27444     27459     27465     27445     27444     27446
     27445     27444     27459     27446     27444     27459     27447     27443     27451
     27447     27443     27455     27448     27447     27449     27448     27447     27450
     27449     27447     27450     27451     27443     27455     27452     27451     27453
     27452     27451     27454     27453     27451     27454     27456     27455     27457
     27456     27455     27458     27457     27455     27458     27459     27465     27462
     27460     27459     27461     27460     27459     27465     27461     27459     27465
     27462     27466     27467     27463     27462     27464     27463     27462     27465
     27463     27462     27466     27464     27462     27465     27464     27462     27466
     27465     27462     27466     27466     27467     27468     27466     27467     27469
     27466     27467     27470     27467     27470     27471     27467     27470     27472
     27467     27470     27478     27468     27467     27469     27468     27467     27470
     27469     27467     27470     27470     27472     27473     27470     27478     27479
     27470     27478     27480     27470     27478     27481     27471     27470     27472
     27471     27470     27478     27472     27470     27478     27472     27473     27474
     27472     27473     27475     27473     27475     27476     27473     27475     27477
     27473     27475     27487     27474     27473     27475     27475     27487     27488
     27475     27487     27489     27475     27487     27490     27476     27475     27477
     27476     27475     27487     27477     27475     27487     27478     27481     27482
     27479     27478     27480     27479     27478     27481     27480     27478     27481
     27481     27482     27483     27481     27482     27484     27482     27484     27485
     27482     27484     27486     27482     27484     27534     27483     27482     27484
     27484     27534     27535     27484     27534     27536     27484     27534     27537
     27485     27484     27486     27485     27484     27534     27486     27484     27534
     27487     27490     27491     27487     27490     27492     27487     27490     27493
     27488     27487     27489     27488     27487     27490     27489     27487     27490
     27490     27493     27494     27490     27493     27495     27490     27493     27496
     27491     27490     27492     27491     27490     27493     27492     27490     27493
     27493     27496     27497     27493     27496     27498     27493     27496     27499
     27494     27493     27495     27494     27493     27496     27495     27493     27496
     27496     27499     27500     27496     27499     27501     27496     27499     27502
     27497     27496     27498     27497     27496     27499     27498     27496     27499
     27499     27502     27503     27499     27502     27504     27499     27502     27505
     27500     27499     27501     27500     27499     27502     27501     27499     27502
     27502     27505     27506     27502     27505     27507     27503     27502     27504
     27503     27502     27505     27504     27502     27505     27505     27507     27508
     27505     27507     27509     27506     27505     27507     27507     27509     27510
     27507     27509     27511     27507     27509     27512     27508     27507     27509
     27509     27512     27513     27509     27512     27514     27509     27512     27515
     27510     27509     27511     27510     27509     27512     27511     27509     27512
     27512     27515     27516     27512     27515     27517     27512     27515     27518
     27513     27512     27514     27513     27512     27515     27514     27512     27515
     27515     27518     27519     27515     27518     27520     27515     27518     27521
     27516     27515     27517     27516     27515     27518     27517     27515     27518
     27518     27521     27522     27518     27521     27523     27518     27521     27524
     27519     27518     27520     27519     27518     27521     27520     27518     27521
     27521     27524     27525     27521     27524     27526     27521     27524     27527
     27522     27521     27523     27522     27521     27524     27523     27521     27524
     27524     27527     27528     27524     27527     27529     27524     27527     27530
     27525     27524     27526     27525     27524     27527     27526     27524     27527
     27527     27530     27531     27527     27530     27532     27527     27530     27533
     27528     27527     27529     27528     27527     27530     27529     27527     27530
     27531     27530     27532     27531     27530     27533     27532     27530     27533
     27534     27537     27538     27534     27537     27539     27534     27537     27540
     27535     27534     27536     27535     27534     27537     27536     27534     27537
     27537     27540     27541     27537     27540     27542     27537     27540     27543
     27538     27537     27539     27538     27537     27540     27539     27537     27540
     27540     27543     27544     27540     27543     27545     27540     27543     27546
     27541     27540     27542     27541     27540     27543     27542     27540     27543
     27543     27546     27547     27543     27546     27548     27543     27546     27549
     27544     27543     27545     27544     27543     27546     27545     27543     27546
     27546     27549     27550     27546     27549     27551     27546     27549     27552
     27547     27546     27548     27547     27546     27549     27548     27546     27549
     27549     27552     27553     27549     27552     27554     27549     27552     27555
     27550     27549     27551     27550     27549     27552     27551     27549     27552
     27552     27555     27556     27552     27555     27557     27552     27555     27558
     27553     27552     27554     27553     27552     27555     27554     27552     27555
     27555     27558     27559     27555     27558     27560     27555     27558     27561
     27556     27555     27557     27556     27555     27558     27557     27555     27558
     27558     27561     27562     27558     27561     27563     27558     27561     27564
     27559     27558     27560     27559     27558     27561     27560     27558     27561
     27561     27564     27565     27561     27564     27566     27561     27564     27567
     27562     27561     27563     27562     27561     27564     27563     27561     27564
     27564     27567     27568     27564     27567     27569     27564     27567     27570
     27565     27564     27566     27565     27564     27567     27566     27564     27567
     27567     27570     27571     27567     27570     27572     27567     27570     27573
     27568     27567     27569     27568     27567     27570     27569     27567     27570
     27570     27573     27574     27570     27573     27575     27570     27573     27576
     27571     27570     27572     27571     27570     27573     27572     27570     27573
     27574     27573     27575     27574     27573     27576     27575     27573     27576
     27577     27578     27579     27577     27578     27580     27577     27578     27593
     27577     27581     27582     27577     27581     27583     27577     27581     27584
     27577     27585     27586     27577     27585     27587     27577     27585     27588
     27577     27589     27590     27577     27589     27591     27577     27589     27592
     27578     27577     27581     27578     27577     27585     27578     27577     27589
     27578     27593     27594     27578     27593     27595     27578     27593     27599
     27579     27578     27580     27579     27578     27593     27580     27578     27593
     27581     27577     27585     27581     27577     27589     27582     27581     27583
     27582     27581     27584     27583     27581     27584     27585     27577     27589
     27586     27585     27587     27586     27585     27588     27587     27585     27588
     27590     27589     27591     27590     27589     27592     27591     27589     27592
     27593     27599     27596     27594     27593     27595     27594     27593     27599
     27595     27593     27599     27596     27600     27601     27597     27596     27598
     27597     27596     27599     27597     27596     27600     27598     27596     27599
     27598     27596     27600     27599     27596     27600     27600     27601     27602
     27600     27601     27603     27600     27601     27604     27601     27604     27605
     27601     27604     27606     27601     27604     27612     27602     27601     27603
     27602     27601     27604     27603     27601     27604     27604     27606     27607
     27604     27612     27613     27604     27612     27614     27604     27612     27615
     27605     27604     27606     27605     27604     27612     27606     27604     27612
     27606     27607     27608     27606     27607     27609     27607     27609     27610
     27607     27609     27611     27607     27609     27621     27608     27607     27609
     27609     27621     27622     27609     27621     27623     27609     27621     27624
     27610     27609     27611     27610     27609     27621     27611     27609     27621
     27612     27615     27616     27613     27612     27614     27613     27612     27615
     27614     27612     27615     27615     27616     27617     27615     27616     27618
     27616     27618     27619     27616     27618     27620     27616     27618     27668
     27617     27616     27618     27618     27668     27669     27618     27668     27670
     27618     27668     27671     27619     27618     27620     27619     27618     27668
     27620     27618     27668     27621     27624     27625     27621     27624     27626
     27621     27624     27627     27622     27621     27623     27622     27621     27624
     27623     27621     27624     27624     27627     27628     27624     27627     27629
     27624     27627     27630     27625     27624     27626     27625     27624     27627
     27626     27624     27627     27627     27630     27631     27627     27630     27632
     27627     27630     27633     27628     27627     27629     27628     27627     27630
     27629     27627     27630     27630     27633     27634     27630     27633     27635
     27630     27633     27636     27631     27630     27632     27631     27630     27633
     27632     27630     27633     27633     27636     27637     27633     27636     27638
     27633     27636     27639     27634     27633     27635     27634     27633     27636
     27635     27633     27636     27636     27639     27640     27636     27639     27641
     27637     27636     27638     27637     27636     27639     27638     27636     27639
     27639     27641     27642     27639     27641     27643     27640     27639     27641
     27641     27643     27644     27641     27643     27645     27641     27643     27646
     27642     27641     27643     27643     27646     27647     27643     27646     27648
     27643     27646     27649     27644     27643     27645     27644     27643     27646
     27645     27643     27646     27646     27649     27650     27646     27649     27651
     27646     27649     27652     27647     27646     27648     27647     27646     27649
     27648     27646     27649     27649     27652     27653     27649     27652     27654
     27649     27652     27655     27650     27649     27651     27650     27649     27652
     27651     27649     27652     27652     27655     27656     27652     27655     27657
     27652     27655     27658     27653     27652     27654     27653     27652     27655
     27654     27652     27655     27655     27658     27659     27655     27658     27660
     27655     27658     27661     27656     27655     27657     27656     27655     27658
     27657     27655     27658     27658     27661     27662     27658     27661     27663
     27658     27661     27664     27659     27658     27660     27659     27658     27661
     27660     27658     27661     27661     27664     27665     27661     27664     27666
     27661     27664     27667     27662     27661     27663     27662     27661     27664
     27663     27661     27664     27665     27664     27666     27665     27664     27667
     27666     27664     27667     27668     27671     27672     27668     27671     27673
     27668     27671     27674     27669     27668     27670     27669     27668     27671
     27670     27668     27671     27671     27674     27675     27671     27674     27676
     27671     27674     27677     27672     27671     27673     27672     27671     27674
     27673     27671     27674     27674     27677     27678     27674     27677     27679
     27674     27677     27680     27675     27674     27676     27675     27674     27677
     27676     27674     27677     27677     27680     27681     27677     27680     27682
     27677     27680     27683     27678     27677     27679     27678     27677     27680
     27679     27677     27680     27680     27683     27684     27680     27683     27685
     27680     27683     27686     27681     27680     27682     27681     27680     27683
     27682     27680     27683     27683     27686     27687     27683     27686     27688
     27683     27686     27689     27684     27683     27685     27684     27683     27686
     27685     27683     27686     27686     27689     27690     27686     27689     27691
     27686     27689     27692     27687     27686     27688     27687     27686     27689
     27688     27686     27689     27689     27692     27693     27689     27692     27694
     27689     27692     27695     27690     27689     27691     27690     27689     27692
     27691     27689     27692     27692     27695     27696     27692     27695     27697
     27692     27695     27698     27693     27692     27694     27693     27692     27695
     27694     27692     27695     27695     27698     27699     27695     27698     27700
     27695     27698     27701     27696     27695     27697     27696     27695     27698
     27697     27695     27698     27698     27701     27702     27698     27701     27703
     27698     27701     27704     27699     27698     27700     27699     27698     27701
     27700     27698     27701     27701     27704     27705     27701     27704     27706
     27701     27704     27707     27702     27701     27703     27702     27701     27704
     27703     27701     27704     27704     27707     27708     27704     27707     27709
     27704     27707     27710     27705     27704     27706     27705     27704     27707
     27706     27704     27707     27708     27707     27709     27708     27707     27710
     27709     27707     27710     27711     27712     27713     27711     27712     27714
     27711     27712     27727     27711     27715     27716     27711     27715     27717
     27711     27715     27718     27711     27719     27720     27711     27719     27721
     27711     27719     27722     27711     27723     27724     27711     27723     27725
     27711     27723     27726     27712     27711     27715     27712     27711     27719
     27712     27711     27723     27712     27727     27728     27712     27727     27729
     27712     27727     27733     27713     27712     27714     27713     27712     27727
     27714     27712     27727     27715     27711     27719     27715     27711     27723
     27716     27715     27717     27716     27715     27718     27717     27715     27718
     27719     27711     27723     27720     27719     27721     27720     27719     27722
     27721     27719     27722     27724     27723     27725     27724     27723     27726
     27725     27723     27726     27727     27733     27730     27728     27727     27729
     27728     27727     27733     27729     27727     27733     27730     27734     27735
     27731     27730     27732     27731     27730     27733     27731     27730     27734
     27732     27730     27733     27732     27730     27734     27733     27730     27734
     27734     27735     27736     27734     27735     27737     27734     27735     27738
     27735     27738     27739     27735     27738     27740     27735     27738     27746
     27736     27735     27737     27736     27735     27738     27737     27735     27738
     27738     27740     27741     27738     27746     27747     27738     27746     27748
     27738     27746     27749     27739     27738     27740     27739     27738     27746
     27740     27738     27746     27740     27741     27742     27740     27741     27743
     27741     27743     27744     27741     27743     27745     27741     27743     27755
     27742     27741     27743     27743     27755     27756     27743     27755     27757
     27743     27755     27758     27744     27743     27745     27744     27743     27755
     27745     27743     27755     27746     27749     27750     27747     27746     27748
     27747     27746     27749     27748     27746     27749     27749     27750     27751
     27749     27750     27752     27750     27752     27753     27750     27752     27754
     27750     27752     27802     27751     27750     27752     27752     27802     27803
     27752     27802     27804     27752     27802     27805     27753     27752     27754
     27753     27752     27802     27754     27752     27802     27755     27758     27759
     27755     27758     27760     27755     27758     27761     27756     27755     27757
     27756     27755     27758     27757     27755     27758     27758     27761     27762
     27758     27761     27763     27758     27761     27764     27759     27758     27760
     27759     27758     27761     27760     27758     27761     27761     27764     27765
     27761     27764     27766     27761     27764     27767     27762     27761     27763
     27762     27761     27764     27763     27761     27764     27764     27767     27768
     27764     27767     27769     27764     27767     27770     27765     27764     27766
     27765     27764     27767     27766     27764     27767     27767     27770     27771
     27767     27770     27772     27767     27770     27773     27768     27767     27769
     27768     27767     27770     27769     27767     27770     27770     27773     27774
     27770     27773     27775     27771     27770     27772     27771     27770     27773
     27772     27770     27773     27773     27775     27776     27773     27775     27777
     27774     27773     27775     27775     27777     27778     27775     27777     27779
     27775     27777     27780     27776     27775     27777     27777     27780     27781
     27777     27780     27782     27777     27780     27783     27778     27777     27779
     27778     27777     27780     27779     27777     27780     27780     27783     27784
     27780     27783     27785     27780     27783     27786     27781     27780     27782
     27781     27780     27783     27782     27780     27783     27783     27786     27787
     27783     27786     27788     27783     27786     27789     27784     27783     27785
     27784     27783     27786     27785     27783     27786     27786     27789     27790
     27786     27789     27791     27786     27789     27792     27787     27786     27788
     27787     27786     27789     27788     27786     27789     27789     27792     27793
     27789     27792     27794     27789     27792     27795     27790     27789     27791
     27790     27789     27792     27791     27789     27792     27792     27795     27796
     27792     27795     27797     27792     27795     27798     27793     27792     27794
     27793     27792     27795     27794     27792     27795     27795     27798     27799
     27795     27798     27800     27795     27798     27801     27796     27795     27797
     27796     27795     27798     27797     27795     27798     27799     27798     27800
     27799     27798     27801     27800     27798     27801     27802     27805     27806
     27802     27805     27807     27802     27805     27808     27803     27802     27804
     27803     27802     27805     27804     27802     27805     27805     27808     27809
     27805     27808     27810     27805     27808     27811     27806     27805     27807
     27806     27805     27808     27807     27805     27808     27808     27811     27812
     27808     27811     27813     27808     27811     27814     27809     27808     27810
     27809     27808     27811     27810     27808     27811     27811     27814     27815
     27811     27814     27816     27811     27814     27817     27812     27811     27813
     27812     27811     27814     27813     27811     27814     27814     27817     27818
     27814     27817     27819     27814     27817     27820     27815     27814     27816
     27815     27814     27817     27816     27814     27817     27817     27820     27821
     27817     27820     27822     27817     27820     27823     27818     27817     27819
     27818     27817     27820     27819     27817     27820     27820     27823     27824
     27820     27823     27825     27820     27823     27826     27821     27820     27822
     27821     27820     27823     27822     27820     27823     27823     27826     27827
     27823     27826     27828     27823     27826     27829     27824     27823     27825
     27824     27823     27826     27825     27823     27826     27826     27829     27830
     27826     27829     27831     27826     27829     27832     27827     27826     27828
     27827     27826     27829     27828     27826     27829     27829     27832     27833
     27829     27832     27834     27829     27832     27835     27830     27829     27831
     27830     27829     27832     27831     27829     27832     27832     27835     27836
     27832     27835     27837     27832     27835     27838     27833     27832     27834
     27833     27832     27835     27834     27832     27835     27835     27838     27839
     27835     27838     27840     27835     27838     27841     27836     27835     27837
     27836     27835     27838     27837     27835     27838     27838     27841     27842
     27838     27841     27843     27838     27841     27844     27839     27838     27840
     27839     27838     27841     27840     27838     27841     27842     27841     27843
     27842     27841     27844     27843     27841     27844     27845     27846     27847
     27845     27846     27848     27845     27846     27861     27845     27849     27850
     27845     27849     27851     27845     27849     27852     27845     27853     27854
     27845     27853     27855     27845     27853     27856     27845     27857     27858
     27845     27857     27859     27845     27857     27860     27846     27845     27849
     27846     27845     27853     27846     27845     27857     27846     27861     27862
     27846     27861     27863     27846     27861     27867     27847     27846     27848
     27847     27846     27861     27848     27846     27861     27849     27845     27853
     27849     27845     27857     27850     27849     27851     27850     27849     27852
     27851     27849     27852     27853     27845     27857     27854     27853     27855
     27854     27853     27856     27855     27853     27856     27858     27857     27859
     27858     27857     27860     27859     27857     27860     27861     27867     27864
     27862     27861     27863     27862     27861     27867     27863     27861     27867
     27864     27868     27869     27865     27864     27866     27865     27864     27867
     27865     27864     27868     27866     27864     27867     27866     27864     27868
     27867     27864     27868     27868     27869     27870     27868     27869     27871
     27868     27869     27872     27869     27872     27873     27869     27872     27874
     27869     27872     27880     27870     27869     27871     27870     27869     27872
     27871     27869     27872     27872     27874     27875     27872     27880     27881
     27872     27880     27882     27872     27880     27883     27873     27872     27874
     27873     27872     27880     27874     27872     27880     27874     27875     27876
     27874     27875     27877     27875     27877     27878     27875     27877     27879
     27875     27877     27889     27876     27875     27877     27877     27889     27890
     27877     27889     27891     27877     27889     27892     27878     27877     27879
     27878     27877     27889     27879     27877     27889     27880     27883     27884
     27881     27880     27882     27881     27880     27883     27882     27880     27883
     27883     27884     27885     27883     27884     27886     27884     27886     27887
     27884     27886     27888     27884     27886     27936     27885     27884     27886
     27886     27936     27937     27886     27936     27938     27886     27936     27939
     27887     27886     27888     27887     27886     27936     27888     27886     27936
     27889     27892     27893     27889     27892     27894     27889     27892     27895
     27890     27889     27891     27890     27889     27892     27891     27889     27892
     27892     27895     27896     27892     27895     27897     27892     27895     27898
     27893     27892     27894     27893     27892     27895     27894     27892     27895
     27895     27898     27899     27895     27898     27900     27895     27898     27901
     27896     27895     27897     27896     27895     27898     27897     27895     27898
     27898     27901     27902     27898     27901     27903     27898     27901     27904
     27899     27898     27900     27899     27898     27901     27900     27898     27901
     27901     27904     27905     27901     27904     27906     27901     27904     27907
     27902     27901     27903     27902     27901     27904     27903     27901     27904
     27904     27907     27908     27904     27907     27909     27905     27904     27906
     27905     27904     27907     27906     27904     27907     27907     27909     27910
     27907     27909     27911     27908     27907     27909     27909     27911     27912
     27909     27911     27913     27909     27911     27914     27910     27909     27911
     27911     27914     27915     27911     27914     27916     27911     27914     27917
     27912     27911     27913     27912     27911     27914     27913     27911     27914
     27914     27917     27918     27914     27917     27919     27914     27917     27920
     27915     27914     27916     27915     27914     27917     27916     27914     27917
     27917     27920     27921     27917     27920     27922     27917     27920     27923
     27918     27917     27919     27918     27917     27920     27919     27917     27920
     27920     27923     27924     27920     27923     27925     27920     27923     27926
     27921     27920     27922     27921     27920     27923     27922     27920     27923
     27923     27926     27927     27923     27926     27928     27923     27926     27929
     27924     27923     27925     27924     27923     27926     27925     27923     27926
     27926     27929     27930     27926     27929     27931     27926     27929     27932
     27927     27926     27928     27927     27926     27929     27928     27926     27929
     27929     27932     27933     27929     27932     27934     27929     27932     27935
     27930     27929     27931     27930     27929     27932     27931     27929     27932
     27933     27932     27934     27933     27932     27935     27934     27932     27935
     27936     27939     27940     27936     27939     27941     27936     27939     27942
     27937     27936     27938     27937     27936     27939     27938     27936     27939
     27939     27942     27943     27939     27942     27944     27939     27942     27945
     27940     27939     27941     27940     27939     27942     27941     27939     27942
     27942     27945     27946     27942     27945     27947     27942     27945     27948
     27943     27942     27944     27943     27942     27945     27944     27942     27945
     27945     27948     27949     27945     27948     27950     27945     27948     27951
     27946     27945     27947     27946     27945     27948     27947     27945     27948
     27948     27951     27952     27948     27951     27953     27948     27951     27954
     27949     27948     27950     27949     27948     27951     27950     27948     27951
     27951     27954     27955     27951     27954     27956     27951     27954     27957
     27952     27951     27953     27952     27951     27954     27953     27951     27954
     27954     27957     27958     27954     27957     27959     27954     27957     27960
     27955     27954     27956     27955     27954     27957     27956     27954     27957
     27957     27960     27961     27957     27960     27962     27957     27960     27963
     27958     27957     27959     27958     27957     27960     27959     27957     27960
     27960     27963     27964     27960     27963     27965     27960     27963     27966
     27961     27960     27962     27961     27960     27963     27962     27960     27963
     27963     27966     27967     27963     27966     27968     27963     27966     27969
     27964     27963     27965     27964     27963     27966     27965     27963     27966
     27966     27969     27970     27966     27969     27971     27966     27969     27972
     27967     27966     27968     27967     27966     27969     27968     27966     27969
     27969     27972     27973     27969     27972     27974     27969     27972     27975
     27970     27969     27971     27970     27969     27972     27971     27969     27972
     27972     27975     27976     27972     27975     27977     27972     27975     27978
     27973     27972     27974     27973     27972     27975     27974     27972     27975
     27976     27975     27977     27976     27975     27978     27977     27975     27978
     27979     27980     27981     27979     27980     27982     27979     27980     27995
     27979     27983     27984     27979     27983     27985     27979     27983     27986
     27979     27987     27988     27979     27987     27989     27979     27987     27990
     27979     27991     27992     27979     27991     27993     27979     27991     27994
     27980     27979     27983     27980     27979     27987     27980     27979     27991
     27980     27995     27996     27980     27995     27997     27980     27995     28001
     27981     27980     27982     27981     27980     27995     27982     27980     27995
     27983     27979     27987     27983     27979     27991     27984     27983     27985
     27984     27983     27986     27985     27983     27986     27987     27979     27991
     27988     27987     27989     27988     27987     27990     27989     27987     27990
     27992     27991     27993     27992     27991     27994     27993     27991     27994
     27995     28001     27998     27996     27995     27997     27996     27995     28001
     27997     27995     28001     27998     28002     28003     27999     27998     28000
     27999     27998     28001     27999     27998     28002     28000     27998     28001
     28000     27998     28002     28001     27998     28002     28002     28003     28004
     28002     28003     28005     28002     28003     28006     28003     28006     28007
     28003     28006     28008     28003     28006     28014     28004     28003     28005
     28004     28003     28006     28005     28003     28006     28006     28008     28009
     28006     28014     28015     28006     28014     28016     28006     28014     28017
     28007     28006     28008     28007     28006     28014     28008     28006     28014
     28008     28009     28010     28008     28009     28011     28009     28011     28012
     28009     28011     28013     28009     28011     28023     28010     28009     28011
     28011     28023     28024     28011     28023     28025     28011     28023     28026
     28012     28011     28013     28012     28011     28023     28013     28011     28023
     28014     28017     28018     28015     28014     28016     28015     28014     28017
     28016     28014     28017     28017     28018     28019     28017     28018     28020
     28018     28020     28021     28018     28020     28022     28018     28020     28070
     28019     28018     28020     28020     28070     28071     28020     28070     28072
     28020     28070     28073     28021     28020     28022     28021     28020     28070
     28022     28020     28070     28023     28026     28027     28023     28026     28028
     28023     28026     28029     28024     28023     28025     28024     28023     28026
     28025     28023     28026     28026     28029     28030     28026     28029     28031
     28026     28029     28032     28027     28026     28028     28027     28026     28029
     28028     28026     28029     28029     28032     28033     28029     28032     28034
     28029     28032     28035     28030     28029     28031     28030     28029     28032
     28031     28029     28032     28032     28035     28036     28032     28035     28037
     28032     28035     28038     28033     28032     28034     28033     28032     28035
     28034     28032     28035     28035     28038     28039     28035     28038     28040
     28035     28038     28041     28036     28035     28037     28036     28035     28038
     28037     28035     28038     28038     28041     28042     28038     28041     28043
     28039     28038     28040     28039     28038     28041     28040     28038     28041
     28041     28043     28044     28041     28043     28045     28042     28041     28043
     28043     28045     28046     28043     28045     28047     28043     28045     28048
     28044     28043     28045     28045     28048     28049     28045     28048     28050
     28045     28048     28051     28046     28045     28047     28046     28045     28048
     28047     28045     28048     28048     28051     28052     28048     28051     28053
     28048     28051     28054     28049     28048     28050     28049     28048     28051
     28050     28048     28051     28051     28054     28055     28051     28054     28056
     28051     28054     28057     28052     28051     28053     28052     28051     28054
     28053     28051     28054     28054     28057     28058     28054     28057     28059
     28054     28057     28060     28055     28054     28056     28055     28054     28057
     28056     28054     28057     28057     28060     28061     28057     28060     28062
     28057     28060     28063     28058     28057     28059     28058     28057     28060
     28059     28057     28060     28060     28063     28064     28060     28063     28065
     28060     28063     28066     28061     28060     28062     28061     28060     28063
     28062     28060     28063     28063     28066     28067     28063     28066     28068
     28063     28066     28069     28064     28063     28065     28064     28063     28066
     28065     28063     28066     28067     28066     28068     28067     28066     28069
     28068     28066     28069     28070     28073     28074     28070     28073     28075
     28070     28073     28076     28071     28070     28072     28071     28070     28073
     28072     28070     28073     28073     28076     28077     28073     28076     28078
     28073     28076     28079     28074     28073     28075     28074     28073     28076
     28075     28073     28076     28076     28079     28080     28076     28079     28081
     28076     28079     28082     28077     28076     28078     28077     28076     28079
     28078     28076     28079     28079     28082     28083     28079     28082     28084
     28079     28082     28085     28080     28079     28081     28080     28079     28082
     28081     28079     28082     28082     28085     28086     28082     28085     28087
     28082     28085     28088     28083     28082     28084     28083     28082     28085
     28084     28082     28085     28085     28088     28089     28085     28088     28090
     28085     28088     28091     28086     28085     28087     28086     28085     28088
     28087     28085     28088     28088     28091     28092     28088     28091     28093
     28088     28091     28094     28089     28088     28090     28089     28088     28091
     28090     28088     28091     28091     28094     28095     28091     28094     28096
     28091     28094     28097     28092     28091     28093     28092     28091     28094
     28093     28091     28094     28094     28097     28098     28094     28097     28099
     28094     28097     28100     28095     28094     28096     28095     28094     28097
     28096     28094     28097     28097     28100     28101     28097     28100     28102
     28097     28100     28103     28098     28097     28099     28098     28097     28100
     28099     28097     28100     28100     28103     28104     28100     28103     28105
     28100     28103     28106     28101     28100     28102     28101     28100     28103
     28102     28100     28103     28103     28106     28107     28103     28106     28108
     28103     28106     28109     28104     28103     28105     28104     28103     28106
     28105     28103     28106     28106     28109     28110     28106     28109     28111
     28106     28109     28112     28107     28106     28108     28107     28106     28109
     28108     28106     28109     28110     28109     28111     28110     28109     28112
     28111     28109     28112     28113     28114     28115     28113     28114     28116
     28113     28114     28129     28113     28117     28118     28113     28117     28119
     28113     28117     28120     28113     28121     28122     28113     28121     28123
     28113     28121     28124     28113     28125     28126     28113     28125     28127
     28113     28125     28128     28114     28113     28117     28114     28113     28121
     28114     28113     28125     28114     28129     28130     28114     28129     28131
     28114     28129     28135     28115     28114     28116     28115     28114     28129
     28116     28114     28129     28117     28113     28121     28117     28113     28125
     28118     28117     28119     28118     28117     28120     28119     28117     28120
     28121     28113     28125     28122     28121     28123     28122     28121     28124
     28123     28121     28124     28126     28125     28127     28126     28125     28128
     28127     28125     28128     28129     28135     28132     28130     28129     28131
     28130     28129     28135     28131     28129     28135     28132     28136     28137
     28133     28132     28134     28133     28132     28135     28133     28132     28136
     28134     28132     28135     28134     28132     28136     28135     28132     28136
     28136     28137     28138     28136     28137     28139     28136     28137     28140
     28137     28140     28141     28137     28140     28142     28137     28140     28148
     28138     28137     28139     28138     28137     28140     28139     28137     28140
     28140     28142     28143     28140     28148     28149     28140     28148     28150
     28140     28148     28151     28141     28140     28142     28141     28140     28148
     28142     28140     28148     28142     28143     28144     28142     28143     28145
     28143     28145     28146     28143     28145     28147     28143     28145     28157
     28144     28143     28145     28145     28157     28158     28145     28157     28159
     28145     28157     28160     28146     28145     28147     28146     28145     28157
     28147     28145     28157     28148     28151     28152     28149     28148     28150
     28149     28148     28151     28150     28148     28151     28151     28152     28153
     28151     28152     28154     28152     28154     28155     28152     28154     28156
     28152     28154     28204     28153     28152     28154     28154     28204     28205
     28154     28204     28206     28154     28204     28207     28155     28154     28156
     28155     28154     28204     28156     28154     28204     28157     28160     28161
     28157     28160     28162     28157     28160     28163     28158     28157     28159
     28158     28157     28160     28159     28157     28160     28160     28163     28164
     28160     28163     28165     28160     28163     28166     28161     28160     28162
     28161     28160     28163     28162     28160     28163     28163     28166     28167
     28163     28166     28168     28163     28166     28169     28164     28163     28165
     28164     28163     28166     28165     28163     28166     28166     28169     28170
     28166     28169     28171     28166     28169     28172     28167     28166     28168
     28167     28166     28169     28168     28166     28169     28169     28172     28173
     28169     28172     28174     28169     28172     28175     28170     28169     28171
     28170     28169     28172     28171     28169     28172     28172     28175     28176
     28172     28175     28177     28173     28172     28174     28173     28172     28175
     28174     28172     28175     28175     28177     28178     28175     28177     28179
     28176     28175     28177     28177     28179     28180     28177     28179     28181
     28177     28179     28182     28178     28177     28179     28179     28182     28183
     28179     28182     28184     28179     28182     28185     28180     28179     28181
     28180     28179     28182     28181     28179     28182     28182     28185     28186
     28182     28185     28187     28182     28185     28188     28183     28182     28184
     28183     28182     28185     28184     28182     28185     28185     28188     28189
     28185     28188     28190     28185     28188     28191     28186     28185     28187
     28186     28185     28188     28187     28185     28188     28188     28191     28192
     28188     28191     28193     28188     28191     28194     28189     28188     28190
     28189     28188     28191     28190     28188     28191     28191     28194     28195
     28191     28194     28196     28191     28194     28197     28192     28191     28193
     28192     28191     28194     28193     28191     28194     28194     28197     28198
     28194     28197     28199     28194     28197     28200     28195     28194     28196
     28195     28194     28197     28196     28194     28197     28197     28200     28201
     28197     28200     28202     28197     28200     28203     28198     28197     28199
     28198     28197     28200     28199     28197     28200     28201     28200     28202
     28201     28200     28203     28202     28200     28203     28204     28207     28208
     28204     28207     28209     28204     28207     28210     28205     28204     28206
     28205     28204     28207     28206     28204     28207     28207     28210     28211
     28207     28210     28212     28207     28210     28213     28208     28207     28209
     28208     28207     28210     28209     28207     28210     28210     28213     28214
     28210     28213     28215     28210     28213     28216     28211     28210     28212
     28211     28210     28213     28212     28210     28213     28213     28216     28217
     28213     28216     28218     28213     28216     28219     28214     28213     28215
     28214     28213     28216     28215     28213     28216     28216     28219     28220
     28216     28219     28221     28216     28219     28222     28217     28216     28218
     28217     28216     28219     28218     28216     28219     28219     28222     28223
     28219     28222     28224     28219     28222     28225     28220     28219     28221
     28220     28219     28222     28221     28219     28222     28222     28225     28226
     28222     28225     28227     28222     28225     28228     28223     28222     28224
     28223     28222     28225     28224     28222     28225     28225     28228     28229
     28225     28228     28230     28225     28228     28231     28226     28225     28227
     28226     28225     28228     28227     28225     28228     28228     28231     28232
     28228     28231     28233     28228     28231     28234     28229     28228     28230
     28229     28228     28231     28230     28228     28231     28231     28234     28235
     28231     28234     28236     28231     28234     28237     28232     28231     28233
     28232     28231     28234     28233     28231     28234     28234     28237     28238
     28234     28237     28239     28234     28237     28240     28235     28234     28236
     28235     28234     28237     28236     28234     28237     28237     28240     28241
     28237     28240     28242     28237     28240     28243     28238     28237     28239
     28238     28237     28240     28239     28237     28240     28240     28243     28244
     28240     28243     28245     28240     28243     28246     28241     28240     28242
     28241     28240     28243     28242     28240     28243     28244     28243     28245
     28244     28243     28246     28245     28243     28246     28247     28248     28249
     28247     28248     28250     28247     28248     28263     28247     28251     28252
     28247     28251     28253     28247     28251     28254     28247     28255     28256
     28247     28255     28257     28247     28255     28258     28247     28259     28260
     28247     28259     28261     28247     28259     28262     28248     28247     28251
     28248     28247     28255     28248     28247     28259     28248     28263     28264
     28248     28263     28265     28248     28263     28269     28249     28248     28250
     28249     28248     28263     28250     28248     28263     28251     28247     28255
     28251     28247     28259     28252     28251     28253     28252     28251     28254
     28253     28251     28254     28255     28247     28259     28256     28255     28257
     28256     28255     28258     28257     28255     28258     28260     28259     28261
     28260     28259     28262     28261     28259     28262     28263     28269     28266
     28264     28263     28265     28264     28263     28269     28265     28263     28269
     28266     28270     28271     28267     28266     28268     28267     28266     28269
     28267     28266     28270     28268     28266     28269     28268     28266     28270
     28269     28266     28270     28270     28271     28272     28270     28271     28273
     28270     28271     28274     28271     28274     28275     28271     28274     28276
     28271     28274     28282     28272     28271     28273     28272     28271     28274
     28273     28271     28274     28274     28276     28277     28274     28282     28283
     28274     28282     28284     28274     28282     28285     28275     28274     28276
     28275     28274     28282     28276     28274     28282     28276     28277     28278
     28276     28277     28279     28277     28279     28280     28277     28279     28281
     28277     28279     28291     28278     28277     28279     28279     28291     28292
     28279     28291     28293     28279     28291     28294     28280     28279     28281
     28280     28279     28291     28281     28279     28291     28282     28285     28286
     28283     28282     28284     28283     28282     28285     28284     28282     28285
     28285     28286     28287     28285     28286     28288     28286     28288     28289
     28286     28288     28290     28286     28288     28338     28287     28286     28288
     28288     28338     28339     28288     28338     28340     28288     28338     28341
     28289     28288     28290     28289     28288     28338     28290     28288     28338
     28291     28294     28295     28291     28294     28296     28291     28294     28297
     28292     28291     28293     28292     28291     28294     28293     28291     28294
     28294     28297     28298     28294     28297     28299     28294     28297     28300
     28295     28294     28296     28295     28294     28297     28296     28294     28297
     28297     28300     28301     28297     28300     28302     28297     28300     28303
     28298     28297     28299     28298     28297     28300     28299     28297     28300
     28300     28303     28304     28300     28303     28305     28300     28303     28306
     28301     28300     28302     28301     28300     28303     28302     28300     28303
     28303     28306     28307     28303     28306     28308     28303     28306     28309
     28304     28303     28305     28304     28303     28306     28305     28303     28306
     28306     28309     28310     28306     28309     28311     28307     28306     28308
     28307     28306     28309     28308     28306     28309     28309     28311     28312
     28309     28311     28313     28310     28309     28311     28311     28313     28314
     28311     28313     28315     28311     28313     28316     28312     28311     28313
     28313     28316     28317     28313     28316     28318     28313     28316     28319
     28314     28313     28315     28314     28313     28316     28315     28313     28316
     28316     28319     28320     28316     28319     28321     28316     28319     28322
     28317     28316     28318     28317     28316     28319     28318     28316     28319
     28319     28322     28323     28319     28322     28324     28319     28322     28325
     28320     28319     28321     28320     28319     28322     28321     28319     28322
     28322     28325     28326     28322     28325     28327     28322     28325     28328
     28323     28322     28324     28323     28322     28325     28324     28322     28325
     28325     28328     28329     28325     28328     28330     28325     28328     28331
     28326     28325     28327     28326     28325     28328     28327     28325     28328
     28328     28331     28332     28328     28331     28333     28328     28331     28334
     28329     28328     28330     28329     28328     28331     28330     28328     28331
     28331     28334     28335     28331     28334     28336     28331     28334     28337
     28332     28331     28333     28332     28331     28334     28333     28331     28334
     28335     28334     28336     28335     28334     28337     28336     28334     28337
     28338     28341     28342     28338     28341     28343     28338     28341     28344
     28339     28338     28340     28339     28338     28341     28340     28338     28341
     28341     28344     28345     28341     28344     28346     28341     28344     28347
     28342     28341     28343     28342     28341     28344     28343     28341     28344
     28344     28347     28348     28344     28347     28349     28344     28347     28350
     28345     28344     28346     28345     28344     28347     28346     28344     28347
     28347     28350     28351     28347     28350     28352     28347     28350     28353
     28348     28347     28349     28348     28347     28350     28349     28347     28350
     28350     28353     28354     28350     28353     28355     28350     28353     28356
     28351     28350     28352     28351     28350     28353     28352     28350     28353
     28353     28356     28357     28353     28356     28358     28353     28356     28359
     28354     28353     28355     28354     28353     28356     28355     28353     28356
     28356     28359     28360     28356     28359     28361     28356     28359     28362
     28357     28356     28358     28357     28356     28359     28358     28356     28359
     28359     28362     28363     28359     28362     28364     28359     28362     28365
     28360     28359     28361     28360     28359     28362     28361     28359     28362
     28362     28365     28366     28362     28365     28367     28362     28365     28368
     28363     28362     28364     28363     28362     28365     28364     28362     28365
     28365     28368     28369     28365     28368     28370     28365     28368     28371
     28366     28365     28367     28366     28365     28368     28367     28365     28368
     28368     28371     28372     28368     28371     28373     28368     28371     28374
     28369     28368     28370     28369     28368     28371     28370     28368     28371
     28371     28374     28375     28371     28374     28376     28371     28374     28377
     28372     28371     28373     28372     28371     28374     28373     28371     28374
     28374     28377     28378     28374     28377     28379     28374     28377     28380
     28375     28374     28376     28375     28374     28377     28376     28374     28377
     28378     28377     28379     28378     28377     28380     28379     28377     28380
     28381     28382     28383     28381     28382     28384     28381     28382     28397
     28381     28385     28386     28381     28385     28387     28381     28385     28388
     28381     28389     28390     28381     28389     28391     28381     28389     28392
     28381     28393     28394     28381     28393     28395     28381     28393     28396
     28382     28381     28385     28382     28381     28389     28382     28381     28393
     28382     28397     28398     28382     28397     28399     28382     28397     28403
     28383     28382     28384     28383     28382     28397     28384     28382     28397
     28385     28381     28389     28385     28381     28393     28386     28385     28387
     28386     28385     28388     28387     28385     28388     28389     28381     28393
     28390     28389     28391     28390     28389     28392     28391     28389     28392
     28394     28393     28395     28394     28393     28396     28395     28393     28396
     28397     28403     28400     28398     28397     28399     28398     28397     28403
     28399     28397     28403     28400     28404     28405     28401     28400     28402
     28401     28400     28403     28401     28400     28404     28402     28400     28403
     28402     28400     28404     28403     28400     28404     28404     28405     28406
     28404     28405     28407     28404     28405     28408     28405     28408     28409
     28405     28408     28410     28405     28408     28416     28406     28405     28407
     28406     28405     28408     28407     28405     28408     28408     28410     28411
     28408     28416     28417     28408     28416     28418     28408     28416     28419
     28409     28408     28410     28409     28408     28416     28410     28408     28416
     28410     28411     28412     28410     28411     28413     28411     28413     28414
     28411     28413     28415     28411     28413     28425     28412     28411     28413
     28413     28425     28426     28413     28425     28427     28413     28425     28428
     28414     28413     28415     28414     28413     28425     28415     28413     28425
     28416     28419     28420     28417     28416     28418     28417     28416     28419
     28418     28416     28419     28419     28420     28421     28419     28420     28422
     28420     28422     28423     28420     28422     28424     28420     28422     28472
     28421     28420     28422     28422     28472     28473     28422     28472     28474
     28422     28472     28475     28423     28422     28424     28423     28422     28472
     28424     28422     28472     28425     28428     28429     28425     28428     28430
     28425     28428     28431     28426     28425     28427     28426     28425     28428
     28427     28425     28428     28428     28431     28432     28428     28431     28433
     28428     28431     28434     28429     28428     28430     28429     28428     28431
     28430     28428     28431     28431     28434     28435     28431     28434     28436
     28431     28434     28437     28432     28431     28433     28432     28431     28434
     28433     28431     28434     28434     28437     28438     28434     28437     28439
     28434     28437     28440     28435     28434     28436     28435     28434     28437
     28436     28434     28437     28437     28440     28441     28437     28440     28442
     28437     28440     28443     28438     28437     28439     28438     28437     28440
     28439     28437     28440     28440     28443     28444     28440     28443     28445
     28441     28440     28442     28441     28440     28443     28442     28440     28443
     28443     28445     28446     28443     28445     28447     28444     28443     28445
     28445     28447     28448     28445     28447     28449     28445     28447     28450
     28446     28445     28447     28447     28450     28451     28447     28450     28452
     28447     28450     28453     28448     28447     28449     28448     28447     28450
     28449     28447     28450     28450     28453     28454     28450     28453     28455
     28450     28453     28456     28451     28450     28452     28451     28450     28453
     28452     28450     28453     28453     28456     28457     28453     28456     28458
     28453     28456     28459     28454     28453     28455     28454     28453     28456
     28455     28453     28456     28456     28459     28460     28456     28459     28461
     28456     28459     28462     28457     28456     28458     28457     28456     28459
     28458     28456     28459     28459     28462     28463     28459     28462     28464
     28459     28462     28465     28460     28459     28461     28460     28459     28462
     28461     28459     28462     28462     28465     28466     28462     28465     28467
     28462     28465     28468     28463     28462     28464     28463     28462     28465
     28464     28462     28465     28465     28468     28469     28465     28468     28470
     28465     28468     28471     28466     28465     28467     28466     28465     28468
     28467     28465     28468     28469     28468     28470     28469     28468     28471
     28470     28468     28471     28472     28475     28476     28472     28475     28477
     28472     28475     28478     28473     28472     28474     28473     28472     28475
     28474     28472     28475     28475     28478     28479     28475     28478     28480
     28475     28478     28481     28476     28475     28477     28476     28475     28478
     28477     28475     28478     28478     28481     28482     28478     28481     28483
     28478     28481     28484     28479     28478     28480     28479     28478     28481
     28480     28478     28481     28481     28484     28485     28481     28484     28486
     28481     28484     28487     28482     28481     28483     28482     28481     28484
     28483     28481     28484     28484     28487     28488     28484     28487     28489
     28484     28487     28490     28485     28484     28486     28485     28484     28487
     28486     28484     28487     28487     28490     28491     28487     28490     28492
     28487     28490     28493     28488     28487     28489     28488     28487     28490
     28489     28487     28490     28490     28493     28494     28490     28493     28495
     28490     28493     28496     28491     28490     28492     28491     28490     28493
     28492     28490     28493     28493     28496     28497     28493     28496     28498
     28493     28496     28499     28494     28493     28495     28494     28493     28496
     28495     28493     28496     28496     28499     28500     28496     28499     28501
     28496     28499     28502     28497     28496     28498     28497     28496     28499
     28498     28496     28499     28499     28502     28503     28499     28502     28504
     28499     28502     28505     28500     28499     28501     28500     28499     28502
     28501     28499     28502     28502     28505     28506     28502     28505     28507
     28502     28505     28508     28503     28502     28504     28503     28502     28505
     28504     28502     28505     28505     28508     28509     28505     28508     28510
     28505     28508     28511     28506     28505     28507     28506     28505     28508
     28507     28505     28508     28508     28511     28512     28508     28511     28513
     28508     28511     28514     28509     28508     28510     28509     28508     28511
     28510     28508     28511     28512     28511     28513     28512     28511     28514
     28513     28511     28514     28515     28516     28517     28515     28516     28518
     28515     28516     28531     28515     28519     28520     28515     28519     28521
     28515     28519     28522     28515     28523     28524     28515     28523     28525
     28515     28523     28526     28515     28527     28528     28515     28527     28529
     28515     28527     28530     28516     28515     28519     28516     28515     28523
     28516     28515     28527     28516     28531     28532     28516     28531     28533
     28516     28531     28537     28517     28516     28518     28517     28516     28531
     28518     28516     28531     28519     28515     28523     28519     28515     28527
     28520     28519     28521     28520     28519     28522     28521     28519     28522
     28523     28515     28527     28524     28523     28525     28524     28523     28526
     28525     28523     28526     28528     28527     28529     28528     28527     28530
     28529     28527     28530     28531     28537     28534     28532     28531     28533
     28532     28531     28537     28533     28531     28537     28534     28538     28539
     28535     28534     28536     28535     28534     28537     28535     28534     28538
     28536     28534     28537     28536     28534     28538     28537     28534     28538
     28538     28539     28540     28538     28539     28541     28538     28539     28542
     28539     28542     28543     28539     28542     28544     28539     28542     28550
     28540     28539     28541     28540     28539     28542     28541     28539     28542
     28542     28544     28545     28542     28550     28551     28542     28550     28552
     28542     28550     28553     28543     28542     28544     28543     28542     28550
     28544     28542     28550     28544     28545     28546     28544     28545     28547
     28545     28547     28548     28545     28547     28549     28545     28547     28559
     28546     28545     28547     28547     28559     28560     28547     28559     28561
     28547     28559     28562     28548     28547     28549     28548     28547     28559
     28549     28547     28559     28550     28553     28554     28551     28550     28552
     28551     28550     28553     28552     28550     28553     28553     28554     28555
     28553     28554     28556     28554     28556     28557     28554     28556     28558
     28554     28556     28606     28555     28554     28556     28556     28606     28607
     28556     28606     28608     28556     28606     28609     28557     28556     28558
     28557     28556     28606     28558     28556     28606     28559     28562     28563
     28559     28562     28564     28559     28562     28565     28560     28559     28561
     28560     28559     28562     28561     28559     28562     28562     28565     28566
     28562     28565     28567     28562     28565     28568     28563     28562     28564
     28563     28562     28565     28564     28562     28565     28565     28568     28569
     28565     28568     28570     28565     28568     28571     28566     28565     28567
     28566     28565     28568     28567     28565     28568     28568     28571     28572
     28568     28571     28573     28568     28571     28574     28569     28568     28570
     28569     28568     28571     28570     28568     28571     28571     28574     28575
     28571     28574     28576     28571     28574     28577     28572     28571     28573
     28572     28571     28574     28573     28571     28574     28574     28577     28578
     28574     28577     28579     28575     28574     28576     28575     28574     28577
     28576     28574     28577     28577     28579     28580     28577     28579     28581
     28578     28577     28579     28579     28581     28582     28579     28581     28583
     28579     28581     28584     28580     28579     28581     28581     28584     28585
     28581     28584     28586     28581     28584     28587     28582     28581     28583
     28582     28581     28584     28583     28581     28584     28584     28587     28588
     28584     28587     28589     28584     28587     28590     28585     28584     28586
     28585     28584     28587     28586     28584     28587     28587     28590     28591
     28587     28590     28592     28587     28590     28593     28588     28587     28589
     28588     28587     28590     28589     28587     28590     28590     28593     28594
     28590     28593     28595     28590     28593     28596     28591     28590     28592
     28591     28590     28593     28592     28590     28593     28593     28596     28597
     28593     28596     28598     28593     28596     28599     28594     28593     28595
     28594     28593     28596     28595     28593     28596     28596     28599     28600
     28596     28599     28601     28596     28599     28602     28597     28596     28598
     28597     28596     28599     28598     28596     28599     28599     28602     28603
     28599     28602     28604     28599     28602     28605     28600     28599     28601
     28600     28599     28602     28601     28599     28602     28603     28602     28604
     28603     28602     28605     28604     28602     28605     28606     28609     28610
     28606     28609     28611     28606     28609     28612     28607     28606     28608
     28607     28606     28609     28608     28606     28609     28609     28612     28613
     28609     28612     28614     28609     28612     28615     28610     28609     28611
     28610     28609     28612     28611     28609     28612     28612     28615     28616
     28612     28615     28617     28612     28615     28618     28613     28612     28614
     28613     28612     28615     28614     28612     28615     28615     28618     28619
     28615     28618     28620     28615     28618     28621     28616     28615     28617
     28616     28615     28618     28617     28615     28618     28618     28621     28622
     28618     28621     28623     28618     28621     28624     28619     28618     28620
     28619     28618     28621     28620     28618     28621     28621     28624     28625
     28621     28624     28626     28621     28624     28627     28622     28621     28623
     28622     28621     28624     28623     28621     28624     28624     28627     28628
     28624     28627     28629     28624     28627     28630     28625     28624     28626
     28625     28624     28627     28626     28624     28627     28627     28630     28631
     28627     28630     28632     28627     28630     28633     28628     28627     28629
     28628     28627     28630     28629     28627     28630     28630     28633     28634
     28630     28633     28635     28630     28633     28636     28631     28630     28632
     28631     28630     28633     28632     28630     28633     28633     28636     28637
     28633     28636     28638     28633     28636     28639     28634     28633     28635
     28634     28633     28636     28635     28633     28636     28636     28639     28640
     28636     28639     28641     28636     28639     28642     28637     28636     28638
     28637     28636     28639     28638     28636     28639     28639     28642     28643
     28639     28642     28644     28639     28642     28645     28640     28639     28641
     28640     28639     28642     28641     28639     28642     28642     28645     28646
     28642     28645     28647     28642     28645     28648     28643     28642     28644
     28643     28642     28645     28644     28642     28645     28646     28645     28647
     28646     28645     28648     28647     28645     28648     28649     28650     28651
     28649     28650     28652     28649     28650     28665     28649     28653     28654
     28649     28653     28655     28649     28653     28656     28649     28657     28658
     28649     28657     28659     28649     28657     28660     28649     28661     28662
     28649     28661     28663     28649     28661     28664     28650     28649     28653
     28650     28649     28657     28650     28649     28661     28650     28665     28666
     28650     28665     28667     28650     28665     28671     28651     28650     28652
     28651     28650     28665     28652     28650     28665     28653     28649     28657
     28653     28649     28661     28654     28653     28655     28654     28653     28656
     28655     28653     28656     28657     28649     28661     28658     28657     28659
     28658     28657     28660     28659     28657     28660     28662     28661     28663
     28662     28661     28664     28663     28661     28664     28665     28671     28668
     28666     28665     28667     28666     28665     28671     28667     28665     28671
     28668     28672     28673     28669     28668     28670     28669     28668     28671
     28669     28668     28672     28670     28668     28671     28670     28668     28672
     28671     28668     28672     28672     28673     28674     28672     28673     28675
     28672     28673     28676     28673     28676     28677     28673     28676     28678
     28673     28676     28684     28674     28673     28675     28674     28673     28676
     28675     28673     28676     28676     28678     28679     28676     28684     28685
     28676     28684     28686     28676     28684     28687     28677     28676     28678
     28677     28676     28684     28678     28676     28684     28678     28679     28680
     28678     28679     28681     28679     28681     28682     28679     28681     28683
     28679     28681     28693     28680     28679     28681     28681     28693     28694
     28681     28693     28695     28681     28693     28696     28682     28681     28683
     28682     28681     28693     28683     28681     28693     28684     28687     28688
     28685     28684     28686     28685     28684     28687     28686     28684     28687
     28687     28688     28689     28687     28688     28690     28688     28690     28691
     28688     28690     28692     28688     28690     28740     28689     28688     28690
     28690     28740     28741     28690     28740     28742     28690     28740     28743
     28691     28690     28692     28691     28690     28740     28692     28690     28740
     28693     28696     28697     28693     28696     28698     28693     28696     28699
     28694     28693     28695     28694     28693     28696     28695     28693     28696
     28696     28699     28700     28696     28699     28701     28696     28699     28702
     28697     28696     28698     28697     28696     28699     28698     28696     28699
     28699     28702     28703     28699     28702     28704     28699     28702     28705
     28700     28699     28701     28700     28699     28702     28701     28699     28702
     28702     28705     28706     28702     28705     28707     28702     28705     28708
     28703     28702     28704     28703     28702     28705     28704     28702     28705
     28705     28708     28709     28705     28708     28710     28705     28708     28711
     28706     28705     28707     28706     28705     28708     28707     28705     28708
     28708     28711     28712     28708     28711     28713     28709     28708     28710
     28709     28708     28711     28710     28708     28711     28711     28713     28714
     28711     28713     28715     28712     28711     28713     28713     28715     28716
     28713     28715     28717     28713     28715     28718     28714     28713     28715
     28715     28718     28719     28715     28718     28720     28715     28718     28721
     28716     28715     28717     28716     28715     28718     28717     28715     28718
     28718     28721     28722     28718     28721     28723     28718     28721     28724
     28719     28718     28720     28719     28718     28721     28720     28718     28721
     28721     28724     28725     28721     28724     28726     28721     28724     28727
     28722     28721     28723     28722     28721     28724     28723     28721     28724
     28724     28727     28728     28724     28727     28729     28724     28727     28730
     28725     28724     28726     28725     28724     28727     28726     28724     28727
     28727     28730     28731     28727     28730     28732     28727     28730     28733
     28728     28727     28729     28728     28727     28730     28729     28727     28730
     28730     28733     28734     28730     28733     28735     28730     28733     28736
     28731     28730     28732     28731     28730     28733     28732     28730     28733
     28733     28736     28737     28733     28736     28738     28733     28736     28739
     28734     28733     28735     28734     28733     28736     28735     28733     28736
     28737     28736     28738     28737     28736     28739     28738     28736     28739
     28740     28743     28744     28740     28743     28745     28740     28743     28746
     28741     28740     28742     28741     28740     28743     28742     28740     28743
     28743     28746     28747     28743     28746     28748     28743     28746     28749
     28744     28743     28745     28744     28743     28746     28745     28743     28746
     28746     28749     28750     28746     28749     28751     28746     28749     28752
     28747     28746     28748     28747     28746     28749     28748     28746     28749
     28749     28752     28753     28749     28752     28754     28749     28752     28755
     28750     28749     28751     28750     28749     28752     28751     28749     28752
     28752     28755     28756     28752     28755     28757     28752     28755     28758
     28753     28752     28754     28753     28752     28755     28754     28752     28755
     28755     28758     28759     28755     28758     28760     28755     28758     28761
     28756     28755     28757     28756     28755     28758     28757     28755     28758
     28758     28761     28762     28758     28761     28763     28758     28761     28764
     28759     28758     28760     28759     28758     28761     28760     28758     28761
     28761     28764     28765     28761     28764     28766     28761     28764     28767
     28762     28761     28763     28762     28761     28764     28763     28761     28764
     28764     28767     28768     28764     28767     28769     28764     28767     28770
     28765     28764     28766     28765     28764     28767     28766     28764     28767
     28767     28770     28771     28767     28770     28772     28767     28770     28773
     28768     28767     28769     28768     28767     28770     28769     28767     28770
     28770     28773     28774     28770     28773     28775     28770     28773     28776
     28771     28770     28772     28771     28770     28773     28772     28770     28773
     28773     28776     28777     28773     28776     28778     28773     28776     28779
     28774     28773     28775     28774     28773     28776     28775     28773     28776
     28776     28779     28780     28776     28779     28781     28776     28779     28782
     28777     28776     28778     28777     28776     28779     28778     28776     28779
     28780     28779     28781     28780     28779     28782     28781     28779     28782
     28783     28784     28785     28783     28784     28786     28783     28784     28799
     28783     28787     28788     28783     28787     28789     28783     28787     28790
     28783     28791     28792     28783     28791     28793     28783     28791     28794
     28783     28795     28796     28783     28795     28797     28783     28795     28798
     28784     28783     28787     28784     28783     28791     28784     28783     28795
     28784     28799     28800     28784     28799     28801     28784     28799     28805
     28785     28784     28786     28785     28784     28799     28786     28784     28799
     28787     28783     28791     28787     28783     28795     28788     28787     28789
     28788     28787     28790     28789     28787     28790     28791     28783     28795
     28792     28791     28793     28792     28791     28794     28793     28791     28794
     28796     28795     28797     28796     28795     28798     28797     28795     28798
     28799     28805     28802     28800     28799     28801     28800     28799     28805
     28801     28799     28805     28802     28806     28807     28803     28802     28804
     28803     28802     28805     28803     28802     28806     28804     28802     28805
     28804     28802     28806     28805     28802     28806     28806     28807     28808
     28806     28807     28809     28806     28807     28810     28807     28810     28811
     28807     28810     28812     28807     28810     28818     28808     28807     28809
     28808     28807     28810     28809     28807     28810     28810     28812     28813
     28810     28818     28819     28810     28818     28820     28810     28818     28821
     28811     28810     28812     28811     28810     28818     28812     28810     28818
     28812     28813     28814     28812     28813     28815     28813     28815     28816
     28813     28815     28817     28813     28815     28827     28814     28813     28815
     28815     28827     28828     28815     28827     28829     28815     28827     28830
     28816     28815     28817     28816     28815     28827     28817     28815     28827
     28818     28821     28822     28819     28818     28820     28819     28818     28821
     28820     28818     28821     28821     28822     28823     28821     28822     28824
     28822     28824     28825     28822     28824     28826     28822     28824     28874
     28823     28822     28824     28824     28874     28875     28824     28874     28876
     28824     28874     28877     28825     28824     28826     28825     28824     28874
     28826     28824     28874     28827     28830     28831     28827     28830     28832
     28827     28830     28833     28828     28827     28829     28828     28827     28830
     28829     28827     28830     28830     28833     28834     28830     28833     28835
     28830     28833     28836     28831     28830     28832     28831     28830     28833
     28832     28830     28833     28833     28836     28837     28833     28836     28838
     28833     28836     28839     28834     28833     28835     28834     28833     28836
     28835     28833     28836     28836     28839     28840     28836     28839     28841
     28836     28839     28842     28837     28836     28838     28837     28836     28839
     28838     28836     28839     28839     28842     28843     28839     28842     28844
     28839     28842     28845     28840     28839     28841     28840     28839     28842
     28841     28839     28842     28842     28845     28846     28842     28845     28847
     28843     28842     28844     28843     28842     28845     28844     28842     28845
     28845     28847     28848     28845     28847     28849     28846     28845     28847
     28847     28849     28850     28847     28849     28851     28847     28849     28852
     28848     28847     28849     28849     28852     28853     28849     28852     28854
     28849     28852     28855     28850     28849     28851     28850     28849     28852
     28851     28849     28852     28852     28855     28856     28852     28855     28857
     28852     28855     28858     28853     28852     28854     28853     28852     28855
     28854     28852     28855     28855     28858     28859     28855     28858     28860
     28855     28858     28861     28856     28855     28857     28856     28855     28858
     28857     28855     28858     28858     28861     28862     28858     28861     28863
     28858     28861     28864     28859     28858     28860     28859     28858     28861
     28860     28858     28861     28861     28864     28865     28861     28864     28866
     28861     28864     28867     28862     28861     28863     28862     28861     28864
     28863     28861     28864     28864     28867     28868     28864     28867     28869
     28864     28867     28870     28865     28864     28866     28865     28864     28867
     28866     28864     28867     28867     28870     28871     28867     28870     28872
     28867     28870     28873     28868     28867     28869     28868     28867     28870
     28869     28867     28870     28871     28870     28872     28871     28870     28873
     28872     28870     28873     28874     28877     28878     28874     28877     28879
     28874     28877     28880     28875     28874     28876     28875     28874     28877
     28876     28874     28877     28877     28880     28881     28877     28880     28882
     28877     28880     28883     28878     28877     28879     28878     28877     28880
     28879     28877     28880     28880     28883     28884     28880     28883     28885
     28880     28883     28886     28881     28880     28882     28881     28880     28883
     28882     28880     28883     28883     28886     28887     28883     28886     28888
     28883     28886     28889     28884     28883     28885     28884     28883     28886
     28885     28883     28886     28886     28889     28890     28886     28889     28891
     28886     28889     28892     28887     28886     28888     28887     28886     28889
     28888     28886     28889     28889     28892     28893     28889     28892     28894
     28889     28892     28895     28890     28889     28891     28890     28889     28892
     28891     28889     28892     28892     28895     28896     28892     28895     28897
     28892     28895     28898     28893     28892     28894     28893     28892     28895
     28894     28892     28895     28895     28898     28899     28895     28898     28900
     28895     28898     28901     28896     28895     28897     28896     28895     28898
     28897     28895     28898     28898     28901     28902     28898     28901     28903
     28898     28901     28904     28899     28898     28900     28899     28898     28901
     28900     28898     28901     28901     28904     28905     28901     28904     28906
     28901     28904     28907     28902     28901     28903     28902     28901     28904
     28903     28901     28904     28904     28907     28908     28904     28907     28909
     28904     28907     28910     28905     28904     28906     28905     28904     28907
     28906     28904     28907     28907     28910     28911     28907     28910     28912
     28907     28910     28913     28908     28907     28909     28908     28907     28910
     28909     28907     28910     28910     28913     28914     28910     28913     28915
     28910     28913     28916     28911     28910     28912     28911     28910     28913
     28912     28910     28913     28914     28913     28915     28914     28913     28916
     28915     28913     28916     28917     28918     28919     28917     28918     28920
     28917     28918     28933     28917     28921     28922     28917     28921     28923
     28917     28921     28924     28917     28925     28926     28917     28925     28927
     28917     28925     28928     28917     28929     28930     28917     28929     28931
     28917     28929     28932     28918     28917     28921     28918     28917     28925
     28918     28917     28929     28918     28933     28934     28918     28933     28935
     28918     28933     28939     28919     28918     28920     28919     28918     28933
     28920     28918     28933     28921     28917     28925     28921     28917     28929
     28922     28921     28923     28922     28921     28924     28923     28921     28924
     28925     28917     28929     28926     28925     28927     28926     28925     28928
     28927     28925     28928     28930     28929     28931     28930     28929     28932
     28931     28929     28932     28933     28939     28936     28934     28933     28935
     28934     28933     28939     28935     28933     28939     28936     28940     28941
     28937     28936     28938     28937     28936     28939     28937     28936     28940
     28938     28936     28939     28938     28936     28940     28939     28936     28940
     28940     28941     28942     28940     28941     28943     28940     28941     28944
     28941     28944     28945     28941     28944     28946     28941     28944     28952
     28942     28941     28943     28942     28941     28944     28943     28941     28944
     28944     28946     28947     28944     28952     28953     28944     28952     28954
     28944     28952     28955     28945     28944     28946     28945     28944     28952
     28946     28944     28952     28946     28947     28948     28946     28947     28949
     28947     28949     28950     28947     28949     28951     28947     28949     28961
     28948     28947     28949     28949     28961     28962     28949     28961     28963
     28949     28961     28964     28950     28949     28951     28950     28949     28961
     28951     28949     28961     28952     28955     28956     28953     28952     28954
     28953     28952     28955     28954     28952     28955     28955     28956     28957
     28955     28956     28958     28956     28958     28959     28956     28958     28960
     28956     28958     29008     28957     28956     28958     28958     29008     29009
     28958     29008     29010     28958     29008     29011     28959     28958     28960
     28959     28958     29008     28960     28958     29008     28961     28964     28965
     28961     28964     28966     28961     28964     28967     28962     28961     28963
     28962     28961     28964     28963     28961     28964     28964     28967     28968
     28964     28967     28969     28964     28967     28970     28965     28964     28966
     28965     28964     28967     28966     28964     28967     28967     28970     28971
     28967     28970     28972     28967     28970     28973     28968     28967     28969
     28968     28967     28970     28969     28967     28970     28970     28973     28974
     28970     28973     28975     28970     28973     28976     28971     28970     28972
     28971     28970     28973     28972     28970     28973     28973     28976     28977
     28973     28976     28978     28973     28976     28979     28974     28973     28975
     28974     28973     28976     28975     28973     28976     28976     28979     28980
     28976     28979     28981     28977     28976     28978     28977     28976     28979
     28978     28976     28979     28979     28981     28982     28979     28981     28983
     28980     28979     28981     28981     28983     28984     28981     28983     28985
     28981     28983     28986     28982     28981     28983     28983     28986     28987
     28983     28986     28988     28983     28986     28989     28984     28983     28985
     28984     28983     28986     28985     28983     28986     28986     28989     28990
     28986     28989     28991     28986     28989     28992     28987     28986     28988
     28987     28986     28989     28988     28986     28989     28989     28992     28993
     28989     28992     28994     28989     28992     28995     28990     28989     28991
     28990     28989     28992     28991     28989     28992     28992     28995     28996
     28992     28995     28997     28992     28995     28998     28993     28992     28994
     28993     28992     28995     28994     28992     28995     28995     28998     28999
     28995     28998     29000     28995     28998     29001     28996     28995     28997
     28996     28995     28998     28997     28995     28998     28998     29001     29002
     28998     29001     29003     28998     29001     29004     28999     28998     29000
     28999     28998     29001     29000     28998     29001     29001     29004     29005
     29001     29004     29006     29001     29004     29007     29002     29001     29003
     29002     29001     29004     29003     29001     29004     29005     29004     29006
     29005     29004     29007     29006     29004     29007     29008     29011     29012
     29008     29011     29013     29008     29011     29014     29009     29008     29010
     29009     29008     29011     29010     29008     29011     29011     29014     29015
     29011     29014     29016     29011     29014     29017     29012     29011     29013
     29012     29011     29014     29013     29011     29014     29014     29017     29018
     29014     29017     29019     29014     29017     29020     29015     29014     29016
     29015     29014     29017     29016     29014     29017     29017     29020     29021
     29017     29020     29022     29017     29020     29023     29018     29017     29019
     29018     29017     29020     29019     29017     29020     29020     29023     29024
     29020     29023     29025     29020     29023     29026     29021     29020     29022
     29021     29020     29023     29022     29020     29023     29023     29026     29027
     29023     29026     29028     29023     29026     29029     29024     29023     29025
     29024     29023     29026     29025     29023     29026     29026     29029     29030
     29026     29029     29031     29026     29029     29032     29027     29026     29028
     29027     29026     29029     29028     29026     29029     29029     29032     29033
     29029     29032     29034     29029     29032     29035     29030     29029     29031
     29030     29029     29032     29031     29029     29032     29032     29035     29036
     29032     29035     29037     29032     29035     29038     29033     29032     29034
     29033     29032     29035     29034     29032     29035     29035     29038     29039
     29035     29038     29040     29035     29038     29041     29036     29035     29037
     29036     29035     29038     29037     29035     29038     29038     29041     29042
     29038     29041     29043     29038     29041     29044     29039     29038     29040
     29039     29038     29041     29040     29038     29041     29041     29044     29045
     29041     29044     29046     29041     29044     29047     29042     29041     29043
     29042     29041     29044     29043     29041     29044     29044     29047     29048
     29044     29047     29049     29044     29047     29050     29045     29044     29046
     29045     29044     29047     29046     29044     29047     29048     29047     29049
     29048     29047     29050     29049     29047     29050     29051     29052     29053
     29051     29052     29054     29051     29052     29067     29051     29055     29056
     29051     29055     29057     29051     29055     29058     29051     29059     29060
     29051     29059     29061     29051     29059     29062     29051     29063     29064
     29051     29063     29065     29051     29063     29066     29052     29051     29055
     29052     29051     29059     29052     29051     29063     29052     29067     29068
     29052     29067     29069     29052     29067     29073     29053     29052     29054
     29053     29052     29067     29054     29052     29067     29055     29051     29059
     29055     29051     29063     29056     29055     29057     29056     29055     29058
     29057     29055     29058     29059     29051     29063     29060     29059     29061
     29060     29059     29062     29061     29059     29062     29064     29063     29065
     29064     29063     29066     29065     29063     29066     29067     29073     29070
     29068     29067     29069     29068     29067     29073     29069     29067     29073
     29070     29074     29075     29071     29070     29072     29071     29070     29073
     29071     29070     29074     29072     29070     29073     29072     29070     29074
     29073     29070     29074     29074     29075     29076     29074     29075     29077
     29074     29075     29078     29075     29078     29079     29075     29078     29080
     29075     29078     29086     29076     29075     29077     29076     29075     29078
     29077     29075     29078     29078     29080     29081     29078     29086     29087
     29078     29086     29088     29078     29086     29089     29079     29078     29080
     29079     29078     29086     29080     29078     29086     29080     29081     29082
     29080     29081     29083     29081     29083     29084     29081     29083     29085
     29081     29083     29095     29082     29081     29083     29083     29095     29096
     29083     29095     29097     29083     29095     29098     29084     29083     29085
     29084     29083     29095     29085     29083     29095     29086     29089     29090
     29087     29086     29088     29087     29086     29089     29088     29086     29089
     29089     29090     29091     29089     29090     29092     29090     29092     29093
     29090     29092     29094     29090     29092     29142     29091     29090     29092
     29092     29142     29143     29092     29142     29144     29092     29142     29145
     29093     29092     29094     29093     29092     29142     29094     29092     29142
     29095     29098     29099     29095     29098     29100     29095     29098     29101
     29096     29095     29097     29096     29095     29098     29097     29095     29098
     29098     29101     29102     29098     29101     29103     29098     29101     29104
     29099     29098     29100     29099     29098     29101     29100     29098     29101
     29101     29104     29105     29101     29104     29106     29101     29104     29107
     29102     29101     29103     29102     29101     29104     29103     29101     29104
     29104     29107     29108     29104     29107     29109     29104     29107     29110
     29105     29104     29106     29105     29104     29107     29106     29104     29107
     29107     29110     29111     29107     29110     29112     29107     29110     29113
     29108     29107     29109     29108     29107     29110     29109     29107     29110
     29110     29113     29114     29110     29113     29115     29111     29110     29112
     29111     29110     29113     29112     29110     29113     29113     29115     29116
     29113     29115     29117     29114     29113     29115     29115     29117     29118
     29115     29117     29119     29115     29117     29120     29116     29115     29117
     29117     29120     29121     29117     29120     29122     29117     29120     29123
     29118     29117     29119     29118     29117     29120     29119     29117     29120
     29120     29123     29124     29120     29123     29125     29120     29123     29126
     29121     29120     29122     29121     29120     29123     29122     29120     29123
     29123     29126     29127     29123     29126     29128     29123     29126     29129
     29124     29123     29125     29124     29123     29126     29125     29123     29126
     29126     29129     29130     29126     29129     29131     29126     29129     29132
     29127     29126     29128     29127     29126     29129     29128     29126     29129
     29129     29132     29133     29129     29132     29134     29129     29132     29135
     29130     29129     29131     29130     29129     29132     29131     29129     29132
     29132     29135     29136     29132     29135     29137     29132     29135     29138
     29133     29132     29134     29133     29132     29135     29134     29132     29135
     29135     29138     29139     29135     29138     29140     29135     29138     29141
     29136     29135     29137     29136     29135     29138     29137     29135     29138
     29139     29138     29140     29139     29138     29141     29140     29138     29141
     29142     29145     29146     29142     29145     29147     29142     29145     29148
     29143     29142     29144     29143     29142     29145     29144     29142     29145
     29145     29148     29149     29145     29148     29150     29145     29148     29151
     29146     29145     29147     29146     29145     29148     29147     29145     29148
     29148     29151     29152     29148     29151     29153     29148     29151     29154
     29149     29148     29150     29149     29148     29151     29150     29148     29151
     29151     29154     29155     29151     29154     29156     29151     29154     29157
     29152     29151     29153     29152     29151     29154     29153     29151     29154
     29154     29157     29158     29154     29157     29159     29154     29157     29160
     29155     29154     29156     29155     29154     29157     29156     29154     29157
     29157     29160     29161     29157     29160     29162     29157     29160     29163
     29158     29157     29159     29158     29157     29160     29159     29157     29160
     29160     29163     29164     29160     29163     29165     29160     29163     29166
     29161     29160     29162     29161     29160     29163     29162     29160     29163
     29163     29166     29167     29163     29166     29168     29163     29166     29169
     29164     29163     29165     29164     29163     29166     29165     29163     29166
     29166     29169     29170     29166     29169     29171     29166     29169     29172
     29167     29166     29168     29167     29166     29169     29168     29166     29169
     29169     29172     29173     29169     29172     29174     29169     29172     29175
     29170     29169     29171     29170     29169     29172     29171     29169     29172
     29172     29175     29176     29172     29175     29177     29172     29175     29178
     29173     29172     29174     29173     29172     29175     29174     29172     29175
     29175     29178     29179     29175     29178     29180     29175     29178     29181
     29176     29175     29177     29176     29175     29178     29177     29175     29178
     29178     29181     29182     29178     29181     29183     29178     29181     29184
     29179     29178     29180     29179     29178     29181     29180     29178     29181
     29182     29181     29183     29182     29181     29184     29183     29181     29184
     29185     29186     29187     29185     29186     29188     29185     29186     29201
     29185     29189     29190     29185     29189     29191     29185     29189     29192
     29185     29193     29194     29185     29193     29195     29185     29193     29196
     29185     29197     29198     29185     29197     29199     29185     29197     29200
     29186     29185     29189     29186     29185     29193     29186     29185     29197
     29186     29201     29202     29186     29201     29203     29186     29201     29207
     29187     29186     29188     29187     29186     29201     29188     29186     29201
     29189     29185     29193     29189     29185     29197     29190     29189     29191
     29190     29189     29192     29191     29189     29192     29193     29185     29197
     29194     29193     29195     29194     29193     29196     29195     29193     29196
     29198     29197     29199     29198     29197     29200     29199     29197     29200
     29201     29207     29204     29202     29201     29203     29202     29201     29207
     29203     29201     29207     29204     29208     29209     29205     29204     29206
     29205     29204     29207     29205     29204     29208     29206     29204     29207
     29206     29204     29208     29207     29204     29208     29208     29209     29210
     29208     29209     29211     29208     29209     29212     29209     29212     29213
     29209     29212     29214     29209     29212     29220     29210     29209     29211
     29210     29209     29212     29211     29209     29212     29212     29214     29215
     29212     29220     29221     29212     29220     29222     29212     29220     29223
     29213     29212     29214     29213     29212     29220     29214     29212     29220
     29214     29215     29216     29214     29215     29217     29215     29217     29218
     29215     29217     29219     29215     29217     29229     29216     29215     29217
     29217     29229     29230     29217     29229     29231     29217     29229     29232
     29218     29217     29219     29218     29217     29229     29219     29217     29229
     29220     29223     29224     29221     29220     29222     29221     29220     29223
     29222     29220     29223     29223     29224     29225     29223     29224     29226
     29224     29226     29227     29224     29226     29228     29224     29226     29276
     29225     29224     29226     29226     29276     29277     29226     29276     29278
     29226     29276     29279     29227     29226     29228     29227     29226     29276
     29228     29226     29276     29229     29232     29233     29229     29232     29234
     29229     29232     29235     29230     29229     29231     29230     29229     29232
     29231     29229     29232     29232     29235     29236     29232     29235     29237
     29232     29235     29238     29233     29232     29234     29233     29232     29235
     29234     29232     29235     29235     29238     29239     29235     29238     29240
     29235     29238     29241     29236     29235     29237     29236     29235     29238
     29237     29235     29238     29238     29241     29242     29238     29241     29243
     29238     29241     29244     29239     29238     29240     29239     29238     29241
     29240     29238     29241     29241     29244     29245     29241     29244     29246
     29241     29244     29247     29242     29241     29243     29242     29241     29244
     29243     29241     29244     29244     29247     29248     29244     29247     29249
     29245     29244     29246     29245     29244     29247     29246     29244     29247
     29247     29249     29250     29247     29249     29251     29248     29247     29249
     29249     29251     29252     29249     29251     29253     29249     29251     29254
     29250     29249     29251     29251     29254     29255     29251     29254     29256
     29251     29254     29257     29252     29251     29253     29252     29251     29254
     29253     29251     29254     29254     29257     29258     29254     29257     29259
     29254     29257     29260     29255     29254     29256     29255     29254     29257
     29256     29254     29257     29257     29260     29261     29257     29260     29262
     29257     29260     29263     29258     29257     29259     29258     29257     29260
     29259     29257     29260     29260     29263     29264     29260     29263     29265
     29260     29263     29266     29261     29260     29262     29261     29260     29263
     29262     29260     29263     29263     29266     29267     29263     29266     29268
     29263     29266     29269     29264     29263     29265     29264     29263     29266
     29265     29263     29266     29266     29269     29270     29266     29269     29271
     29266     29269     29272     29267     29266     29268     29267     29266     29269
     29268     29266     29269     29269     29272     29273     29269     29272     29274
     29269     29272     29275     29270     29269     29271     29270     29269     29272
     29271     29269     29272     29273     29272     29274     29273     29272     29275
     29274     29272     29275     29276     29279     29280     29276     29279     29281
     29276     29279     29282     29277     29276     29278     29277     29276     29279
     29278     29276     29279     29279     29282     29283     29279     29282     29284
     29279     29282     29285     29280     29279     29281     29280     29279     29282
     29281     29279     29282     29282     29285     29286     29282     29285     29287
     29282     29285     29288     29283     29282     29284     29283     29282     29285
     29284     29282     29285     29285     29288     29289     29285     29288     29290
     29285     29288     29291     29286     29285     29287     29286     29285     29288
     29287     29285     29288     29288     29291     29292     29288     29291     29293
     29288     29291     29294     29289     29288     29290     29289     29288     29291
     29290     29288     29291     29291     29294     29295     29291     29294     29296
     29291     29294     29297     29292     29291     29293     29292     29291     29294
     29293     29291     29294     29294     29297     29298     29294     29297     29299
     29294     29297     29300     29295     29294     29296     29295     29294     29297
     29296     29294     29297     29297     29300     29301     29297     29300     29302
     29297     29300     29303     29298     29297     29299     29298     29297     29300
     29299     29297     29300     29300     29303     29304     29300     29303     29305
     29300     29303     29306     29301     29300     29302     29301     29300     29303
     29302     29300     29303     29303     29306     29307     29303     29306     29308
     29303     29306     29309     29304     29303     29305     29304     29303     29306
     29305     29303     29306     29306     29309     29310     29306     29309     29311
     29306     29309     29312     29307     29306     29308     29307     29306     29309
     29308     29306     29309     29309     29312     29313     29309     29312     29314
     29309     29312     29315     29310     29309     29311     29310     29309     29312
     29311     29309     29312     29312     29315     29316     29312     29315     29317
     29312     29315     29318     29313     29312     29314     29313     29312     29315
     29314     29312     29315     29316     29315     29317     29316     29315     29318
     29317     29315     29318     29319     29320     29321     29319     29320     29322
     29319     29320     29335     29319     29323     29324     29319     29323     29325
     29319     29323     29326     29319     29327     29328     29319     29327     29329
     29319     29327     29330     29319     29331     29332     29319     29331     29333
     29319     29331     29334     29320     29319     29323     29320     29319     29327
     29320     29319     29331     29320     29335     29336     29320     29335     29337
     29320     29335     29341     29321     29320     29322     29321     29320     29335
     29322     29320     29335     29323     29319     29327     29323     29319     29331
     29324     29323     29325     29324     29323     29326     29325     29323     29326
     29327     29319     29331     29328     29327     29329     29328     29327     29330
     29329     29327     29330     29332     29331     29333     29332     29331     29334
     29333     29331     29334     29335     29341     29338     29336     29335     29337
     29336     29335     29341     29337     29335     29341     29338     29342     29343
     29339     29338     29340     29339     29338     29341     29339     29338     29342
     29340     29338     29341     29340     29338     29342     29341     29338     29342
     29342     29343     29344     29342     29343     29345     29342     29343     29346
     29343     29346     29347     29343     29346     29348     29343     29346     29354
     29344     29343     29345     29344     29343     29346     29345     29343     29346
     29346     29348     29349     29346     29354     29355     29346     29354     29356
     29346     29354     29357     29347     29346     29348     29347     29346     29354
     29348     29346     29354     29348     29349     29350     29348     29349     29351
     29349     29351     29352     29349     29351     29353     29349     29351     29363
     29350     29349     29351     29351     29363     29364     29351     29363     29365
     29351     29363     29366     29352     29351     29353     29352     29351     29363
     29353     29351     29363     29354     29357     29358     29355     29354     29356
     29355     29354     29357     29356     29354     29357     29357     29358     29359
     29357     29358     29360     29358     29360     29361     29358     29360     29362
     29358     29360     29410     29359     29358     29360     29360     29410     29411
     29360     29410     29412     29360     29410     29413     29361     29360     29362
     29361     29360     29410     29362     29360     29410     29363     29366     29367
     29363     29366     29368     29363     29366     29369     29364     29363     29365
     29364     29363     29366     29365     29363     29366     29366     29369     29370
     29366     29369     29371     29366     29369     29372     29367     29366     29368
     29367     29366     29369     29368     29366     29369     29369     29372     29373
     29369     29372     29374     29369     29372     29375     29370     29369     29371
     29370     29369     29372     29371     29369     29372     29372     29375     29376
     29372     29375     29377     29372     29375     29378     29373     29372     29374
     29373     29372     29375     29374     29372     29375     29375     29378     29379
     29375     29378     29380     29375     29378     29381     29376     29375     29377
     29376     29375     29378     29377     29375     29378     29378     29381     29382
     29378     29381     29383     29379     29378     29380     29379     29378     29381
     29380     29378     29381     29381     29383     29384     29381     29383     29385
     29382     29381     29383     29383     29385     29386     29383     29385     29387
     29383     29385     29388     29384     29383     29385     29385     29388     29389
     29385     29388     29390     29385     29388     29391     29386     29385     29387
     29386     29385     29388     29387     29385     29388     29388     29391     29392
     29388     29391     29393     29388     29391     29394     29389     29388     29390
     29389     29388     29391     29390     29388     29391     29391     29394     29395
     29391     29394     29396     29391     29394     29397     29392     29391     29393
     29392     29391     29394     29393     29391     29394     29394     29397     29398
     29394     29397     29399     29394     29397     29400     29395     29394     29396
     29395     29394     29397     29396     29394     29397     29397     29400     29401
     29397     29400     29402     29397     29400     29403     29398     29397     29399
     29398     29397     29400     29399     29397     29400     29400     29403     29404
     29400     29403     29405     29400     29403     29406     29401     29400     29402
     29401     29400     29403     29402     29400     29403     29403     29406     29407
     29403     29406     29408     29403     29406     29409     29404     29403     29405
     29404     29403     29406     29405     29403     29406     29407     29406     29408
     29407     29406     29409     29408     29406     29409     29410     29413     29414
     29410     29413     29415     29410     29413     29416     29411     29410     29412
     29411     29410     29413     29412     29410     29413     29413     29416     29417
     29413     29416     29418     29413     29416     29419     29414     29413     29415
     29414     29413     29416     29415     29413     29416     29416     29419     29420
     29416     29419     29421     29416     29419     29422     29417     29416     29418
     29417     29416     29419     29418     29416     29419     29419     29422     29423
     29419     29422     29424     29419     29422     29425     29420     29419     29421
     29420     29419     29422     29421     29419     29422     29422     29425     29426
     29422     29425     29427     29422     29425     29428     29423     29422     29424
     29423     29422     29425     29424     29422     29425     29425     29428     29429
     29425     29428     29430     29425     29428     29431     29426     29425     29427
     29426     29425     29428     29427     29425     29428     29428     29431     29432
     29428     29431     29433     29428     29431     29434     29429     29428     29430
     29429     29428     29431     29430     29428     29431     29431     29434     29435
     29431     29434     29436     29431     29434     29437     29432     29431     29433
     29432     29431     29434     29433     29431     29434     29434     29437     29438
     29434     29437     29439     29434     29437     29440     29435     29434     29436
     29435     29434     29437     29436     29434     29437     29437     29440     29441
     29437     29440     29442     29437     29440     29443     29438     29437     29439
     29438     29437     29440     29439     29437     29440     29440     29443     29444
     29440     29443     29445     29440     29443     29446     29441     29440     29442
     29441     29440     29443     29442     29440     29443     29443     29446     29447
     29443     29446     29448     29443     29446     29449     29444     29443     29445
     29444     29443     29446     29445     29443     29446     29446     29449     29450
     29446     29449     29451     29446     29449     29452     29447     29446     29448
     29447     29446     29449     29448     29446     29449     29450     29449     29451
     29450     29449     29452     29451     29449     29452     29453     29454     29455
     29453     29454     29456     29453     29454     29469     29453     29457     29458
     29453     29457     29459     29453     29457     29460     29453     29461     29462
     29453     29461     29463     29453     29461     29464     29453     29465     29466
     29453     29465     29467     29453     29465     29468     29454     29453     29457
     29454     29453     29461     29454     29453     29465     29454     29469     29470
     29454     29469     29471     29454     29469     29475     29455     29454     29456
     29455     29454     29469     29456     29454     29469     29457     29453     29461
     29457     29453     29465     29458     29457     29459     29458     29457     29460
     29459     29457     29460     29461     29453     29465     29462     29461     29463
     29462     29461     29464     29463     29461     29464     29466     29465     29467
     29466     29465     29468     29467     29465     29468     29469     29475     29472
     29470     29469     29471     29470     29469     29475     29471     29469     29475
     29472     29476     29477     29473     29472     29474     29473     29472     29475
     29473     29472     29476     29474     29472     29475     29474     29472     29476
     29475     29472     29476     29476     29477     29478     29476     29477     29479
     29476     29477     29480     29477     29480     29481     29477     29480     29482
     29477     29480     29488     29478     29477     29479     29478     29477     29480
     29479     29477     29480     29480     29482     29483     29480     29488     29489
     29480     29488     29490     29480     29488     29491     29481     29480     29482
     29481     29480     29488     29482     29480     29488     29482     29483     29484
     29482     29483     29485     29483     29485     29486     29483     29485     29487
     29483     29485     29497     29484     29483     29485     29485     29497     29498
     29485     29497     29499     29485     29497     29500     29486     29485     29487
     29486     29485     29497     29487     29485     29497     29488     29491     29492
     29489     29488     29490     29489     29488     29491     29490     29488     29491
     29491     29492     29493     29491     29492     29494     29492     29494     29495
     29492     29494     29496     29492     29494     29544     29493     29492     29494
     29494     29544     29545     29494     29544     29546     29494     29544     29547
     29495     29494     29496     29495     29494     29544     29496     29494     29544
     29497     29500     29501     29497     29500     29502     29497     29500     29503
     29498     29497     29499     29498     29497     29500     29499     29497     29500
     29500     29503     29504     29500     29503     29505     29500     29503     29506
     29501     29500     29502     29501     29500     29503     29502     29500     29503
     29503     29506     29507     29503     29506     29508     29503     29506     29509
     29504     29503     29505     29504     29503     29506     29505     29503     29506
     29506     29509     29510     29506     29509     29511     29506     29509     29512
     29507     29506     29508     29507     29506     29509     29508     29506     29509
     29509     29512     29513     29509     29512     29514     29509     29512     29515
     29510     29509     29511     29510     29509     29512     29511     29509     29512
     29512     29515     29516     29512     29515     29517     29513     29512     29514
     29513     29512     29515     29514     29512     29515     29515     29517     29518
     29515     29517     29519     29516     29515     29517     29517     29519     29520
     29517     29519     29521     29517     29519     29522     29518     29517     29519
     29519     29522     29523     29519     29522     29524     29519     29522     29525
     29520     29519     29521     29520     29519     29522     29521     29519     29522
     29522     29525     29526     29522     29525     29527     29522     29525     29528
     29523     29522     29524     29523     29522     29525     29524     29522     29525
     29525     29528     29529     29525     29528     29530     29525     29528     29531
     29526     29525     29527     29526     29525     29528     29527     29525     29528
     29528     29531     29532     29528     29531     29533     29528     29531     29534
     29529     29528     29530     29529     29528     29531     29530     29528     29531
     29531     29534     29535     29531     29534     29536     29531     29534     29537
     29532     29531     29533     29532     29531     29534     29533     29531     29534
     29534     29537     29538     29534     29537     29539     29534     29537     29540
     29535     29534     29536     29535     29534     29537     29536     29534     29537
     29537     29540     29541     29537     29540     29542     29537     29540     29543
     29538     29537     29539     29538     29537     29540     29539     29537     29540
     29541     29540     29542     29541     29540     29543     29542     29540     29543
     29544     29547     29548     29544     29547     29549     29544     29547     29550
     29545     29544     29546     29545     29544     29547     29546     29544     29547
     29547     29550     29551     29547     29550     29552     29547     29550     29553
     29548     29547     29549     29548     29547     29550     29549     29547     29550
     29550     29553     29554     29550     29553     29555     29550     29553     29556
     29551     29550     29552     29551     29550     29553     29552     29550     29553
     29553     29556     29557     29553     29556     29558     29553     29556     29559
     29554     29553     29555     29554     29553     29556     29555     29553     29556
     29556     29559     29560     29556     29559     29561     29556     29559     29562
     29557     29556     29558     29557     29556     29559     29558     29556     29559
     29559     29562     29563     29559     29562     29564     29559     29562     29565
     29560     29559     29561     29560     29559     29562     29561     29559     29562
     29562     29565     29566     29562     29565     29567     29562     29565     29568
     29563     29562     29564     29563     29562     29565     29564     29562     29565
     29565     29568     29569     29565     29568     29570     29565     29568     29571
     29566     29565     29567     29566     29565     29568     29567     29565     29568
     29568     29571     29572     29568     29571     29573     29568     29571     29574
     29569     29568     29570     29569     29568     29571     29570     29568     29571
     29571     29574     29575     29571     29574     29576     29571     29574     29577
     29572     29571     29573     29572     29571     29574     29573     29571     29574
     29574     29577     29578     29574     29577     29579     29574     29577     29580
     29575     29574     29576     29575     29574     29577     29576     29574     29577
     29577     29580     29581     29577     29580     29582     29577     29580     29583
     29578     29577     29579     29578     29577     29580     29579     29577     29580
     29580     29583     29584     29580     29583     29585     29580     29583     29586
     29581     29580     29582     29581     29580     29583     29582     29580     29583
     29584     29583     29585     29584     29583     29586     29585     29583     29586
     29587     29588     29589     29587     29588     29590     29587     29588     29603
     29587     29591     29592     29587     29591     29593     29587     29591     29594
     29587     29595     29596     29587     29595     29597     29587     29595     29598
     29587     29599     29600     29587     29599     29601     29587     29599     29602
     29588     29587     29591     29588     29587     29595     29588     29587     29599
     29588     29603     29604     29588     29603     29605     29588     29603     29609
     29589     29588     29590     29589     29588     29603     29590     29588     29603
     29591     29587     29595     29591     29587     29599     29592     29591     29593
     29592     29591     29594     29593     29591     29594     29595     29587     29599
     29596     29595     29597     29596     29595     29598     29597     29595     29598
     29600     29599     29601     29600     29599     29602     29601     29599     29602
     29603     29609     29606     29604     29603     29605     29604     29603     29609
     29605     29603     29609     29606     29610     29611     29607     29606     29608
     29607     29606     29609     29607     29606     29610     29608     29606     29609
     29608     29606     29610     29609     29606     29610     29610     29611     29612
     29610     29611     29613     29610     29611     29614     29611     29614     29615
     29611     29614     29616     29611     29614     29622     29612     29611     29613
     29612     29611     29614     29613     29611     29614     29614     29616     29617
     29614     29622     29623     29614     29622     29624     29614     29622     29625
     29615     29614     29616     29615     29614     29622     29616     29614     29622
     29616     29617     29618     29616     29617     29619     29617     29619     29620
     29617     29619     29621     29617     29619     29631     29618     29617     29619
     29619     29631     29632     29619     29631     29633     29619     29631     29634
     29620     29619     29621     29620     29619     29631     29621     29619     29631
     29622     29625     29626     29623     29622     29624     29623     29622     29625
     29624     29622     29625     29625     29626     29627     29625     29626     29628
     29626     29628     29629     29626     29628     29630     29626     29628     29678
     29627     29626     29628     29628     29678     29679     29628     29678     29680
     29628     29678     29681     29629     29628     29630     29629     29628     29678
     29630     29628     29678     29631     29634     29635     29631     29634     29636
     29631     29634     29637     29632     29631     29633     29632     29631     29634
     29633     29631     29634     29634     29637     29638     29634     29637     29639
     29634     29637     29640     29635     29634     29636     29635     29634     29637
     29636     29634     29637     29637     29640     29641     29637     29640     29642
     29637     29640     29643     29638     29637     29639     29638     29637     29640
     29639     29637     29640     29640     29643     29644     29640     29643     29645
     29640     29643     29646     29641     29640     29642     29641     29640     29643
     29642     29640     29643     29643     29646     29647     29643     29646     29648
     29643     29646     29649     29644     29643     29645     29644     29643     29646
     29645     29643     29646     29646     29649     29650     29646     29649     29651
     29647     29646     29648     29647     29646     29649     29648     29646     29649
     29649     29651     29652     29649     29651     29653     29650     29649     29651
     29651     29653     29654     29651     29653     29655     29651     29653     29656
     29652     29651     29653     29653     29656     29657     29653     29656     29658
     29653     29656     29659     29654     29653     29655     29654     29653     29656
     29655     29653     29656     29656     29659     29660     29656     29659     29661
     29656     29659     29662     29657     29656     29658     29657     29656     29659
     29658     29656     29659     29659     29662     29663     29659     29662     29664
     29659     29662     29665     29660     29659     29661     29660     29659     29662
     29661     29659     29662     29662     29665     29666     29662     29665     29667
     29662     29665     29668     29663     29662     29664     29663     29662     29665
     29664     29662     29665     29665     29668     29669     29665     29668     29670
     29665     29668     29671     29666     29665     29667     29666     29665     29668
     29667     29665     29668     29668     29671     29672     29668     29671     29673
     29668     29671     29674     29669     29668     29670     29669     29668     29671
     29670     29668     29671     29671     29674     29675     29671     29674     29676
     29671     29674     29677     29672     29671     29673     29672     29671     29674
     29673     29671     29674     29675     29674     29676     29675     29674     29677
     29676     29674     29677     29678     29681     29682     29678     29681     29683
     29678     29681     29684     29679     29678     29680     29679     29678     29681
     29680     29678     29681     29681     29684     29685     29681     29684     29686
     29681     29684     29687     29682     29681     29683     29682     29681     29684
     29683     29681     29684     29684     29687     29688     29684     29687     29689
     29684     29687     29690     29685     29684     29686     29685     29684     29687
     29686     29684     29687     29687     29690     29691     29687     29690     29692
     29687     29690     29693     29688     29687     29689     29688     29687     29690
     29689     29687     29690     29690     29693     29694     29690     29693     29695
     29690     29693     29696     29691     29690     29692     29691     29690     29693
     29692     29690     29693     29693     29696     29697     29693     29696     29698
     29693     29696     29699     29694     29693     29695     29694     29693     29696
     29695     29693     29696     29696     29699     29700     29696     29699     29701
     29696     29699     29702     29697     29696     29698     29697     29696     29699
     29698     29696     29699     29699     29702     29703     29699     29702     29704
     29699     29702     29705     29700     29699     29701     29700     29699     29702
     29701     29699     29702     29702     29705     29706     29702     29705     29707
     29702     29705     29708     29703     29702     29704     29703     29702     29705
     29704     29702     29705     29705     29708     29709     29705     29708     29710
     29705     29708     29711     29706     29705     29707     29706     29705     29708
     29707     29705     29708     29708     29711     29712     29708     29711     29713
     29708     29711     29714     29709     29708     29710     29709     29708     29711
     29710     29708     29711     29711     29714     29715     29711     29714     29716
     29711     29714     29717     29712     29711     29713     29712     29711     29714
     29713     29711     29714     29714     29717     29718     29714     29717     29719
     29714     29717     29720     29715     29714     29716     29715     29714     29717
     29716     29714     29717     29718     29717     29719     29718     29717     29720
     29719     29717     29720     29721     29722     29723     29721     29722     29724
     29721     29722     29737     29721     29725     29726     29721     29725     29727
     29721     29725     29728     29721     29729     29730     29721     29729     29731
     29721     29729     29732     29721     29733     29734     29721     29733     29735
     29721     29733     29736     29722     29721     29725     29722     29721     29729
     29722     29721     29733     29722     29737     29738     29722     29737     29739
     29722     29737     29743     29723     29722     29724     29723     29722     29737
     29724     29722     29737     29725     29721     29729     29725     29721     29733
     29726     29725     29727     29726     29725     29728     29727     29725     29728
     29729     29721     29733     29730     29729     29731     29730     29729     29732
     29731     29729     29732     29734     29733     29735     29734     29733     29736
     29735     29733     29736     29737     29743     29740     29738     29737     29739
     29738     29737     29743     29739     29737     29743     29740     29744     29745
     29741     29740     29742     29741     29740     29743     29741     29740     29744
     29742     29740     29743     29742     29740     29744     29743     29740     29744
     29744     29745     29746     29744     29745     29747     29744     29745     29748
     29745     29748     29749     29745     29748     29750     29745     29748     29756
     29746     29745     29747     29746     29745     29748     29747     29745     29748
     29748     29750     29751     29748     29756     29757     29748     29756     29758
     29748     29756     29759     29749     29748     29750     29749     29748     29756
     29750     29748     29756     29750     29751     29752     29750     29751     29753
     29751     29753     29754     29751     29753     29755     29751     29753     29765
     29752     29751     29753     29753     29765     29766     29753     29765     29767
     29753     29765     29768     29754     29753     29755     29754     29753     29765
     29755     29753     29765     29756     29759     29760     29757     29756     29758
     29757     29756     29759     29758     29756     29759     29759     29760     29761
     29759     29760     29762     29760     29762     29763     29760     29762     29764
     29760     29762     29812     29761     29760     29762     29762     29812     29813
     29762     29812     29814     29762     29812     29815     29763     29762     29764
     29763     29762     29812     29764     29762     29812     29765     29768     29769
     29765     29768     29770     29765     29768     29771     29766     29765     29767
     29766     29765     29768     29767     29765     29768     29768     29771     29772
     29768     29771     29773     29768     29771     29774     29769     29768     29770
     29769     29768     29771     29770     29768     29771     29771     29774     29775
     29771     29774     29776     29771     29774     29777     29772     29771     29773
     29772     29771     29774     29773     29771     29774     29774     29777     29778
     29774     29777     29779     29774     29777     29780     29775     29774     29776
     29775     29774     29777     29776     29774     29777     29777     29780     29781
     29777     29780     29782     29777     29780     29783     29778     29777     29779
     29778     29777     29780     29779     29777     29780     29780     29783     29784
     29780     29783     29785     29781     29780     29782     29781     29780     29783
     29782     29780     29783     29783     29785     29786     29783     29785     29787
     29784     29783     29785     29785     29787     29788     29785     29787     29789
     29785     29787     29790     29786     29785     29787     29787     29790     29791
     29787     29790     29792     29787     29790     29793     29788     29787     29789
     29788     29787     29790     29789     29787     29790     29790     29793     29794
     29790     29793     29795     29790     29793     29796     29791     29790     29792
     29791     29790     29793     29792     29790     29793     29793     29796     29797
     29793     29796     29798     29793     29796     29799     29794     29793     29795
     29794     29793     29796     29795     29793     29796     29796     29799     29800
     29796     29799     29801     29796     29799     29802     29797     29796     29798
     29797     29796     29799     29798     29796     29799     29799     29802     29803
     29799     29802     29804     29799     29802     29805     29800     29799     29801
     29800     29799     29802     29801     29799     29802     29802     29805     29806
     29802     29805     29807     29802     29805     29808     29803     29802     29804
     29803     29802     29805     29804     29802     29805     29805     29808     29809
     29805     29808     29810     29805     29808     29811     29806     29805     29807
     29806     29805     29808     29807     29805     29808     29809     29808     29810
     29809     29808     29811     29810     29808     29811     29812     29815     29816
     29812     29815     29817     29812     29815     29818     29813     29812     29814
     29813     29812     29815     29814     29812     29815     29815     29818     29819
     29815     29818     29820     29815     29818     29821     29816     29815     29817
     29816     29815     29818     29817     29815     29818     29818     29821     29822
     29818     29821     29823     29818     29821     29824     29819     29818     29820
     29819     29818     29821     29820     29818     29821     29821     29824     29825
     29821     29824     29826     29821     29824     29827     29822     29821     29823
     29822     29821     29824     29823     29821     29824     29824     29827     29828
     29824     29827     29829     29824     29827     29830     29825     29824     29826
     29825     29824     29827     29826     29824     29827     29827     29830     29831
     29827     29830     29832     29827     29830     29833     29828     29827     29829
     29828     29827     29830     29829     29827     29830     29830     29833     29834
     29830     29833     29835     29830     29833     29836     29831     29830     29832
     29831     29830     29833     29832     29830     29833     29833     29836     29837
     29833     29836     29838     29833     29836     29839     29834     29833     29835
     29834     29833     29836     29835     29833     29836     29836     29839     29840
     29836     29839     29841     29836     29839     29842     29837     29836     29838
     29837     29836     29839     29838     29836     29839     29839     29842     29843
     29839     29842     29844     29839     29842     29845     29840     29839     29841
     29840     29839     29842     29841     29839     29842     29842     29845     29846
     29842     29845     29847     29842     29845     29848     29843     29842     29844
     29843     29842     29845     29844     29842     29845     29845     29848     29849
     29845     29848     29850     29845     29848     29851     29846     29845     29847
     29846     29845     29848     29847     29845     29848     29848     29851     29852
     29848     29851     29853     29848     29851     29854     29849     29848     29850
     29849     29848     29851     29850     29848     29851     29852     29851     29853
     29852     29851     29854     29853     29851     29854     29855     29856     29857
     29855     29856     29858     29855     29856     29871     29855     29859     29860
     29855     29859     29861     29855     29859     29862     29855     29863     29864
     29855     29863     29865     29855     29863     29866     29855     29867     29868
     29855     29867     29869     29855     29867     29870     29856     29855     29859
     29856     29855     29863     29856     29855     29867     29856     29871     29872
     29856     29871     29873     29856     29871     29877     29857     29856     29858
     29857     29856     29871     29858     29856     29871     29859     29855     29863
     29859     29855     29867     29860     29859     29861     29860     29859     29862
     29861     29859     29862     29863     29855     29867     29864     29863     29865
     29864     29863     29866     29865     29863     29866     29868     29867     29869
     29868     29867     29870     29869     29867     29870     29871     29877     29874
     29872     29871     29873     29872     29871     29877     29873     29871     29877
     29874     29878     29879     29875     29874     29876     29875     29874     29877
     29875     29874     29878     29876     29874     29877     29876     29874     29878
     29877     29874     29878     29878     29879     29880     29878     29879     29881
     29878     29879     29882     29879     29882     29883     29879     29882     29884
     29879     29882     29890     29880     29879     29881     29880     29879     29882
     29881     29879     29882     29882     29884     29885     29882     29890     29891
     29882     29890     29892     29882     29890     29893     29883     29882     29884
     29883     29882     29890     29884     29882     29890     29884     29885     29886
     29884     29885     29887     29885     29887     29888     29885     29887     29889
     29885     29887     29899     29886     29885     29887     29887     29899     29900
     29887     29899     29901     29887     29899     29902     29888     29887     29889
     29888     29887     29899     29889     29887     29899     29890     29893     29894
     29891     29890     29892     29891     29890     29893     29892     29890     29893
     29893     29894     29895     29893     29894     29896     29894     29896     29897
     29894     29896     29898     29894     29896     29946     29895     29894     29896
     29896     29946     29947     29896     29946     29948     29896     29946     29949
     29897     29896     29898     29897     29896     29946     29898     29896     29946
     29899     29902     29903     29899     29902     29904     29899     29902     29905
     29900     29899     29901     29900     29899     29902     29901     29899     29902
     29902     29905     29906     29902     29905     29907     29902     29905     29908
     29903     29902     29904     29903     29902     29905     29904     29902     29905
     29905     29908     29909     29905     29908     29910     29905     29908     29911
     29906     29905     29907     29906     29905     29908     29907     29905     29908
     29908     29911     29912     29908     29911     29913     29908     29911     29914
     29909     29908     29910     29909     29908     29911     29910     29908     29911
     29911     29914     29915     29911     29914     29916     29911     29914     29917
     29912     29911     29913     29912     29911     29914     29913     29911     29914
     29914     29917     29918     29914     29917     29919     29915     29914     29916
     29915     29914     29917     29916     29914     29917     29917     29919     29920
     29917     29919     29921     29918     29917     29919     29919     29921     29922
     29919     29921     29923     29919     29921     29924     29920     29919     29921
     29921     29924     29925     29921     29924     29926     29921     29924     29927
     29922     29921     29923     29922     29921     29924     29923     29921     29924
     29924     29927     29928     29924     29927     29929     29924     29927     29930
     29925     29924     29926     29925     29924     29927     29926     29924     29927
     29927     29930     29931     29927     29930     29932     29927     29930     29933
     29928     29927     29929     29928     29927     29930     29929     29927     29930
     29930     29933     29934     29930     29933     29935     29930     29933     29936
     29931     29930     29932     29931     29930     29933     29932     29930     29933
     29933     29936     29937     29933     29936     29938     29933     29936     29939
     29934     29933     29935     29934     29933     29936     29935     29933     29936
     29936     29939     29940     29936     29939     29941     29936     29939     29942
     29937     29936     29938     29937     29936     29939     29938     29936     29939
     29939     29942     29943     29939     29942     29944     29939     29942     29945
     29940     29939     29941     29940     29939     29942     29941     29939     29942
     29943     29942     29944     29943     29942     29945     29944     29942     29945
     29946     29949     29950     29946     29949     29951     29946     29949     29952
     29947     29946     29948     29947     29946     29949     29948     29946     29949
     29949     29952     29953     29949     29952     29954     29949     29952     29955
     29950     29949     29951     29950     29949     29952     29951     29949     29952
     29952     29955     29956     29952     29955     29957     29952     29955     29958
     29953     29952     29954     29953     29952     29955     29954     29952     29955
     29955     29958     29959     29955     29958     29960     29955     29958     29961
     29956     29955     29957     29956     29955     29958     29957     29955     29958
     29958     29961     29962     29958     29961     29963     29958     29961     29964
     29959     29958     29960     29959     29958     29961     29960     29958     29961
     29961     29964     29965     29961     29964     29966     29961     29964     29967
     29962     29961     29963     29962     29961     29964     29963     29961     29964
     29964     29967     29968     29964     29967     29969     29964     29967     29970
     29965     29964     29966     29965     29964     29967     29966     29964     29967
     29967     29970     29971     29967     29970     29972     29967     29970     29973
     29968     29967     29969     29968     29967     29970     29969     29967     29970
     29970     29973     29974     29970     29973     29975     29970     29973     29976
     29971     29970     29972     29971     29970     29973     29972     29970     29973
     29973     29976     29977     29973     29976     29978     29973     29976     29979
     29974     29973     29975     29974     29973     29976     29975     29973     29976
     29976     29979     29980     29976     29979     29981     29976     29979     29982
     29977     29976     29978     29977     29976     29979     29978     29976     29979
     29979     29982     29983     29979     29982     29984     29979     29982     29985
     29980     29979     29981     29980     29979     29982     29981     29979     29982
     29982     29985     29986     29982     29985     29987     29982     29985     29988
     29983     29982     29984     29983     29982     29985     29984     29982     29985
     29986     29985     29987     29986     29985     29988     29987     29985     29988
     29989     29990     29991     29989     29990     29992     29989     29990     30005
     29989     29993     29994     29989     29993     29995     29989     29993     29996
     29989     29997     29998     29989     29997     29999     29989     29997     30000
     29989     30001     30002     29989     30001     30003     29989     30001     30004
     29990     29989     29993     29990     29989     29997     29990     29989     30001
     29990     30005     30006     29990     30005     30007     29990     30005     30011
     29991     29990     29992     29991     29990     30005     29992     29990     30005
     29993     29989     29997     29993     29989     30001     29994     29993     29995
     29994     29993     29996     29995     29993     29996     29997     29989     30001
     29998     29997     29999     29998     29997     30000     29999     29997     30000
     30002     30001     30003     30002     30001     30004     30003     30001     30004
     30005     30011     30008     30006     30005     30007     30006     30005     30011
     30007     30005     30011     30008     30012     30013     30009     30008     30010
     30009     30008     30011     30009     30008     30012     30010     30008     30011
     30010     30008     30012     30011     30008     30012     30012     30013     30014
     30012     30013     30015     30012     30013     30016     30013     30016     30017
     30013     30016     30018     30013     30016     30024     30014     30013     30015
     30014     30013     30016     30015     30013     30016     30016     30018     30019
     30016     30024     30025     30016     30024     30026     30016     30024     30027
     30017     30016     30018     30017     30016     30024     30018     30016     30024
     30018     30019     30020     30018     30019     30021     30019     30021     30022
     30019     30021     30023     30019     30021     30033     30020     30019     30021
     30021     30033     30034     30021     30033     30035     30021     30033     30036
     30022     30021     30023     30022     30021     30033     30023     30021     30033
     30024     30027     30028     30025     30024     30026     30025     30024     30027
     30026     30024     30027     30027     30028     30029     30027     30028     30030
     30028     30030     30031     30028     30030     30032     30028     30030     30080
     30029     30028     30030     30030     30080     30081     30030     30080     30082
     30030     30080     30083     30031     30030     30032     30031     30030     30080
     30032     30030     30080     30033     30036     30037     30033     30036     30038
     30033     30036     30039     30034     30033     30035     30034     30033     30036
     30035     30033     30036     30036     30039     30040     30036     30039     30041
     30036     30039     30042     30037     30036     30038     30037     30036     30039
     30038     30036     30039     30039     30042     30043     30039     30042     30044
     30039     30042     30045     30040     30039     30041     30040     30039     30042
     30041     30039     30042     30042     30045     30046     30042     30045     30047
     30042     30045     30048     30043     30042     30044     30043     30042     30045
     30044     30042     30045     30045     30048     30049     30045     30048     30050
     30045     30048     30051     30046     30045     30047     30046     30045     30048
     30047     30045     30048     30048     30051     30052     30048     30051     30053
     30049     30048     30050     30049     30048     30051     30050     30048     30051
     30051     30053     30054     30051     30053     30055     30052     30051     30053
     30053     30055     30056     30053     30055     30057     30053     30055     30058
     30054     30053     30055     30055     30058     30059     30055     30058     30060
     30055     30058     30061     30056     30055     30057     30056     30055     30058
     30057     30055     30058     30058     30061     30062     30058     30061     30063
     30058     30061     30064     30059     30058     30060     30059     30058     30061
     30060     30058     30061     30061     30064     30065     30061     30064     30066
     30061     30064     30067     30062     30061     30063     30062     30061     30064
     30063     30061     30064     30064     30067     30068     30064     30067     30069
     30064     30067     30070     30065     30064     30066     30065     30064     30067
     30066     30064     30067     30067     30070     30071     30067     30070     30072
     30067     30070     30073     30068     30067     30069     30068     30067     30070
     30069     30067     30070     30070     30073     30074     30070     30073     30075
     30070     30073     30076     30071     30070     30072     30071     30070     30073
     30072     30070     30073     30073     30076     30077     30073     30076     30078
     30073     30076     30079     30074     30073     30075     30074     30073     30076
     30075     30073     30076     30077     30076     30078     30077     30076     30079
     30078     30076     30079     30080     30083     30084     30080     30083     30085
     30080     30083     30086     30081     30080     30082     30081     30080     30083
     30082     30080     30083     30083     30086     30087     30083     30086     30088
     30083     30086     30089     30084     30083     30085     30084     30083     30086
     30085     30083     30086     30086     30089     30090     30086     30089     30091
     30086     30089     30092     30087     30086     30088     30087     30086     30089
     30088     30086     30089     30089     30092     30093     30089     30092     30094
     30089     30092     30095     30090     30089     30091     30090     30089     30092
     30091     30089     30092     30092     30095     30096     30092     30095     30097
     30092     30095     30098     30093     30092     30094     30093     30092     30095
     30094     30092     30095     30095     30098     30099     30095     30098     30100
     30095     30098     30101     30096     30095     30097     30096     30095     30098
     30097     30095     30098     30098     30101     30102     30098     30101     30103
     30098     30101     30104     30099     30098     30100     30099     30098     30101
     30100     30098     30101     30101     30104     30105     30101     30104     30106
     30101     30104     30107     30102     30101     30103     30102     30101     30104
     30103     30101     30104     30104     30107     30108     30104     30107     30109
     30104     30107     30110     30105     30104     30106     30105     30104     30107
     30106     30104     30107     30107     30110     30111     30107     30110     30112
     30107     30110     30113     30108     30107     30109     30108     30107     30110
     30109     30107     30110     30110     30113     30114     30110     30113     30115
     30110     30113     30116     30111     30110     30112     30111     30110     30113
     30112     30110     30113     30113     30116     30117     30113     30116     30118
     30113     30116     30119     30114     30113     30115     30114     30113     30116
     30115     30113     30116     30116     30119     30120     30116     30119     30121
     30116     30119     30122     30117     30116     30118     30117     30116     30119
     30118     30116     30119     30120     30119     30121     30120     30119     30122
     30121     30119     30122     30123     30124     30125     30123     30124     30126
     30123     30124     30139     30123     30127     30128     30123     30127     30129
     30123     30127     30130     30123     30131     30132     30123     30131     30133
     30123     30131     30134     30123     30135     30136     30123     30135     30137
     30123     30135     30138     30124     30123     30127     30124     30123     30131
     30124     30123     30135     30124     30139     30140     30124     30139     30141
     30124     30139     30145     30125     30124     30126     30125     30124     30139
     30126     30124     30139     30127     30123     30131     30127     30123     30135
     30128     30127     30129     30128     30127     30130     30129     30127     30130
     30131     30123     30135     30132     30131     30133     30132     30131     30134
     30133     30131     30134     30136     30135     30137     30136     30135     30138
     30137     30135     30138     30139     30145     30142     30140     30139     30141
     30140     30139     30145     30141     30139     30145     30142     30146     30147
     30143     30142     30144     30143     30142     30145     30143     30142     30146
     30144     30142     30145     30144     30142     30146     30145     30142     30146
     30146     30147     30148     30146     30147     30149     30146     30147     30150
     30147     30150     30151     30147     30150     30152     30147     30150     30158
     30148     30147     30149     30148     30147     30150     30149     30147     30150
     30150     30152     30153     30150     30158     30159     30150     30158     30160
     30150     30158     30161     30151     30150     30152     30151     30150     30158
     30152     30150     30158     30152     30153     30154     30152     30153     30155
     30153     30155     30156     30153     30155     30157     30153     30155     30167
     30154     30153     30155     30155     30167     30168     30155     30167     30169
     30155     30167     30170     30156     30155     30157     30156     30155     30167
     30157     30155     30167     30158     30161     30162     30159     30158     30160
     30159     30158     30161     30160     30158     30161     30161     30162     30163
     30161     30162     30164     30162     30164     30165     30162     30164     30166
     30162     30164     30214     30163     30162     30164     30164     30214     30215
     30164     30214     30216     30164     30214     30217     30165     30164     30166
     30165     30164     30214     30166     30164     30214     30167     30170     30171
     30167     30170     30172     30167     30170     30173     30168     30167     30169
     30168     30167     30170     30169     30167     30170     30170     30173     30174
     30170     30173     30175     30170     30173     30176     30171     30170     30172
     30171     30170     30173     30172     30170     30173     30173     30176     30177
     30173     30176     30178     30173     30176     30179     30174     30173     30175
     30174     30173     30176     30175     30173     30176     30176     30179     30180
     30176     30179     30181     30176     30179     30182     30177     30176     30178
     30177     30176     30179     30178     30176     30179     30179     30182     30183
     30179     30182     30184     30179     30182     30185     30180     30179     30181
     30180     30179     30182     30181     30179     30182     30182     30185     30186
     30182     30185     30187     30183     30182     30184     30183     30182     30185
     30184     30182     30185     30185     30187     30188     30185     30187     30189
     30186     30185     30187     30187     30189     30190     30187     30189     30191
     30187     30189     30192     30188     30187     30189     30189     30192     30193
     30189     30192     30194     30189     30192     30195     30190     30189     30191
     30190     30189     30192     30191     30189     30192     30192     30195     30196
     30192     30195     30197     30192     30195     30198     30193     30192     30194
     30193     30192     30195     30194     30192     30195     30195     30198     30199
     30195     30198     30200     30195     30198     30201     30196     30195     30197
     30196     30195     30198     30197     30195     30198     30198     30201     30202
     30198     30201     30203     30198     30201     30204     30199     30198     30200
     30199     30198     30201     30200     30198     30201     30201     30204     30205
     30201     30204     30206     30201     30204     30207     30202     30201     30203
     30202     30201     30204     30203     30201     30204     30204     30207     30208
     30204     30207     30209     30204     30207     30210     30205     30204     30206
     30205     30204     30207     30206     30204     30207     30207     30210     30211
     30207     30210     30212     30207     30210     30213     30208     30207     30209
     30208     30207     30210     30209     30207     30210     30211     30210     30212
     30211     30210     30213     30212     30210     30213     30214     30217     30218
     30214     30217     30219     30214     30217     30220     30215     30214     30216
     30215     30214     30217     30216     30214     30217     30217     30220     30221
     30217     30220     30222     30217     30220     30223     30218     30217     30219
     30218     30217     30220     30219     30217     30220     30220     30223     30224
     30220     30223     30225     30220     30223     30226     30221     30220     30222
     30221     30220     30223     30222     30220     30223     30223     30226     30227
     30223     30226     30228     30223     30226     30229     30224     30223     30225
     30224     30223     30226     30225     30223     30226     30226     30229     30230
     30226     30229     30231     30226     30229     30232     30227     30226     30228
     30227     30226     30229     30228     30226     30229     30229     30232     30233
     30229     30232     30234     30229     30232     30235     30230     30229     30231
     30230     30229     30232     30231     30229     30232     30232     30235     30236
     30232     30235     30237     30232     30235     30238     30233     30232     30234
     30233     30232     30235     30234     30232     30235     30235     30238     30239
     30235     30238     30240     30235     30238     30241     30236     30235     30237
     30236     30235     30238     30237     30235     30238     30238     30241     30242
     30238     30241     30243     30238     30241     30244     30239     30238     30240
     30239     30238     30241     30240     30238     30241     30241     30244     30245
     30241     30244     30246     30241     30244     30247     30242     30241     30243
     30242     30241     30244     30243     30241     30244     30244     30247     30248
     30244     30247     30249     30244     30247     30250     30245     30244     30246
     30245     30244     30247     30246     30244     30247     30247     30250     30251
     30247     30250     30252     30247     30250     30253     30248     30247     30249
     30248     30247     30250     30249     30247     30250     30250     30253     30254
     30250     30253     30255     30250     30253     30256     30251     30250     30252
     30251     30250     30253     30252     30250     30253     30254     30253     30255
     30254     30253     30256     30255     30253     30256     30257     30258     30259
     30257     30258     30260     30257     30258     30273     30257     30261     30262
     30257     30261     30263     30257     30261     30264     30257     30265     30266
     30257     30265     30267     30257     30265     30268     30257     30269     30270
     30257     30269     30271     30257     30269     30272     30258     30257     30261
     30258     30257     30265     30258     30257     30269     30258     30273     30274
     30258     30273     30275     30258     30273     30279     30259     30258     30260
     30259     30258     30273     30260     30258     30273     30261     30257     30265
     30261     30257     30269     30262     30261     30263     30262     30261     30264
     30263     30261     30264     30265     30257     30269     30266     30265     30267
     30266     30265     30268     30267     30265     30268     30270     30269     30271
     30270     30269     30272     30271     30269     30272     30273     30279     30276
     30274     30273     30275     30274     30273     30279     30275     30273     30279
     30276     30280     30281     30277     30276     30278     30277     30276     30279
     30277     30276     30280     30278     30276     30279     30278     30276     30280
     30279     30276     30280     30280     30281     30282     30280     30281     30283
     30280     30281     30284     30281     30284     30285     30281     30284     30286
     30281     30284     30292     30282     30281     30283     30282     30281     30284
     30283     30281     30284     30284     30286     30287     30284     30292     30293
     30284     30292     30294     30284     30292     30295     30285     30284     30286
     30285     30284     30292     30286     30284     30292     30286     30287     30288
     30286     30287     30289     30287     30289     30290     30287     30289     30291
     30287     30289     30301     30288     30287     30289     30289     30301     30302
     30289     30301     30303     30289     30301     30304     30290     30289     30291
     30290     30289     30301     30291     30289     30301     30292     30295     30296
     30293     30292     30294     30293     30292     30295     30294     30292     30295
     30295     30296     30297     30295     30296     30298     30296     30298     30299
     30296     30298     30300     30296     30298     30348     30297     30296     30298
     30298     30348     30349     30298     30348     30350     30298     30348     30351
     30299     30298     30300     30299     30298     30348     30300     30298     30348
     30301     30304     30305     30301     30304     30306     30301     30304     30307
     30302     30301     30303     30302     30301     30304     30303     30301     30304
     30304     30307     30308     30304     30307     30309     30304     30307     30310
     30305     30304     30306     30305     30304     30307     30306     30304     30307
     30307     30310     30311     30307     30310     30312     30307     30310     30313
     30308     30307     30309     30308     30307     30310     30309     30307     30310
     30310     30313     30314     30310     30313     30315     30310     30313     30316
     30311     30310     30312     30311     30310     30313     30312     30310     30313
     30313     30316     30317     30313     30316     30318     30313     30316     30319
     30314     30313     30315     30314     30313     30316     30315     30313     30316
     30316     30319     30320     30316     30319     30321     30317     30316     30318
     30317     30316     30319     30318     30316     30319     30319     30321     30322
     30319     30321     30323     30320     30319     30321     30321     30323     30324
     30321     30323     30325     30321     30323     30326     30322     30321     30323
     30323     30326     30327     30323     30326     30328     30323     30326     30329
     30324     30323     30325     30324     30323     30326     30325     30323     30326
     30326     30329     30330     30326     30329     30331     30326     30329     30332
     30327     30326     30328     30327     30326     30329     30328     30326     30329
     30329     30332     30333     30329     30332     30334     30329     30332     30335
     30330     30329     30331     30330     30329     30332     30331     30329     30332
     30332     30335     30336     30332     30335     30337     30332     30335     30338
     30333     30332     30334     30333     30332     30335     30334     30332     30335
     30335     30338     30339     30335     30338     30340     30335     30338     30341
     30336     30335     30337     30336     30335     30338     30337     30335     30338
     30338     30341     30342     30338     30341     30343     30338     30341     30344
     30339     30338     30340     30339     30338     30341     30340     30338     30341
     30341     30344     30345     30341     30344     30346     30341     30344     30347
     30342     30341     30343     30342     30341     30344     30343     30341     30344
     30345     30344     30346     30345     30344     30347     30346     30344     30347
     30348     30351     30352     30348     30351     30353     30348     30351     30354
     30349     30348     30350     30349     30348     30351     30350     30348     30351
     30351     30354     30355     30351     30354     30356     30351     30354     30357
     30352     30351     30353     30352     30351     30354     30353     30351     30354
     30354     30357     30358     30354     30357     30359     30354     30357     30360
     30355     30354     30356     30355     30354     30357     30356     30354     30357
     30357     30360     30361     30357     30360     30362     30357     30360     30363
     30358     30357     30359     30358     30357     30360     30359     30357     30360
     30360     30363     30364     30360     30363     30365     30360     30363     30366
     30361     30360     30362     30361     30360     30363     30362     30360     30363
     30363     30366     30367     30363     30366     30368     30363     30366     30369
     30364     30363     30365     30364     30363     30366     30365     30363     30366
     30366     30369     30370     30366     30369     30371     30366     30369     30372
     30367     30366     30368     30367     30366     30369     30368     30366     30369
     30369     30372     30373     30369     30372     30374     30369     30372     30375
     30370     30369     30371     30370     30369     30372     30371     30369     30372
     30372     30375     30376     30372     30375     30377     30372     30375     30378
     30373     30372     30374     30373     30372     30375     30374     30372     30375
     30375     30378     30379     30375     30378     30380     30375     30378     30381
     30376     30375     30377     30376     30375     30378     30377     30375     30378
     30378     30381     30382     30378     30381     30383     30378     30381     30384
     30379     30378     30380     30379     30378     30381     30380     30378     30381
     30381     30384     30385     30381     30384     30386     30381     30384     30387
     30382     30381     30383     30382     30381     30384     30383     30381     30384
     30384     30387     30388     30384     30387     30389     30384     30387     30390
     30385     30384     30386     30385     30384     30387     30386     30384     30387
     30388     30387     30389     30388     30387     30390     30389     30387     30390
     30391     30392     30393     30391     30392     30394     30391     30392     30407
     30391     30395     30396     30391     30395     30397     30391     30395     30398
     30391     30399     30400     30391     30399     30401     30391     30399     30402
     30391     30403     30404     30391     30403     30405     30391     30403     30406
     30392     30391     30395     30392     30391     30399     30392     30391     30403
     30392     30407     30408     30392     30407     30409     30392     30407     30413
     30393     30392     30394     30393     30392     30407     30394     30392     30407
     30395     30391     30399     30395     30391     30403     30396     30395     30397
     30396     30395     30398     30397     30395     30398     30399     30391     30403
     30400     30399     30401     30400     30399     30402     30401     30399     30402
     30404     30403     30405     30404     30403     30406     30405     30403     30406
     30407     30413     30410     30408     30407     30409     30408     30407     30413
     30409     30407     30413     30410     30414     30415     30411     30410     30412
     30411     30410     30413     30411     30410     30414     30412     30410     30413
     30412     30410     30414     30413     30410     30414     30414     30415     30416
     30414     30415     30417     30414     30415     30418     30415     30418     30419
     30415     30418     30420     30415     30418     30426     30416     30415     30417
     30416     30415     30418     30417     30415     30418     30418     30420     30421
     30418     30426     30427     30418     30426     30428     30418     30426     30429
     30419     30418     30420     30419     30418     30426     30420     30418     30426
     30420     30421     30422     30420     30421     30423     30421     30423     30424
     30421     30423     30425     30421     30423     30435     30422     30421     30423
     30423     30435     30436     30423     30435     30437     30423     30435     30438
     30424     30423     30425     30424     30423     30435     30425     30423     30435
     30426     30429     30430     30427     30426     30428     30427     30426     30429
     30428     30426     30429     30429     30430     30431     30429     30430     30432
     30430     30432     30433     30430     30432     30434     30430     30432     30482
     30431     30430     30432     30432     30482     30483     30432     30482     30484
     30432     30482     30485     30433     30432     30434     30433     30432     30482
     30434     30432     30482     30435     30438     30439     30435     30438     30440
     30435     30438     30441     30436     30435     30437     30436     30435     30438
     30437     30435     30438     30438     30441     30442     30438     30441     30443
     30438     30441     30444     30439     30438     30440     30439     30438     30441
     30440     30438     30441     30441     30444     30445     30441     30444     30446
     30441     30444     30447     30442     30441     30443     30442     30441     30444
     30443     30441     30444     30444     30447     30448     30444     30447     30449
     30444     30447     30450     30445     30444     30446     30445     30444     30447
     30446     30444     30447     30447     30450     30451     30447     30450     30452
     30447     30450     30453     30448     30447     30449     30448     30447     30450
     30449     30447     30450     30450     30453     30454     30450     30453     30455
     30451     30450     30452     30451     30450     30453     30452     30450     30453
     30453     30455     30456     30453     30455     30457     30454     30453     30455
     30455     30457     30458     30455     30457     30459     30455     30457     30460
     30456     30455     30457     30457     30460     30461     30457     30460     30462
     30457     30460     30463     30458     30457     30459     30458     30457     30460
     30459     30457     30460     30460     30463     30464     30460     30463     30465
     30460     30463     30466     30461     30460     30462     30461     30460     30463
     30462     30460     30463     30463     30466     30467     30463     30466     30468
     30463     30466     30469     30464     30463     30465     30464     30463     30466
     30465     30463     30466     30466     30469     30470     30466     30469     30471
     30466     30469     30472     30467     30466     30468     30467     30466     30469
     30468     30466     30469     30469     30472     30473     30469     30472     30474
     30469     30472     30475     30470     30469     30471     30470     30469     30472
     30471     30469     30472     30472     30475     30476     30472     30475     30477
     30472     30475     30478     30473     30472     30474     30473     30472     30475
     30474     30472     30475     30475     30478     30479     30475     30478     30480
     30475     30478     30481     30476     30475     30477     30476     30475     30478
     30477     30475     30478     30479     30478     30480     30479     30478     30481
     30480     30478     30481     30482     30485     30486     30482     30485     30487
     30482     30485     30488     30483     30482     30484     30483     30482     30485
     30484     30482     30485     30485     30488     30489     30485     30488     30490
     30485     30488     30491     30486     30485     30487     30486     30485     30488
     30487     30485     30488     30488     30491     30492     30488     30491     30493
     30488     30491     30494     30489     30488     30490     30489     30488     30491
     30490     30488     30491     30491     30494     30495     30491     30494     30496
     30491     30494     30497     30492     30491     30493     30492     30491     30494
     30493     30491     30494     30494     30497     30498     30494     30497     30499
     30494     30497     30500     30495     30494     30496     30495     30494     30497
     30496     30494     30497     30497     30500     30501     30497     30500     30502
     30497     30500     30503     30498     30497     30499     30498     30497     30500
     30499     30497     30500     30500     30503     30504     30500     30503     30505
     30500     30503     30506     30501     30500     30502     30501     30500     30503
     30502     30500     30503     30503     30506     30507     30503     30506     30508
     30503     30506     30509     30504     30503     30505     30504     30503     30506
     30505     30503     30506     30506     30509     30510     30506     30509     30511
     30506     30509     30512     30507     30506     30508     30507     30506     30509
     30508     30506     30509     30509     30512     30513     30509     30512     30514
     30509     30512     30515     30510     30509     30511     30510     30509     30512
     30511     30509     30512     30512     30515     30516     30512     30515     30517
     30512     30515     30518     30513     30512     30514     30513     30512     30515
     30514     30512     30515     30515     30518     30519     30515     30518     30520
     30515     30518     30521     30516     30515     30517     30516     30515     30518
     30517     30515     30518     30518     30521     30522     30518     30521     30523
     30518     30521     30524     30519     30518     30520     30519     30518     30521
     30520     30518     30521     30522     30521     30523     30522     30521     30524
     30523     30521     30524     30525     30526     30527     30525     30526     30528
     30525     30526     30541     30525     30529     30530     30525     30529     30531
     30525     30529     30532     30525     30533     30534     30525     30533     30535
     30525     30533     30536     30525     30537     30538     30525     30537     30539
     30525     30537     30540     30526     30525     30529     30526     30525     30533
     30526     30525     30537     30526     30541     30542     30526     30541     30543
     30526     30541     30547     30527     30526     30528     30527     30526     30541
     30528     30526     30541     30529     30525     30533     30529     30525     30537
     30530     30529     30531     30530     30529     30532     30531     30529     30532
     30533     30525     30537     30534     30533     30535     30534     30533     30536
     30535     30533     30536     30538     30537     30539     30538     30537     30540
     30539     30537     30540     30541     30547     30544     30542     30541     30543
     30542     30541     30547     30543     30541     30547     30544     30548     30549
     30545     30544     30546     30545     30544     30547     30545     30544     30548
     30546     30544     30547     30546     30544     30548     30547     30544     30548
     30548     30549     30550     30548     30549     30551     30548     30549     30552
     30549     30552     30553     30549     30552     30554     30549     30552     30560
     30550     30549     30551     30550     30549     30552     30551     30549     30552
     30552     30554     30555     30552     30560     30561     30552     30560     30562
     30552     30560     30563     30553     30552     30554     30553     30552     30560
     30554     30552     30560     30554     30555     30556     30554     30555     30557
     30555     30557     30558     30555     30557     30559     30555     30557     30569
     30556     30555     30557     30557     30569     30570     30557     30569     30571
     30557     30569     30572     30558     30557     30559     30558     30557     30569
     30559     30557     30569     30560     30563     30564     30561     30560     30562
     30561     30560     30563     30562     30560     30563     30563     30564     30565
     30563     30564     30566     30564     30566     30567     30564     30566     30568
     30564     30566     30616     30565     30564     30566     30566     30616     30617
     30566     30616     30618     30566     30616     30619     30567     30566     30568
     30567     30566     30616     30568     30566     30616     30569     30572     30573
     30569     30572     30574     30569     30572     30575     30570     30569     30571
     30570     30569     30572     30571     30569     30572     30572     30575     30576
     30572     30575     30577     30572     30575     30578     30573     30572     30574
     30573     30572     30575     30574     30572     30575     30575     30578     30579
     30575     30578     30580     30575     30578     30581     30576     30575     30577
     30576     30575     30578     30577     30575     30578     30578     30581     30582
     30578     30581     30583     30578     30581     30584     30579     30578     30580
     30579     30578     30581     30580     30578     30581     30581     30584     30585
     30581     30584     30586     30581     30584     30587     30582     30581     30583
     30582     30581     30584     30583     30581     30584     30584     30587     30588
     30584     30587     30589     30585     30584     30586     30585     30584     30587
     30586     30584     30587     30587     30589     30590     30587     30589     30591
     30588     30587     30589     30589     30591     30592     30589     30591     30593
     30589     30591     30594     30590     30589     30591     30591     30594     30595
     30591     30594     30596     30591     30594     30597     30592     30591     30593
     30592     30591     30594     30593     30591     30594     30594     30597     30598
     30594     30597     30599     30594     30597     30600     30595     30594     30596
     30595     30594     30597     30596     30594     30597     30597     30600     30601
     30597     30600     30602     30597     30600     30603     30598     30597     30599
     30598     30597     30600     30599     30597     30600     30600     30603     30604
     30600     30603     30605     30600     30603     30606     30601     30600     30602
     30601     30600     30603     30602     30600     30603     30603     30606     30607
     30603     30606     30608     30603     30606     30609     30604     30603     30605
     30604     30603     30606     30605     30603     30606     30606     30609     30610
     30606     30609     30611     30606     30609     30612     30607     30606     30608
     30607     30606     30609     30608     30606     30609     30609     30612     30613
     30609     30612     30614     30609     30612     30615     30610     30609     30611
     30610     30609     30612     30611     30609     30612     30613     30612     30614
     30613     30612     30615     30614     30612     30615     30616     30619     30620
     30616     30619     30621     30616     30619     30622     30617     30616     30618
     30617     30616     30619     30618     30616     30619     30619     30622     30623
     30619     30622     30624     30619     30622     30625     30620     30619     30621
     30620     30619     30622     30621     30619     30622     30622     30625     30626
     30622     30625     30627     30622     30625     30628     30623     30622     30624
     30623     30622     30625     30624     30622     30625     30625     30628     30629
     30625     30628     30630     30625     30628     30631     30626     30625     30627
     30626     30625     30628     30627     30625     30628     30628     30631     30632
     30628     30631     30633     30628     30631     30634     30629     30628     30630
     30629     30628     30631     30630     30628     30631     30631     30634     30635
     30631     30634     30636     30631     30634     30637     30632     30631     30633
     30632     30631     30634     30633     30631     30634     30634     30637     30638
     30634     30637     30639     30634     30637     30640     30635     30634     30636
     30635     30634     30637     30636     30634     30637     30637     30640     30641
     30637     30640     30642     30637     30640     30643     30638     30637     30639
     30638     30637     30640     30639     30637     30640     30640     30643     30644
     30640     30643     30645     30640     30643     30646     30641     30640     30642
     30641     30640     30643     30642     30640     30643     30643     30646     30647
     30643     30646     30648     30643     30646     30649     30644     30643     30645
     30644     30643     30646     30645     30643     30646     30646     30649     30650
     30646     30649     30651     30646     30649     30652     30647     30646     30648
     30647     30646     30649     30648     30646     30649     30649     30652     30653
     30649     30652     30654     30649     30652     30655     30650     30649     30651
     30650     30649     30652     30651     30649     30652     30652     30655     30656
     30652     30655     30657     30652     30655     30658     30653     30652     30654
     30653     30652     30655     30654     30652     30655     30656     30655     30657
     30656     30655     30658     30657     30655     30658     30659     30660     30661
     30659     30660     30662     30659     30660     30675     30659     30663     30664
     30659     30663     30665     30659     30663     30666     30659     30667     30668
     30659     30667     30669     30659     30667     30670     30659     30671     30672
     30659     30671     30673     30659     30671     30674     30660     30659     30663
     30660     30659     30667     30660     30659     30671     30660     30675     30676
     30660     30675     30677     30660     30675     30681     30661     30660     30662
     30661     30660     30675     30662     30660     30675     30663     30659     30667
     30663     30659     30671     30664     30663     30665     30664     30663     30666
     30665     30663     30666     30667     30659     30671     30668     30667     30669
     30668     30667     30670     30669     30667     30670     30672     30671     30673
     30672     30671     30674     30673     30671     30674     30675     30681     30678
     30676     30675     30677     30676     30675     30681     30677     30675     30681
     30678     30682     30683     30679     30678     30680     30679     30678     30681
     30679     30678     30682     30680     30678     30681     30680     30678     30682
     30681     30678     30682     30682     30683     30684     30682     30683     30685
     30682     30683     30686     30683     30686     30687     30683     30686     30688
     30683     30686     30694     30684     30683     30685     30684     30683     30686
     30685     30683     30686     30686     30688     30689     30686     30694     30695
     30686     30694     30696     30686     30694     30697     30687     30686     30688
     30687     30686     30694     30688     30686     30694     30688     30689     30690
     30688     30689     30691     30689     30691     30692     30689     30691     30693
     30689     30691     30703     30690     30689     30691     30691     30703     30704
     30691     30703     30705     30691     30703     30706     30692     30691     30693
     30692     30691     30703     30693     30691     30703     30694     30697     30698
     30695     30694     30696     30695     30694     30697     30696     30694     30697
     30697     30698     30699     30697     30698     30700     30698     30700     30701
     30698     30700     30702     30698     30700     30750     30699     30698     30700
     30700     30750     30751     30700     30750     30752     30700     30750     30753
     30701     30700     30702     30701     30700     30750     30702     30700     30750
     30703     30706     30707     30703     30706     30708     30703     30706     30709
     30704     30703     30705     30704     30703     30706     30705     30703     30706
     30706     30709     30710     30706     30709     30711     30706     30709     30712
     30707     30706     30708     30707     30706     30709     30708     30706     30709
     30709     30712     30713     30709     30712     30714     30709     30712     30715
     30710     30709     30711     30710     30709     30712     30711     30709     30712
     30712     30715     30716     30712     30715     30717     30712     30715     30718
     30713     30712     30714     30713     30712     30715     30714     30712     30715
     30715     30718     30719     30715     30718     30720     30715     30718     30721
     30716     30715     30717     30716     30715     30718     30717     30715     30718
     30718     30721     30722     30718     30721     30723     30719     30718     30720
     30719     30718     30721     30720     30718     30721     30721     30723     30724
     30721     30723     30725     30722     30721     30723     30723     30725     30726
     30723     30725     30727     30723     30725     30728     30724     30723     30725
     30725     30728     30729     30725     30728     30730     30725     30728     30731
     30726     30725     30727     30726     30725     30728     30727     30725     30728
     30728     30731     30732     30728     30731     30733     30728     30731     30734
     30729     30728     30730     30729     30728     30731     30730     30728     30731
     30731     30734     30735     30731     30734     30736     30731     30734     30737
     30732     30731     30733     30732     30731     30734     30733     30731     30734
     30734     30737     30738     30734     30737     30739     30734     30737     30740
     30735     30734     30736     30735     30734     30737     30736     30734     30737
     30737     30740     30741     30737     30740     30742     30737     30740     30743
     30738     30737     30739     30738     30737     30740     30739     30737     30740
     30740     30743     30744     30740     30743     30745     30740     30743     30746
     30741     30740     30742     30741     30740     30743     30742     30740     30743
     30743     30746     30747     30743     30746     30748     30743     30746     30749
     30744     30743     30745     30744     30743     30746     30745     30743     30746
     30747     30746     30748     30747     30746     30749     30748     30746     30749
     30750     30753     30754     30750     30753     30755     30750     30753     30756
     30751     30750     30752     30751     30750     30753     30752     30750     30753
     30753     30756     30757     30753     30756     30758     30753     30756     30759
     30754     30753     30755     30754     30753     30756     30755     30753     30756
     30756     30759     30760     30756     30759     30761     30756     30759     30762
     30757     30756     30758     30757     30756     30759     30758     30756     30759
     30759     30762     30763     30759     30762     30764     30759     30762     30765
     30760     30759     30761     30760     30759     30762     30761     30759     30762
     30762     30765     30766     30762     30765     30767     30762     30765     30768
     30763     30762     30764     30763     30762     30765     30764     30762     30765
     30765     30768     30769     30765     30768     30770     30765     30768     30771
     30766     30765     30767     30766     30765     30768     30767     30765     30768
     30768     30771     30772     30768     30771     30773     30768     30771     30774
     30769     30768     30770     30769     30768     30771     30770     30768     30771
     30771     30774     30775     30771     30774     30776     30771     30774     30777
     30772     30771     30773     30772     30771     30774     30773     30771     30774
     30774     30777     30778     30774     30777     30779     30774     30777     30780
     30775     30774     30776     30775     30774     30777     30776     30774     30777
     30777     30780     30781     30777     30780     30782     30777     30780     30783
     30778     30777     30779     30778     30777     30780     30779     30777     30780
     30780     30783     30784     30780     30783     30785     30780     30783     30786
     30781     30780     30782     30781     30780     30783     30782     30780     30783
     30783     30786     30787     30783     30786     30788     30783     30786     30789
     30784     30783     30785     30784     30783     30786     30785     30783     30786
     30786     30789     30790     30786     30789     30791     30786     30789     30792
     30787     30786     30788     30787     30786     30789     30788     30786     30789
     30790     30789     30791     30790     30789     30792     30791     30789     30792
     30793     30794     30795     30793     30794     30796     30793     30794     30809
     30793     30797     30798     30793     30797     30799     30793     30797     30800
     30793     30801     30802     30793     30801     30803     30793     30801     30804
     30793     30805     30806     30793     30805     30807     30793     30805     30808
     30794     30793     30797     30794     30793     30801     30794     30793     30805
     30794     30809     30810     30794     30809     30811     30794     30809     30815
     30795     30794     30796     30795     30794     30809     30796     30794     30809
     30797     30793     30801     30797     30793     30805     30798     30797     30799
     30798     30797     30800     30799     30797     30800     30801     30793     30805
     30802     30801     30803     30802     30801     30804     30803     30801     30804
     30806     30805     30807     30806     30805     30808     30807     30805     30808
     30809     30815     30812     30810     30809     30811     30810     30809     30815
     30811     30809     30815     30812     30816     30817     30813     30812     30814
     30813     30812     30815     30813     30812     30816     30814     30812     30815
     30814     30812     30816     30815     30812     30816     30816     30817     30818
     30816     30817     30819     30816     30817     30820     30817     30820     30821
     30817     30820     30822     30817     30820     30828     30818     30817     30819
     30818     30817     30820     30819     30817     30820     30820     30822     30823
     30820     30828     30829     30820     30828     30830     30820     30828     30831
     30821     30820     30822     30821     30820     30828     30822     30820     30828
     30822     30823     30824     30822     30823     30825     30823     30825     30826
     30823     30825     30827     30823     30825     30837     30824     30823     30825
     30825     30837     30838     30825     30837     30839     30825     30837     30840
     30826     30825     30827     30826     30825     30837     30827     30825     30837
     30828     30831     30832     30829     30828     30830     30829     30828     30831
     30830     30828     30831     30831     30832     30833     30831     30832     30834
     30832     30834     30835     30832     30834     30836     30832     30834     30884
     30833     30832     30834     30834     30884     30885     30834     30884     30886
     30834     30884     30887     30835     30834     30836     30835     30834     30884
     30836     30834     30884     30837     30840     30841     30837     30840     30842
     30837     30840     30843     30838     30837     30839     30838     30837     30840
     30839     30837     30840     30840     30843     30844     30840     30843     30845
     30840     30843     30846     30841     30840     30842     30841     30840     30843
     30842     30840     30843     30843     30846     30847     30843     30846     30848
     30843     30846     30849     30844     30843     30845     30844     30843     30846
     30845     30843     30846     30846     30849     30850     30846     30849     30851
     30846     30849     30852     30847     30846     30848     30847     30846     30849
     30848     30846     30849     30849     30852     30853     30849     30852     30854
     30849     30852     30855     30850     30849     30851     30850     30849     30852
     30851     30849     30852     30852     30855     30856     30852     30855     30857
     30853     30852     30854     30853     30852     30855     30854     30852     30855
     30855     30857     30858     30855     30857     30859     30856     30855     30857
     30857     30859     30860     30857     30859     30861     30857     30859     30862
     30858     30857     30859     30859     30862     30863     30859     30862     30864
     30859     30862     30865     30860     30859     30861     30860     30859     30862
     30861     30859     30862     30862     30865     30866     30862     30865     30867
     30862     30865     30868     30863     30862     30864     30863     30862     30865
     30864     30862     30865     30865     30868     30869     30865     30868     30870
     30865     30868     30871     30866     30865     30867     30866     30865     30868
     30867     30865     30868     30868     30871     30872     30868     30871     30873
     30868     30871     30874     30869     30868     30870     30869     30868     30871
     30870     30868     30871     30871     30874     30875     30871     30874     30876
     30871     30874     30877     30872     30871     30873     30872     30871     30874
     30873     30871     30874     30874     30877     30878     30874     30877     30879
     30874     30877     30880     30875     30874     30876     30875     30874     30877
     30876     30874     30877     30877     30880     30881     30877     30880     30882
     30877     30880     30883     30878     30877     30879     30878     30877     30880
     30879     30877     30880     30881     30880     30882     30881     30880     30883
     30882     30880     30883     30884     30887     30888     30884     30887     30889
     30884     30887     30890     30885     30884     30886     30885     30884     30887
     30886     30884     30887     30887     30890     30891     30887     30890     30892
     30887     30890     30893     30888     30887     30889     30888     30887     30890
     30889     30887     30890     30890     30893     30894     30890     30893     30895
     30890     30893     30896     30891     30890     30892     30891     30890     30893
     30892     30890     30893     30893     30896     30897     30893     30896     30898
     30893     30896     30899     30894     30893     30895     30894     30893     30896
     30895     30893     30896     30896     30899     30900     30896     30899     30901
     30896     30899     30902     30897     30896     30898     30897     30896     30899
     30898     30896     30899     30899     30902     30903     30899     30902     30904
     30899     30902     30905     30900     30899     30901     30900     30899     30902
     30901     30899     30902     30902     30905     30906     30902     30905     30907
     30902     30905     30908     30903     30902     30904     30903     30902     30905
     30904     30902     30905     30905     30908     30909     30905     30908     30910
     30905     30908     30911     30906     30905     30907     30906     30905     30908
     30907     30905     30908     30908     30911     30912     30908     30911     30913
     30908     30911     30914     30909     30908     30910     30909     30908     30911
     30910     30908     30911     30911     30914     30915     30911     30914     30916
     30911     30914     30917     30912     30911     30913     30912     30911     30914
     30913     30911     30914     30914     30917     30918     30914     30917     30919
     30914     30917     30920     30915     30914     30916     30915     30914     30917
     30916     30914     30917     30917     30920     30921     30917     30920     30922
     30917     30920     30923     30918     30917     30919     30918     30917     30920
     30919     30917     30920     30920     30923     30924     30920     30923     30925
     30920     30923     30926     30921     30920     30922     30921     30920     30923
     30922     30920     30923     30924     30923     30925     30924     30923     30926
     30925     30923     30926     30927     30928     30929     30927     30928     30930
     30927     30928     30943     30927     30931     30932     30927     30931     30933
     30927     30931     30934     30927     30935     30936     30927     30935     30937
     30927     30935     30938     30927     30939     30940     30927     30939     30941
     30927     30939     30942     30928     30927     30931     30928     30927     30935
     30928     30927     30939     30928     30943     30944     30928     30943     30945
     30928     30943     30949     30929     30928     30930     30929     30928     30943
     30930     30928     30943     30931     30927     30935     30931     30927     30939
     30932     30931     30933     30932     30931     30934     30933     30931     30934
     30935     30927     30939     30936     30935     30937     30936     30935     30938
     30937     30935     30938     30940     30939     30941     30940     30939     30942
     30941     30939     30942     30943     30949     30946     30944     30943     30945
     30944     30943     30949     30945     30943     30949     30946     30950     30951
     30947     30946     30948     30947     30946     30949     30947     30946     30950
     30948     30946     30949     30948     30946     30950     30949     30946     30950
     30950     30951     30952     30950     30951     30953     30950     30951     30954
     30951     30954     30955     30951     30954     30956     30951     30954     30962
     30952     30951     30953     30952     30951     30954     30953     30951     30954
     30954     30956     30957     30954     30962     30963     30954     30962     30964
     30954     30962     30965     30955     30954     30956     30955     30954     30962
     30956     30954     30962     30956     30957     30958     30956     30957     30959
     30957     30959     30960     30957     30959     30961     30957     30959     30971
     30958     30957     30959     30959     30971     30972     30959     30971     30973
     30959     30971     30974     30960     30959     30961     30960     30959     30971
     30961     30959     30971     30962     30965     30966     30963     30962     30964
     30963     30962     30965     30964     30962     30965     30965     30966     30967
     30965     30966     30968     30966     30968     30969     30966     30968     30970
     30966     30968     31018     30967     30966     30968     30968     31018     31019
     30968     31018     31020     30968     31018     31021     30969     30968     30970
     30969     30968     31018     30970     30968     31018     30971     30974     30975
     30971     30974     30976     30971     30974     30977     30972     30971     30973
     30972     30971     30974     30973     30971     30974     30974     30977     30978
     30974     30977     30979     30974     30977     30980     30975     30974     30976
     30975     30974     30977     30976     30974     30977     30977     30980     30981
     30977     30980     30982     30977     30980     30983     30978     30977     30979
     30978     30977     30980     30979     30977     30980     30980     30983     30984
     30980     30983     30985     30980     30983     30986     30981     30980     30982
     30981     30980     30983     30982     30980     30983     30983     30986     30987
     30983     30986     30988     30983     30986     30989     30984     30983     30985
     30984     30983     30986     30985     30983     30986     30986     30989     30990
     30986     30989     30991     30987     30986     30988     30987     30986     30989
     30988     30986     30989     30989     30991     30992     30989     30991     30993
     30990     30989     30991     30991     30993     30994     30991     30993     30995
     30991     30993     30996     30992     30991     30993     30993     30996     30997
     30993     30996     30998     30993     30996     30999     30994     30993     30995
     30994     30993     30996     30995     30993     30996     30996     30999     31000
     30996     30999     31001     30996     30999     31002     30997     30996     30998
     30997     30996     30999     30998     30996     30999     30999     31002     31003
     30999     31002     31004     30999     31002     31005     31000     30999     31001
     31000     30999     31002     31001     30999     31002     31002     31005     31006
     31002     31005     31007     31002     31005     31008     31003     31002     31004
     31003     31002     31005     31004     31002     31005     31005     31008     31009
     31005     31008     31010     31005     31008     31011     31006     31005     31007
     31006     31005     31008     31007     31005     31008     31008     31011     31012
     31008     31011     31013     31008     31011     31014     31009     31008     31010
     31009     31008     31011     31010     31008     31011     31011     31014     31015
     31011     31014     31016     31011     31014     31017     31012     31011     31013
     31012     31011     31014     31013     31011     31014     31015     31014     31016
     31015     31014     31017     31016     31014     31017     31018     31021     31022
     31018     31021     31023     31018     31021     31024     31019     31018     31020
     31019     31018     31021     31020     31018     31021     31021     31024     31025
     31021     31024     31026     31021     31024     31027     31022     31021     31023
     31022     31021     31024     31023     31021     31024     31024     31027     31028
     31024     31027     31029     31024     31027     31030     31025     31024     31026
     31025     31024     31027     31026     31024     31027     31027     31030     31031
     31027     31030     31032     31027     31030     31033     31028     31027     31029
     31028     31027     31030     31029     31027     31030     31030     31033     31034
     31030     31033     31035     31030     31033     31036     31031     31030     31032
     31031     31030     31033     31032     31030     31033     31033     31036     31037
     31033     31036     31038     31033     31036     31039     31034     31033     31035
     31034     31033     31036     31035     31033     31036     31036     31039     31040
     31036     31039     31041     31036     31039     31042     31037     31036     31038
     31037     31036     31039     31038     31036     31039     31039     31042     31043
     31039     31042     31044     31039     31042     31045     31040     31039     31041
     31040     31039     31042     31041     31039     31042     31042     31045     31046
     31042     31045     31047     31042     31045     31048     31043     31042     31044
     31043     31042     31045     31044     31042     31045     31045     31048     31049
     31045     31048     31050     31045     31048     31051     31046     31045     31047
     31046     31045     31048     31047     31045     31048     31048     31051     31052
     31048     31051     31053     31048     31051     31054     31049     31048     31050
     31049     31048     31051     31050     31048     31051     31051     31054     31055
     31051     31054     31056     31051     31054     31057     31052     31051     31053
     31052     31051     31054     31053     31051     31054     31054     31057     31058
     31054     31057     31059     31054     31057     31060     31055     31054     31056
     31055     31054     31057     31056     31054     31057     31058     31057     31059
     31058     31057     31060     31059     31057     31060     31061     31062     31063
     31061     31062     31064     31061     31062     31077     31061     31065     31066
     31061     31065     31067     31061     31065     31068     31061     31069     31070
     31061     31069     31071     31061     31069     31072     31061     31073     31074
     31061     31073     31075     31061     31073     31076     31062     31061     31065
     31062     31061     31069     31062     31061     31073     31062     31077     31078
     31062     31077     31079     31062     31077     31083     31063     31062     31064
     31063     31062     31077     31064     31062     31077     31065     31061     31069
     31065     31061     31073     31066     31065     31067     31066     31065     31068
     31067     31065     31068     31069     31061     31073     31070     31069     31071
     31070     31069     31072     31071     31069     31072     31074     31073     31075
     31074     31073     31076     31075     31073     31076     31077     31083     31080
     31078     31077     31079     31078     31077     31083     31079     31077     31083
     31080     31084     31085     31081     31080     31082     31081     31080     31083
     31081     31080     31084     31082     31080     31083     31082     31080     31084
     31083     31080     31084     31084     31085     31086     31084     31085     31087
     31084     31085     31088     31085     31088     31089     31085     31088     31090
     31085     31088     31096     31086     31085     31087     31086     31085     31088
     31087     31085     31088     31088     31090     31091     31088     31096     31097
     31088     31096     31098     31088     31096     31099     31089     31088     31090
     31089     31088     31096     31090     31088     31096     31090     31091     31092
     31090     31091     31093     31091     31093     31094     31091     31093     31095
     31091     31093     31105     31092     31091     31093     31093     31105     31106
     31093     31105     31107     31093     31105     31108     31094     31093     31095
     31094     31093     31105     31095     31093     31105     31096     31099     31100
     31097     31096     31098     31097     31096     31099     31098     31096     31099
     31099     31100     31101     31099     31100     31102     31100     31102     31103
     31100     31102     31104     31100     31102     31152     31101     31100     31102
     31102     31152     31153     31102     31152     31154     31102     31152     31155
     31103     31102     31104     31103     31102     31152     31104     31102     31152
     31105     31108     31109     31105     31108     31110     31105     31108     31111
     31106     31105     31107     31106     31105     31108     31107     31105     31108
     31108     31111     31112     31108     31111     31113     31108     31111     31114
     31109     31108     31110     31109     31108     31111     31110     31108     31111
     31111     31114     31115     31111     31114     31116     31111     31114     31117
     31112     31111     31113     31112     31111     31114     31113     31111     31114
     31114     31117     31118     31114     31117     31119     31114     31117     31120
     31115     31114     31116     31115     31114     31117     31116     31114     31117
     31117     31120     31121     31117     31120     31122     31117     31120     31123
     31118     31117     31119     31118     31117     31120     31119     31117     31120
     31120     31123     31124     31120     31123     31125     31121     31120     31122
     31121     31120     31123     31122     31120     31123     31123     31125     31126
     31123     31125     31127     31124     31123     31125     31125     31127     31128
     31125     31127     31129     31125     31127     31130     31126     31125     31127
     31127     31130     31131     31127     31130     31132     31127     31130     31133
     31128     31127     31129     31128     31127     31130     31129     31127     31130
     31130     31133     31134     31130     31133     31135     31130     31133     31136
     31131     31130     31132     31131     31130     31133     31132     31130     31133
     31133     31136     31137     31133     31136     31138     31133     31136     31139
     31134     31133     31135     31134     31133     31136     31135     31133     31136
     31136     31139     31140     31136     31139     31141     31136     31139     31142
     31137     31136     31138     31137     31136     31139     31138     31136     31139
     31139     31142     31143     31139     31142     31144     31139     31142     31145
     31140     31139     31141     31140     31139     31142     31141     31139     31142
     31142     31145     31146     31142     31145     31147     31142     31145     31148
     31143     31142     31144     31143     31142     31145     31144     31142     31145
     31145     31148     31149     31145     31148     31150     31145     31148     31151
     31146     31145     31147     31146     31145     31148     31147     31145     31148
     31149     31148     31150     31149     31148     31151     31150     31148     31151
     31152     31155     31156     31152     31155     31157     31152     31155     31158
     31153     31152     31154     31153     31152     31155     31154     31152     31155
     31155     31158     31159     31155     31158     31160     31155     31158     31161
     31156     31155     31157     31156     31155     31158     31157     31155     31158
     31158     31161     31162     31158     31161     31163     31158     31161     31164
     31159     31158     31160     31159     31158     31161     31160     31158     31161
     31161     31164     31165     31161     31164     31166     31161     31164     31167
     31162     31161     31163     31162     31161     31164     31163     31161     31164
     31164     31167     31168     31164     31167     31169     31164     31167     31170
     31165     31164     31166     31165     31164     31167     31166     31164     31167
     31167     31170     31171     31167     31170     31172     31167     31170     31173
     31168     31167     31169     31168     31167     31170     31169     31167     31170
     31170     31173     31174     31170     31173     31175     31170     31173     31176
     31171     31170     31172     31171     31170     31173     31172     31170     31173
     31173     31176     31177     31173     31176     31178     31173     31176     31179
     31174     31173     31175     31174     31173     31176     31175     31173     31176
     31176     31179     31180     31176     31179     31181     31176     31179     31182
     31177     31176     31178     31177     31176     31179     31178     31176     31179
     31179     31182     31183     31179     31182     31184     31179     31182     31185
     31180     31179     31181     31180     31179     31182     31181     31179     31182
     31182     31185     31186     31182     31185     31187     31182     31185     31188
     31183     31182     31184     31183     31182     31185     31184     31182     31185
     31185     31188     31189     31185     31188     31190     31185     31188     31191
     31186     31185     31187     31186     31185     31188     31187     31185     31188
     31188     31191     31192     31188     31191     31193     31188     31191     31194
     31189     31188     31190     31189     31188     31191     31190     31188     31191
     31192     31191     31193     31192     31191     31194     31193     31191     31194
     31195     31196     31197     31195     31196     31198     31195     31196     31211
     31195     31199     31200     31195     31199     31201     31195     31199     31202
     31195     31203     31204     31195     31203     31205     31195     31203     31206
     31195     31207     31208     31195     31207     31209     31195     31207     31210
     31196     31195     31199     31196     31195     31203     31196     31195     31207
     31196     31211     31212     31196     31211     31213     31196     31211     31217
     31197     31196     31198     31197     31196     31211     31198     31196     31211
     31199     31195     31203     31199     31195     31207     31200     31199     31201
     31200     31199     31202     31201     31199     31202     31203     31195     31207
     31204     31203     31205     31204     31203     31206     31205     31203     31206
     31208     31207     31209     31208     31207     31210     31209     31207     31210
     31211     31217     31214     31212     31211     31213     31212     31211     31217
     31213     31211     31217     31214     31218     31219     31215     31214     31216
     31215     31214     31217     31215     31214     31218     31216     31214     31217
     31216     31214     31218     31217     31214     31218     31218     31219     31220
     31218     31219     31221     31218     31219     31222     31219     31222     31223
     31219     31222     31224     31219     31222     31230     31220     31219     31221
     31220     31219     31222     31221     31219     31222     31222     31224     31225
     31222     31230     31231     31222     31230     31232     31222     31230     31233
     31223     31222     31224     31223     31222     31230     31224     31222     31230
     31224     31225     31226     31224     31225     31227     31225     31227     31228
     31225     31227     31229     31225     31227     31239     31226     31225     31227
     31227     31239     31240     31227     31239     31241     31227     31239     31242
     31228     31227     31229     31228     31227     31239     31229     31227     31239
     31230     31233     31234     31231     31230     31232     31231     31230     31233
     31232     31230     31233     31233     31234     31235     31233     31234     31236
     31234     31236     31237     31234     31236     31238     31234     31236     31286
     31235     31234     31236     31236     31286     31287     31236     31286     31288
     31236     31286     31289     31237     31236     31238     31237     31236     31286
     31238     31236     31286     31239     31242     31243     31239     31242     31244
     31239     31242     31245     31240     31239     31241     31240     31239     31242
     31241     31239     31242     31242     31245     31246     31242     31245     31247
     31242     31245     31248     31243     31242     31244     31243     31242     31245
     31244     31242     31245     31245     31248     31249     31245     31248     31250
     31245     31248     31251     31246     31245     31247     31246     31245     31248
     31247     31245     31248     31248     31251     31252     31248     31251     31253
     31248     31251     31254     31249     31248     31250     31249     31248     31251
     31250     31248     31251     31251     31254     31255     31251     31254     31256
     31251     31254     31257     31252     31251     31253     31252     31251     31254
     31253     31251     31254     31254     31257     31258     31254     31257     31259
     31255     31254     31256     31255     31254     31257     31256     31254     31257
     31257     31259     31260     31257     31259     31261     31258     31257     31259
     31259     31261     31262     31259     31261     31263     31259     31261     31264
     31260     31259     31261     31261     31264     31265     31261     31264     31266
     31261     31264     31267     31262     31261     31263     31262     31261     31264
     31263     31261     31264     31264     31267     31268     31264     31267     31269
     31264     31267     31270     31265     31264     31266     31265     31264     31267
     31266     31264     31267     31267     31270     31271     31267     31270     31272
     31267     31270     31273     31268     31267     31269     31268     31267     31270
     31269     31267     31270     31270     31273     31274     31270     31273     31275
     31270     31273     31276     31271     31270     31272     31271     31270     31273
     31272     31270     31273     31273     31276     31277     31273     31276     31278
     31273     31276     31279     31274     31273     31275     31274     31273     31276
     31275     31273     31276     31276     31279     31280     31276     31279     31281
     31276     31279     31282     31277     31276     31278     31277     31276     31279
     31278     31276     31279     31279     31282     31283     31279     31282     31284
     31279     31282     31285     31280     31279     31281     31280     31279     31282
     31281     31279     31282     31283     31282     31284     31283     31282     31285
     31284     31282     31285     31286     31289     31290     31286     31289     31291
     31286     31289     31292     31287     31286     31288     31287     31286     31289
     31288     31286     31289     31289     31292     31293     31289     31292     31294
     31289     31292     31295     31290     31289     31291     31290     31289     31292
     31291     31289     31292     31292     31295     31296     31292     31295     31297
     31292     31295     31298     31293     31292     31294     31293     31292     31295
     31294     31292     31295     31295     31298     31299     31295     31298     31300
     31295     31298     31301     31296     31295     31297     31296     31295     31298
     31297     31295     31298     31298     31301     31302     31298     31301     31303
     31298     31301     31304     31299     31298     31300     31299     31298     31301
     31300     31298     31301     31301     31304     31305     31301     31304     31306
     31301     31304     31307     31302     31301     31303     31302     31301     31304
     31303     31301     31304     31304     31307     31308     31304     31307     31309
     31304     31307     31310     31305     31304     31306     31305     31304     31307
     31306     31304     31307     31307     31310     31311     31307     31310     31312
     31307     31310     31313     31308     31307     31309     31308     31307     31310
     31309     31307     31310     31310     31313     31314     31310     31313     31315
     31310     31313     31316     31311     31310     31312     31311     31310     31313
     31312     31310     31313     31313     31316     31317     31313     31316     31318
     31313     31316     31319     31314     31313     31315     31314     31313     31316
     31315     31313     31316     31316     31319     31320     31316     31319     31321
     31316     31319     31322     31317     31316     31318     31317     31316     31319
     31318     31316     31319     31319     31322     31323     31319     31322     31324
     31319     31322     31325     31320     31319     31321     31320     31319     31322
     31321     31319     31322     31322     31325     31326     31322     31325     31327
     31322     31325     31328     31323     31322     31324     31323     31322     31325
     31324     31322     31325     31326     31325     31327     31326     31325     31328
     31327     31325     31328     31329     31330     31331     31329     31330     31332
     31329     31330     31345     31329     31333     31334     31329     31333     31335
     31329     31333     31336     31329     31337     31338     31329     31337     31339
     31329     31337     31340     31329     31341     31342     31329     31341     31343
     31329     31341     31344     31330     31329     31333     31330     31329     31337
     31330     31329     31341     31330     31345     31346     31330     31345     31347
     31330     31345     31351     31331     31330     31332     31331     31330     31345
     31332     31330     31345     31333     31329     31337     31333     31329     31341
     31334     31333     31335     31334     31333     31336     31335     31333     31336
     31337     31329     31341     31338     31337     31339     31338     31337     31340
     31339     31337     31340     31342     31341     31343     31342     31341     31344
     31343     31341     31344     31345     31351     31348     31346     31345     31347
     31346     31345     31351     31347     31345     31351     31348     31352     31353
     31349     31348     31350     31349     31348     31351     31349     31348     31352
     31350     31348     31351     31350     31348     31352     31351     31348     31352
     31352     31353     31354     31352     31353     31355     31352     31353     31356
     31353     31356     31357     31353     31356     31358     31353     31356     31364
     31354     31353     31355     31354     31353     31356     31355     31353     31356
     31356     31358     31359     31356     31364     31365     31356     31364     31366
     31356     31364     31367     31357     31356     31358     31357     31356     31364
     31358     31356     31364     31358     31359     31360     31358     31359     31361
     31359     31361     31362     31359     31361     31363     31359     31361     31373
     31360     31359     31361     31361     31373     31374     31361     31373     31375
     31361     31373     31376     31362     31361     31363     31362     31361     31373
     31363     31361     31373     31364     31367     31368     31365     31364     31366
     31365     31364     31367     31366     31364     31367     31367     31368     31369
     31367     31368     31370     31368     31370     31371     31368     31370     31372
     31368     31370     31420     31369     31368     31370     31370     31420     31421
     31370     31420     31422     31370     31420     31423     31371     31370     31372
     31371     31370     31420     31372     31370     31420     31373     31376     31377
     31373     31376     31378     31373     31376     31379     31374     31373     31375
     31374     31373     31376     31375     31373     31376     31376     31379     31380
     31376     31379     31381     31376     31379     31382     31377     31376     31378
     31377     31376     31379     31378     31376     31379     31379     31382     31383
     31379     31382     31384     31379     31382     31385     31380     31379     31381
     31380     31379     31382     31381     31379     31382     31382     31385     31386
     31382     31385     31387     31382     31385     31388     31383     31382     31384
     31383     31382     31385     31384     31382     31385     31385     31388     31389
     31385     31388     31390     31385     31388     31391     31386     31385     31387
     31386     31385     31388     31387     31385     31388     31388     31391     31392
     31388     31391     31393     31389     31388     31390     31389     31388     31391
     31390     31388     31391     31391     31393     31394     31391     31393     31395
     31392     31391     31393     31393     31395     31396     31393     31395     31397
     31393     31395     31398     31394     31393     31395     31395     31398     31399
     31395     31398     31400     31395     31398     31401     31396     31395     31397
     31396     31395     31398     31397     31395     31398     31398     31401     31402
     31398     31401     31403     31398     31401     31404     31399     31398     31400
     31399     31398     31401     31400     31398     31401     31401     31404     31405
     31401     31404     31406     31401     31404     31407     31402     31401     31403
     31402     31401     31404     31403     31401     31404     31404     31407     31408
     31404     31407     31409     31404     31407     31410     31405     31404     31406
     31405     31404     31407     31406     31404     31407     31407     31410     31411
     31407     31410     31412     31407     31410     31413     31408     31407     31409
     31408     31407     31410     31409     31407     31410     31410     31413     31414
     31410     31413     31415     31410     31413     31416     31411     31410     31412
     31411     31410     31413     31412     31410     31413     31413     31416     31417
     31413     31416     31418     31413     31416     31419     31414     31413     31415
     31414     31413     31416     31415     31413     31416     31417     31416     31418
     31417     31416     31419     31418     31416     31419     31420     31423     31424
     31420     31423     31425     31420     31423     31426     31421     31420     31422
     31421     31420     31423     31422     31420     31423     31423     31426     31427
     31423     31426     31428     31423     31426     31429     31424     31423     31425
     31424     31423     31426     31425     31423     31426     31426     31429     31430
     31426     31429     31431     31426     31429     31432     31427     31426     31428
     31427     31426     31429     31428     31426     31429     31429     31432     31433
     31429     31432     31434     31429     31432     31435     31430     31429     31431
     31430     31429     31432     31431     31429     31432     31432     31435     31436
     31432     31435     31437     31432     31435     31438     31433     31432     31434
     31433     31432     31435     31434     31432     31435     31435     31438     31439
     31435     31438     31440     31435     31438     31441     31436     31435     31437
     31436     31435     31438     31437     31435     31438     31438     31441     31442
     31438     31441     31443     31438     31441     31444     31439     31438     31440
     31439     31438     31441     31440     31438     31441     31441     31444     31445
     31441     31444     31446     31441     31444     31447     31442     31441     31443
     31442     31441     31444     31443     31441     31444     31444     31447     31448
     31444     31447     31449     31444     31447     31450     31445     31444     31446
     31445     31444     31447     31446     31444     31447     31447     31450     31451
     31447     31450     31452     31447     31450     31453     31448     31447     31449
     31448     31447     31450     31449     31447     31450     31450     31453     31454
     31450     31453     31455     31450     31453     31456     31451     31450     31452
     31451     31450     31453     31452     31450     31453     31453     31456     31457
     31453     31456     31458     31453     31456     31459     31454     31453     31455
     31454     31453     31456     31455     31453     31456     31456     31459     31460
     31456     31459     31461     31456     31459     31462     31457     31456     31458
     31457     31456     31459     31458     31456     31459     31460     31459     31461
     31460     31459     31462     31461     31459     31462     31463     31464     31465
     31463     31464     31466     31463     31464     31479     31463     31467     31468
     31463     31467     31469     31463     31467     31470     31463     31471     31472
     31463     31471     31473     31463     31471     31474     31463     31475     31476
     31463     31475     31477     31463     31475     31478     31464     31463     31467
     31464     31463     31471     31464     31463     31475     31464     31479     31480
     31464     31479     31481     31464     31479     31485     31465     31464     31466
     31465     31464     31479     31466     31464     31479     31467     31463     31471
     31467     31463     31475     31468     31467     31469     31468     31467     31470
     31469     31467     31470     31471     31463     31475     31472     31471     31473
     31472     31471     31474     31473     31471     31474     31476     31475     31477
     31476     31475     31478     31477     31475     31478     31479     31485     31482
     31480     31479     31481     31480     31479     31485     31481     31479     31485
     31482     31486     31487     31483     31482     31484     31483     31482     31485
     31483     31482     31486     31484     31482     31485     31484     31482     31486
     31485     31482     31486     31486     31487     31488     31486     31487     31489
     31486     31487     31490     31487     31490     31491     31487     31490     31492
     31487     31490     31498     31488     31487     31489     31488     31487     31490
     31489     31487     31490     31490     31492     31493     31490     31498     31499
     31490     31498     31500     31490     31498     31501     31491     31490     31492
     31491     31490     31498     31492     31490     31498     31492     31493     31494
     31492     31493     31495     31493     31495     31496     31493     31495     31497
     31493     31495     31507     31494     31493     31495     31495     31507     31508
     31495     31507     31509     31495     31507     31510     31496     31495     31497
     31496     31495     31507     31497     31495     31507     31498     31501     31502
     31499     31498     31500     31499     31498     31501     31500     31498     31501
     31501     31502     31503     31501     31502     31504     31502     31504     31505
     31502     31504     31506     31502     31504     31554     31503     31502     31504
     31504     31554     31555     31504     31554     31556     31504     31554     31557
     31505     31504     31506     31505     31504     31554     31506     31504     31554
     31507     31510     31511     31507     31510     31512     31507     31510     31513
     31508     31507     31509     31508     31507     31510     31509     31507     31510
     31510     31513     31514     31510     31513     31515     31510     31513     31516
     31511     31510     31512     31511     31510     31513     31512     31510     31513
     31513     31516     31517     31513     31516     31518     31513     31516     31519
     31514     31513     31515     31514     31513     31516     31515     31513     31516
     31516     31519     31520     31516     31519     31521     31516     31519     31522
     31517     31516     31518     31517     31516     31519     31518     31516     31519
     31519     31522     31523     31519     31522     31524     31519     31522     31525
     31520     31519     31521     31520     31519     31522     31521     31519     31522
     31522     31525     31526     31522     31525     31527     31523     31522     31524
     31523     31522     31525     31524     31522     31525     31525     31527     31528
     31525     31527     31529     31526     31525     31527     31527     31529     31530
     31527     31529     31531     31527     31529     31532     31528     31527     31529
     31529     31532     31533     31529     31532     31534     31529     31532     31535
     31530     31529     31531     31530     31529     31532     31531     31529     31532
     31532     31535     31536     31532     31535     31537     31532     31535     31538
     31533     31532     31534     31533     31532     31535     31534     31532     31535
     31535     31538     31539     31535     31538     31540     31535     31538     31541
     31536     31535     31537     31536     31535     31538     31537     31535     31538
     31538     31541     31542     31538     31541     31543     31538     31541     31544
     31539     31538     31540     31539     31538     31541     31540     31538     31541
     31541     31544     31545     31541     31544     31546     31541     31544     31547
     31542     31541     31543     31542     31541     31544     31543     31541     31544
     31544     31547     31548     31544     31547     31549     31544     31547     31550
     31545     31544     31546     31545     31544     31547     31546     31544     31547
     31547     31550     31551     31547     31550     31552     31547     31550     31553
     31548     31547     31549     31548     31547     31550     31549     31547     31550
     31551     31550     31552     31551     31550     31553     31552     31550     31553
     31554     31557     31558     31554     31557     31559     31554     31557     31560
     31555     31554     31556     31555     31554     31557     31556     31554     31557
     31557     31560     31561     31557     31560     31562     31557     31560     31563
     31558     31557     31559     31558     31557     31560     31559     31557     31560
     31560     31563     31564     31560     31563     31565     31560     31563     31566
     31561     31560     31562     31561     31560     31563     31562     31560     31563
     31563     31566     31567     31563     31566     31568     31563     31566     31569
     31564     31563     31565     31564     31563     31566     31565     31563     31566
     31566     31569     31570     31566     31569     31571     31566     31569     31572
     31567     31566     31568     31567     31566     31569     31568     31566     31569
     31569     31572     31573     31569     31572     31574     31569     31572     31575
     31570     31569     31571     31570     31569     31572     31571     31569     31572
     31572     31575     31576     31572     31575     31577     31572     31575     31578
     31573     31572     31574     31573     31572     31575     31574     31572     31575
     31575     31578     31579     31575     31578     31580     31575     31578     31581
     31576     31575     31577     31576     31575     31578     31577     31575     31578
     31578     31581     31582     31578     31581     31583     31578     31581     31584
     31579     31578     31580     31579     31578     31581     31580     31578     31581
     31581     31584     31585     31581     31584     31586     31581     31584     31587
     31582     31581     31583     31582     31581     31584     31583     31581     31584
     31584     31587     31588     31584     31587     31589     31584     31587     31590
     31585     31584     31586     31585     31584     31587     31586     31584     31587
     31587     31590     31591     31587     31590     31592     31587     31590     31593
     31588     31587     31589     31588     31587     31590     31589     31587     31590
     31590     31593     31594     31590     31593     31595     31590     31593     31596
     31591     31590     31592     31591     31590     31593     31592     31590     31593
     31594     31593     31595     31594     31593     31596     31595     31593     31596
     31597     31598     31599     31597     31598     31600     31597     31598     31613
     31597     31601     31602     31597     31601     31603     31597     31601     31604
     31597     31605     31606     31597     31605     31607     31597     31605     31608
     31597     31609     31610     31597     31609     31611     31597     31609     31612
     31598     31597     31601     31598     31597     31605     31598     31597     31609
     31598     31613     31614     31598     31613     31615     31598     31613     31619
     31599     31598     31600     31599     31598     31613     31600     31598     31613
     31601     31597     31605     31601     31597     31609     31602     31601     31603
     31602     31601     31604     31603     31601     31604     31605     31597     31609
     31606     31605     31607     31606     31605     31608     31607     31605     31608
     31610     31609     31611     31610     31609     31612     31611     31609     31612
     31613     31619     31616     31614     31613     31615     31614     31613     31619
     31615     31613     31619     31616     31620     31621     31617     31616     31618
     31617     31616     31619     31617     31616     31620     31618     31616     31619
     31618     31616     31620     31619     31616     31620     31620     31621     31622
     31620     31621     31623     31620     31621     31624     31621     31624     31625
     31621     31624     31626     31621     31624     31632     31622     31621     31623
     31622     31621     31624     31623     31621     31624     31624     31626     31627
     31624     31632     31633     31624     31632     31634     31624     31632     31635
     31625     31624     31626     31625     31624     31632     31626     31624     31632
     31626     31627     31628     31626     31627     31629     31627     31629     31630
     31627     31629     31631     31627     31629     31641     31628     31627     31629
     31629     31641     31642     31629     31641     31643     31629     31641     31644
     31630     31629     31631     31630     31629     31641     31631     31629     31641
     31632     31635     31636     31633     31632     31634     31633     31632     31635
     31634     31632     31635     31635     31636     31637     31635     31636     31638
     31636     31638     31639     31636     31638     31640     31636     31638     31688
     31637     31636     31638     31638     31688     31689     31638     31688     31690
     31638     31688     31691     31639     31638     31640     31639     31638     31688
     31640     31638     31688     31641     31644     31645     31641     31644     31646
     31641     31644     31647     31642     31641     31643     31642     31641     31644
     31643     31641     31644     31644     31647     31648     31644     31647     31649
     31644     31647     31650     31645     31644     31646     31645     31644     31647
     31646     31644     31647     31647     31650     31651     31647     31650     31652
     31647     31650     31653     31648     31647     31649     31648     31647     31650
     31649     31647     31650     31650     31653     31654     31650     31653     31655
     31650     31653     31656     31651     31650     31652     31651     31650     31653
     31652     31650     31653     31653     31656     31657     31653     31656     31658
     31653     31656     31659     31654     31653     31655     31654     31653     31656
     31655     31653     31656     31656     31659     31660     31656     31659     31661
     31657     31656     31658     31657     31656     31659     31658     31656     31659
     31659     31661     31662     31659     31661     31663     31660     31659     31661
     31661     31663     31664     31661     31663     31665     31661     31663     31666
     31662     31661     31663     31663     31666     31667     31663     31666     31668
     31663     31666     31669     31664     31663     31665     31664     31663     31666
     31665     31663     31666     31666     31669     31670     31666     31669     31671
     31666     31669     31672     31667     31666     31668     31667     31666     31669
     31668     31666     31669     31669     31672     31673     31669     31672     31674
     31669     31672     31675     31670     31669     31671     31670     31669     31672
     31671     31669     31672     31672     31675     31676     31672     31675     31677
     31672     31675     31678     31673     31672     31674     31673     31672     31675
     31674     31672     31675     31675     31678     31679     31675     31678     31680
     31675     31678     31681     31676     31675     31677     31676     31675     31678
     31677     31675     31678     31678     31681     31682     31678     31681     31683
     31678     31681     31684     31679     31678     31680     31679     31678     31681
     31680     31678     31681     31681     31684     31685     31681     31684     31686
     31681     31684     31687     31682     31681     31683     31682     31681     31684
     31683     31681     31684     31685     31684     31686     31685     31684     31687
     31686     31684     31687     31688     31691     31692     31688     31691     31693
     31688     31691     31694     31689     31688     31690     31689     31688     31691
     31690     31688     31691     31691     31694     31695     31691     31694     31696
     31691     31694     31697     31692     31691     31693     31692     31691     31694
     31693     31691     31694     31694     31697     31698     31694     31697     31699
     31694     31697     31700     31695     31694     31696     31695     31694     31697
     31696     31694     31697     31697     31700     31701     31697     31700     31702
     31697     31700     31703     31698     31697     31699     31698     31697     31700
     31699     31697     31700     31700     31703     31704     31700     31703     31705
     31700     31703     31706     31701     31700     31702     31701     31700     31703
     31702     31700     31703     31703     31706     31707     31703     31706     31708
     31703     31706     31709     31704     31703     31705     31704     31703     31706
     31705     31703     31706     31706     31709     31710     31706     31709     31711
     31706     31709     31712     31707     31706     31708     31707     31706     31709
     31708     31706     31709     31709     31712     31713     31709     31712     31714
     31709     31712     31715     31710     31709     31711     31710     31709     31712
     31711     31709     31712     31712     31715     31716     31712     31715     31717
     31712     31715     31718     31713     31712     31714     31713     31712     31715
     31714     31712     31715     31715     31718     31719     31715     31718     31720
     31715     31718     31721     31716     31715     31717     31716     31715     31718
     31717     31715     31718     31718     31721     31722     31718     31721     31723
     31718     31721     31724     31719     31718     31720     31719     31718     31721
     31720     31718     31721     31721     31724     31725     31721     31724     31726
     31721     31724     31727     31722     31721     31723     31722     31721     31724
     31723     31721     31724     31724     31727     31728     31724     31727     31729
     31724     31727     31730     31725     31724     31726     31725     31724     31727
     31726     31724     31727     31728     31727     31729     31728     31727     31730
     31729     31727     31730     31731     31732     31733     31731     31732     31734
     31731     31732     31747     31731     31735     31736     31731     31735     31737
     31731     31735     31738     31731     31739     31740     31731     31739     31741
     31731     31739     31742     31731     31743     31744     31731     31743     31745
     31731     31743     31746     31732     31731     31735     31732     31731     31739
     31732     31731     31743     31732     31747     31748     31732     31747     31749
     31732     31747     31753     31733     31732     31734     31733     31732     31747
     31734     31732     31747     31735     31731     31739     31735     31731     31743
     31736     31735     31737     31736     31735     31738     31737     31735     31738
     31739     31731     31743     31740     31739     31741     31740     31739     31742
     31741     31739     31742     31744     31743     31745     31744     31743     31746
     31745     31743     31746     31747     31753     31750     31748     31747     31749
     31748     31747     31753     31749     31747     31753     31750     31754     31755
     31751     31750     31752     31751     31750     31753     31751     31750     31754
     31752     31750     31753     31752     31750     31754     31753     31750     31754
     31754     31755     31756     31754     31755     31757     31754     31755     31758
     31755     31758     31759     31755     31758     31760     31755     31758     31766
     31756     31755     31757     31756     31755     31758     31757     31755     31758
     31758     31760     31761     31758     31766     31767     31758     31766     31768
     31758     31766     31769     31759     31758     31760     31759     31758     31766
     31760     31758     31766     31760     31761     31762     31760     31761     31763
     31761     31763     31764     31761     31763     31765     31761     31763     31775
     31762     31761     31763     31763     31775     31776     31763     31775     31777
     31763     31775     31778     31764     31763     31765     31764     31763     31775
     31765     31763     31775     31766     31769     31770     31767     31766     31768
     31767     31766     31769     31768     31766     31769     31769     31770     31771
     31769     31770     31772     31770     31772     31773     31770     31772     31774
     31770     31772     31822     31771     31770     31772     31772     31822     31823
     31772     31822     31824     31772     31822     31825     31773     31772     31774
     31773     31772     31822     31774     31772     31822     31775     31778     31779
     31775     31778     31780     31775     31778     31781     31776     31775     31777
     31776     31775     31778     31777     31775     31778     31778     31781     31782
     31778     31781     31783     31778     31781     31784     31779     31778     31780
     31779     31778     31781     31780     31778     31781     31781     31784     31785
     31781     31784     31786     31781     31784     31787     31782     31781     31783
     31782     31781     31784     31783     31781     31784     31784     31787     31788
     31784     31787     31789     31784     31787     31790     31785     31784     31786
     31785     31784     31787     31786     31784     31787     31787     31790     31791
     31787     31790     31792     31787     31790     31793     31788     31787     31789
     31788     31787     31790     31789     31787     31790     31790     31793     31794
     31790     31793     31795     31791     31790     31792     31791     31790     31793
     31792     31790     31793     31793     31795     31796     31793     31795     31797
     31794     31793     31795     31795     31797     31798     31795     31797     31799
     31795     31797     31800     31796     31795     31797     31797     31800     31801
     31797     31800     31802     31797     31800     31803     31798     31797     31799
     31798     31797     31800     31799     31797     31800     31800     31803     31804
     31800     31803     31805     31800     31803     31806     31801     31800     31802
     31801     31800     31803     31802     31800     31803     31803     31806     31807
     31803     31806     31808     31803     31806     31809     31804     31803     31805
     31804     31803     31806     31805     31803     31806     31806     31809     31810
     31806     31809     31811     31806     31809     31812     31807     31806     31808
     31807     31806     31809     31808     31806     31809     31809     31812     31813
     31809     31812     31814     31809     31812     31815     31810     31809     31811
     31810     31809     31812     31811     31809     31812     31812     31815     31816
     31812     31815     31817     31812     31815     31818     31813     31812     31814
     31813     31812     31815     31814     31812     31815     31815     31818     31819
     31815     31818     31820     31815     31818     31821     31816     31815     31817
     31816     31815     31818     31817     31815     31818     31819     31818     31820
     31819     31818     31821     31820     31818     31821     31822     31825     31826
     31822     31825     31827     31822     31825     31828     31823     31822     31824
     31823     31822     31825     31824     31822     31825     31825     31828     31829
     31825     31828     31830     31825     31828     31831     31826     31825     31827
     31826     31825     31828     31827     31825     31828     31828     31831     31832
     31828     31831     31833     31828     31831     31834     31829     31828     31830
     31829     31828     31831     31830     31828     31831     31831     31834     31835
     31831     31834     31836     31831     31834     31837     31832     31831     31833
     31832     31831     31834     31833     31831     31834     31834     31837     31838
     31834     31837     31839     31834     31837     31840     31835     31834     31836
     31835     31834     31837     31836     31834     31837     31837     31840     31841
     31837     31840     31842     31837     31840     31843     31838     31837     31839
     31838     31837     31840     31839     31837     31840     31840     31843     31844
     31840     31843     31845     31840     31843     31846     31841     31840     31842
     31841     31840     31843     31842     31840     31843     31843     31846     31847
     31843     31846     31848     31843     31846     31849     31844     31843     31845
     31844     31843     31846     31845     31843     31846     31846     31849     31850
     31846     31849     31851     31846     31849     31852     31847     31846     31848
     31847     31846     31849     31848     31846     31849     31849     31852     31853
     31849     31852     31854     31849     31852     31855     31850     31849     31851
     31850     31849     31852     31851     31849     31852     31852     31855     31856
     31852     31855     31857     31852     31855     31858     31853     31852     31854
     31853     31852     31855     31854     31852     31855     31855     31858     31859
     31855     31858     31860     31855     31858     31861     31856     31855     31857
     31856     31855     31858     31857     31855     31858     31858     31861     31862
     31858     31861     31863     31858     31861     31864     31859     31858     31860
     31859     31858     31861     31860     31858     31861     31862     31861     31863
     31862     31861     31864     31863     31861     31864     31865     31866     31867
     31865     31866     31868     31865     31866     31881     31865     31869     31870
     31865     31869     31871     31865     31869     31872     31865     31873     31874
     31865     31873     31875     31865     31873     31876     31865     31877     31878
     31865     31877     31879     31865     31877     31880     31866     31865     31869
     31866     31865     31873     31866     31865     31877     31866     31881     31882
     31866     31881     31883     31866     31881     31887     31867     31866     31868
     31867     31866     31881     31868     31866     31881     31869     31865     31873
     31869     31865     31877     31870     31869     31871     31870     31869     31872
     31871     31869     31872     31873     31865     31877     31874     31873     31875
     31874     31873     31876     31875     31873     31876     31878     31877     31879
     31878     31877     31880     31879     31877     31880     31881     31887     31884
     31882     31881     31883     31882     31881     31887     31883     31881     31887
     31884     31888     31889     31885     31884     31886     31885     31884     31887
     31885     31884     31888     31886     31884     31887     31886     31884     31888
     31887     31884     31888     31888     31889     31890     31888     31889     31891
     31888     31889     31892     31889     31892     31893     31889     31892     31894
     31889     31892     31900     31890     31889     31891     31890     31889     31892
     31891     31889     31892     31892     31894     31895     31892     31900     31901
     31892     31900     31902     31892     31900     31903     31893     31892     31894
     31893     31892     31900     31894     31892     31900     31894     31895     31896
     31894     31895     31897     31895     31897     31898     31895     31897     31899
     31895     31897     31909     31896     31895     31897     31897     31909     31910
     31897     31909     31911     31897     31909     31912     31898     31897     31899
     31898     31897     31909     31899     31897     31909     31900     31903     31904
     31901     31900     31902     31901     31900     31903     31902     31900     31903
     31903     31904     31905     31903     31904     31906     31904     31906     31907
     31904     31906     31908     31904     31906     31956     31905     31904     31906
     31906     31956     31957     31906     31956     31958     31906     31956     31959
     31907     31906     31908     31907     31906     31956     31908     31906     31956
     31909     31912     31913     31909     31912     31914     31909     31912     31915
     31910     31909     31911     31910     31909     31912     31911     31909     31912
     31912     31915     31916     31912     31915     31917     31912     31915     31918
     31913     31912     31914     31913     31912     31915     31914     31912     31915
     31915     31918     31919     31915     31918     31920     31915     31918     31921
     31916     31915     31917     31916     31915     31918     31917     31915     31918
     31918     31921     31922     31918     31921     31923     31918     31921     31924
     31919     31918     31920     31919     31918     31921     31920     31918     31921
     31921     31924     31925     31921     31924     31926     31921     31924     31927
     31922     31921     31923     31922     31921     31924     31923     31921     31924
     31924     31927     31928     31924     31927     31929     31925     31924     31926
     31925     31924     31927     31926     31924     31927     31927     31929     31930
     31927     31929     31931     31928     31927     31929     31929     31931     31932
     31929     31931     31933     31929     31931     31934     31930     31929     31931
     31931     31934     31935     31931     31934     31936     31931     31934     31937
     31932     31931     31933     31932     31931     31934     31933     31931     31934
     31934     31937     31938     31934     31937     31939     31934     31937     31940
     31935     31934     31936     31935     31934     31937     31936     31934     31937
     31937     31940     31941     31937     31940     31942     31937     31940     31943
     31938     31937     31939     31938     31937     31940     31939     31937     31940
     31940     31943     31944     31940     31943     31945     31940     31943     31946
     31941     31940     31942     31941     31940     31943     31942     31940     31943
     31943     31946     31947     31943     31946     31948     31943     31946     31949
     31944     31943     31945     31944     31943     31946     31945     31943     31946
     31946     31949     31950     31946     31949     31951     31946     31949     31952
     31947     31946     31948     31947     31946     31949     31948     31946     31949
     31949     31952     31953     31949     31952     31954     31949     31952     31955
     31950     31949     31951     31950     31949     31952     31951     31949     31952
     31953     31952     31954     31953     31952     31955     31954     31952     31955
     31956     31959     31960     31956     31959     31961     31956     31959     31962
     31957     31956     31958     31957     31956     31959     31958     31956     31959
     31959     31962     31963     31959     31962     31964     31959     31962     31965
     31960     31959     31961     31960     31959     31962     31961     31959     31962
     31962     31965     31966     31962     31965     31967     31962     31965     31968
     31963     31962     31964     31963     31962     31965     31964     31962     31965
     31965     31968     31969     31965     31968     31970     31965     31968     31971
     31966     31965     31967     31966     31965     31968     31967     31965     31968
     31968     31971     31972     31968     31971     31973     31968     31971     31974
     31969     31968     31970     31969     31968     31971     31970     31968     31971
     31971     31974     31975     31971     31974     31976     31971     31974     31977
     31972     31971     31973     31972     31971     31974     31973     31971     31974
     31974     31977     31978     31974     31977     31979     31974     31977     31980
     31975     31974     31976     31975     31974     31977     31976     31974     31977
     31977     31980     31981     31977     31980     31982     31977     31980     31983
     31978     31977     31979     31978     31977     31980     31979     31977     31980
     31980     31983     31984     31980     31983     31985     31980     31983     31986
     31981     31980     31982     31981     31980     31983     31982     31980     31983
     31983     31986     31987     31983     31986     31988     31983     31986     31989
     31984     31983     31985     31984     31983     31986     31985     31983     31986
     31986     31989     31990     31986     31989     31991     31986     31989     31992
     31987     31986     31988     31987     31986     31989     31988     31986     31989
     31989     31992     31993     31989     31992     31994     31989     31992     31995
     31990     31989     31991     31990     31989     31992     31991     31989     31992
     31992     31995     31996     31992     31995     31997     31992     31995     31998
     31993     31992     31994     31993     31992     31995     31994     31992     31995
     31996     31995     31997     31996     31995     31998     31997     31995     31998
     31999     32000     32001     31999     32000     32002     31999     32000     32015
     31999     32003     32004     31999     32003     32005     31999     32003     32006
     31999     32007     32008     31999     32007     32009     31999     32007     32010
     31999     32011     32012     31999     32011     32013     31999     32011     32014
     32000     31999     32003     32000     31999     32007     32000     31999     32011
     32000     32015     32016     32000     32015     32017     32000     32015     32021
     32001     32000     32002     32001     32000     32015     32002     32000     32015
     32003     31999     32007     32003     31999     32011     32004     32003     32005
     32004     32003     32006     32005     32003     32006     32007     31999     32011
     32008     32007     32009     32008     32007     32010     32009     32007     32010
     32012     32011     32013     32012     32011     32014     32013     32011     32014
     32015     32021     32018     32016     32015     32017     32016     32015     32021
     32017     32015     32021     32018     32022     32023     32019     32018     32020
     32019     32018     32021     32019     32018     32022     32020     32018     32021
     32020     32018     32022     32021     32018     32022     32022     32023     32024
     32022     32023     32025     32022     32023     32026     32023     32026     32027
     32023     32026     32028     32023     32026     32034     32024     32023     32025
     32024     32023     32026     32025     32023     32026     32026     32028     32029
     32026     32034     32035     32026     32034     32036     32026     32034     32037
     32027     32026     32028     32027     32026     32034     32028     32026     32034
     32028     32029     32030     32028     32029     32031     32029     32031     32032
     32029     32031     32033     32029     32031     32043     32030     32029     32031
     32031     32043     32044     32031     32043     32045     32031     32043     32046
     32032     32031     32033     32032     32031     32043     32033     32031     32043
     32034     32037     32038     32035     32034     32036     32035     32034     32037
     32036     32034     32037     32037     32038     32039     32037     32038     32040
     32038     32040     32041     32038     32040     32042     32038     32040     32090
     32039     32038     32040     32040     32090     32091     32040     32090     32092
     32040     32090     32093     32041     32040     32042     32041     32040     32090
     32042     32040     32090     32043     32046     32047     32043     32046     32048
     32043     32046     32049     32044     32043     32045     32044     32043     32046
     32045     32043     32046     32046     32049     32050     32046     32049     32051
     32046     32049     32052     32047     32046     32048     32047     32046     32049
     32048     32046     32049     32049     32052     32053     32049     32052     32054
     32049     32052     32055     32050     32049     32051     32050     32049     32052
     32051     32049     32052     32052     32055     32056     32052     32055     32057
     32052     32055     32058     32053     32052     32054     32053     32052     32055
     32054     32052     32055     32055     32058     32059     32055     32058     32060
     32055     32058     32061     32056     32055     32057     32056     32055     32058
     32057     32055     32058     32058     32061     32062     32058     32061     32063
     32059     32058     32060     32059     32058     32061     32060     32058     32061
     32061     32063     32064     32061     32063     32065     32062     32061     32063
     32063     32065     32066     32063     32065     32067     32063     32065     32068
     32064     32063     32065     32065     32068     32069     32065     32068     32070
     32065     32068     32071     32066     32065     32067     32066     32065     32068
     32067     32065     32068     32068     32071     32072     32068     32071     32073
     32068     32071     32074     32069     32068     32070     32069     32068     32071
     32070     32068     32071     32071     32074     32075     32071     32074     32076
     32071     32074     32077     32072     32071     32073     32072     32071     32074
     32073     32071     32074     32074     32077     32078     32074     32077     32079
     32074     32077     32080     32075     32074     32076     32075     32074     32077
     32076     32074     32077     32077     32080     32081     32077     32080     32082
     32077     32080     32083     32078     32077     32079     32078     32077     32080
     32079     32077     32080     32080     32083     32084     32080     32083     32085
     32080     32083     32086     32081     32080     32082     32081     32080     32083
     32082     32080     32083     32083     32086     32087     32083     32086     32088
     32083     32086     32089     32084     32083     32085     32084     32083     32086
     32085     32083     32086     32087     32086     32088     32087     32086     32089
     32088     32086     32089     32090     32093     32094     32090     32093     32095
     32090     32093     32096     32091     32090     32092     32091     32090     32093
     32092     32090     32093     32093     32096     32097     32093     32096     32098
     32093     32096     32099     32094     32093     32095     32094     32093     32096
     32095     32093     32096     32096     32099     32100     32096     32099     32101
     32096     32099     32102     32097     32096     32098     32097     32096     32099
     32098     32096     32099     32099     32102     32103     32099     32102     32104
     32099     32102     32105     32100     32099     32101     32100     32099     32102
     32101     32099     32102     32102     32105     32106     32102     32105     32107
     32102     32105     32108     32103     32102     32104     32103     32102     32105
     32104     32102     32105     32105     32108     32109     32105     32108     32110
     32105     32108     32111     32106     32105     32107     32106     32105     32108
     32107     32105     32108     32108     32111     32112     32108     32111     32113
     32108     32111     32114     32109     32108     32110     32109     32108     32111
     32110     32108     32111     32111     32114     32115     32111     32114     32116
     32111     32114     32117     32112     32111     32113     32112     32111     32114
     32113     32111     32114     32114     32117     32118     32114     32117     32119
     32114     32117     32120     32115     32114     32116     32115     32114     32117
     32116     32114     32117     32117     32120     32121     32117     32120     32122
     32117     32120     32123     32118     32117     32119     32118     32117     32120
     32119     32117     32120     32120     32123     32124     32120     32123     32125
     32120     32123     32126     32121     32120     32122     32121     32120     32123
     32122     32120     32123     32123     32126     32127     32123     32126     32128
     32123     32126     32129     32124     32123     32125     32124     32123     32126
     32125     32123     32126     32126     32129     32130     32126     32129     32131
     32126     32129     32132     32127     32126     32128     32127     32126     32129
     32128     32126     32129     32130     32129     32131     32130     32129     32132
     32131     32129     32132     32133     32134     32135     32133     32134     32136
     32133     32134     32149     32133     32137     32138     32133     32137     32139
     32133     32137     32140     32133     32141     32142     32133     32141     32143
     32133     32141     32144     32133     32145     32146     32133     32145     32147
     32133     32145     32148     32134     32133     32137     32134     32133     32141
     32134     32133     32145     32134     32149     32150     32134     32149     32151
     32134     32149     32155     32135     32134     32136     32135     32134     32149
     32136     32134     32149     32137     32133     32141     32137     32133     32145
     32138     32137     32139     32138     32137     32140     32139     32137     32140
     32141     32133     32145     32142     32141     32143     32142     32141     32144
     32143     32141     32144     32146     32145     32147     32146     32145     32148
     32147     32145     32148     32149     32155     32152     32150     32149     32151
     32150     32149     32155     32151     32149     32155     32152     32156     32157
     32153     32152     32154     32153     32152     32155     32153     32152     32156
     32154     32152     32155     32154     32152     32156     32155     32152     32156
     32156     32157     32158     32156     32157     32159     32156     32157     32160
     32157     32160     32161     32157     32160     32162     32157     32160     32168
     32158     32157     32159     32158     32157     32160     32159     32157     32160
     32160     32162     32163     32160     32168     32169     32160     32168     32170
     32160     32168     32171     32161     32160     32162     32161     32160     32168
     32162     32160     32168     32162     32163     32164     32162     32163     32165
     32163     32165     32166     32163     32165     32167     32163     32165     32177
     32164     32163     32165     32165     32177     32178     32165     32177     32179
     32165     32177     32180     32166     32165     32167     32166     32165     32177
     32167     32165     32177     32168     32171     32172     32169     32168     32170
     32169     32168     32171     32170     32168     32171     32171     32172     32173
     32171     32172     32174     32172     32174     32175     32172     32174     32176
     32172     32174     32224     32173     32172     32174     32174     32224     32225
     32174     32224     32226     32174     32224     32227     32175     32174     32176
     32175     32174     32224     32176     32174     32224     32177     32180     32181
     32177     32180     32182     32177     32180     32183     32178     32177     32179
     32178     32177     32180     32179     32177     32180     32180     32183     32184
     32180     32183     32185     32180     32183     32186     32181     32180     32182
     32181     32180     32183     32182     32180     32183     32183     32186     32187
     32183     32186     32188     32183     32186     32189     32184     32183     32185
     32184     32183     32186     32185     32183     32186     32186     32189     32190
     32186     32189     32191     32186     32189     32192     32187     32186     32188
     32187     32186     32189     32188     32186     32189     32189     32192     32193
     32189     32192     32194     32189     32192     32195     32190     32189     32191
     32190     32189     32192     32191     32189     32192     32192     32195     32196
     32192     32195     32197     32193     32192     32194     32193     32192     32195
     32194     32192     32195     32195     32197     32198     32195     32197     32199
     32196     32195     32197     32197     32199     32200     32197     32199     32201
     32197     32199     32202     32198     32197     32199     32199     32202     32203
     32199     32202     32204     32199     32202     32205     32200     32199     32201
     32200     32199     32202     32201     32199     32202     32202     32205     32206
     32202     32205     32207     32202     32205     32208     32203     32202     32204
     32203     32202     32205     32204     32202     32205     32205     32208     32209
     32205     32208     32210     32205     32208     32211     32206     32205     32207
     32206     32205     32208     32207     32205     32208     32208     32211     32212
     32208     32211     32213     32208     32211     32214     32209     32208     32210
     32209     32208     32211     32210     32208     32211     32211     32214     32215
     32211     32214     32216     32211     32214     32217     32212     32211     32213
     32212     32211     32214     32213     32211     32214     32214     32217     32218
     32214     32217     32219     32214     32217     32220     32215     32214     32216
     32215     32214     32217     32216     32214     32217     32217     32220     32221
     32217     32220     32222     32217     32220     32223     32218     32217     32219
     32218     32217     32220     32219     32217     32220     32221     32220     32222
     32221     32220     32223     32222     32220     32223     32224     32227     32228
     32224     32227     32229     32224     32227     32230     32225     32224     32226
     32225     32224     32227     32226     32224     32227     32227     32230     32231
     32227     32230     32232     32227     32230     32233     32228     32227     32229
     32228     32227     32230     32229     32227     32230     32230     32233     32234
     32230     32233     32235     32230     32233     32236     32231     32230     32232
     32231     32230     32233     32232     32230     32233     32233     32236     32237
     32233     32236     32238     32233     32236     32239     32234     32233     32235
     32234     32233     32236     32235     32233     32236     32236     32239     32240
     32236     32239     32241     32236     32239     32242     32237     32236     32238
     32237     32236     32239     32238     32236     32239     32239     32242     32243
     32239     32242     32244     32239     32242     32245     32240     32239     32241
     32240     32239     32242     32241     32239     32242     32242     32245     32246
     32242     32245     32247     32242     32245     32248     32243     32242     32244
     32243     32242     32245     32244     32242     32245     32245     32248     32249
     32245     32248     32250     32245     32248     32251     32246     32245     32247
     32246     32245     32248     32247     32245     32248     32248     32251     32252
     32248     32251     32253     32248     32251     32254     32249     32248     32250
     32249     32248     32251     32250     32248     32251     32251     32254     32255
     32251     32254     32256     32251     32254     32257     32252     32251     32253
     32252     32251     32254     32253     32251     32254     32254     32257     32258
     32254     32257     32259     32254     32257     32260     32255     32254     32256
     32255     32254     32257     32256     32254     32257     32257     32260     32261
     32257     32260     32262     32257     32260     32263     32258     32257     32259
     32258     32257     32260     32259     32257     32260     32260     32263     32264
     32260     32263     32265     32260     32263     32266     32261     32260     32262
     32261     32260     32263     32262     32260     32263     32264     32263     32265
     32264     32263     32266     32265     32263     32266     32267     32268     32269
     32267     32268     32270     32267     32268     32283     32267     32271     32272
     32267     32271     32273     32267     32271     32274     32267     32275     32276
     32267     32275     32277     32267     32275     32278     32267     32279     32280
     32267     32279     32281     32267     32279     32282     32268     32267     32271
     32268     32267     32275     32268     32267     32279     32268     32283     32284
     32268     32283     32285     32268     32283     32289     32269     32268     32270
     32269     32268     32283     32270     32268     32283     32271     32267     32275
     32271     32267     32279     32272     32271     32273     32272     32271     32274
     32273     32271     32274     32275     32267     32279     32276     32275     32277
     32276     32275     32278     32277     32275     32278     32280     32279     32281
     32280     32279     32282     32281     32279     32282     32283     32289     32286
     32284     32283     32285     32284     32283     32289     32285     32283     32289
     32286     32290     32291     32287     32286     32288     32287     32286     32289
     32287     32286     32290     32288     32286     32289     32288     32286     32290
     32289     32286     32290     32290     32291     32292     32290     32291     32293
     32290     32291     32294     32291     32294     32295     32291     32294     32296
     32291     32294     32302     32292     32291     32293     32292     32291     32294
     32293     32291     32294     32294     32296     32297     32294     32302     32303
     32294     32302     32304     32294     32302     32305     32295     32294     32296
     32295     32294     32302     32296     32294     32302     32296     32297     32298
     32296     32297     32299     32297     32299     32300     32297     32299     32301
     32297     32299     32311     32298     32297     32299     32299     32311     32312
     32299     32311     32313     32299     32311     32314     32300     32299     32301
     32300     32299     32311     32301     32299     32311     32302     32305     32306
     32303     32302     32304     32303     32302     32305     32304     32302     32305
     32305     32306     32307     32305     32306     32308     32306     32308     32309
     32306     32308     32310     32306     32308     32358     32307     32306     32308
     32308     32358     32359     32308     32358     32360     32308     32358     32361
     32309     32308     32310     32309     32308     32358     32310     32308     32358
     32311     32314     32315     32311     32314     32316     32311     32314     32317
     32312     32311     32313     32312     32311     32314     32313     32311     32314
     32314     32317     32318     32314     32317     32319     32314     32317     32320
     32315     32314     32316     32315     32314     32317     32316     32314     32317
     32317     32320     32321     32317     32320     32322     32317     32320     32323
     32318     32317     32319     32318     32317     32320     32319     32317     32320
     32320     32323     32324     32320     32323     32325     32320     32323     32326
     32321     32320     32322     32321     32320     32323     32322     32320     32323
     32323     32326     32327     32323     32326     32328     32323     32326     32329
     32324     32323     32325     32324     32323     32326     32325     32323     32326
     32326     32329     32330     32326     32329     32331     32327     32326     32328
     32327     32326     32329     32328     32326     32329     32329     32331     32332
     32329     32331     32333     32330     32329     32331     32331     32333     32334
     32331     32333     32335     32331     32333     32336     32332     32331     32333
     32333     32336     32337     32333     32336     32338     32333     32336     32339
     32334     32333     32335     32334     32333     32336     32335     32333     32336
     32336     32339     32340     32336     32339     32341     32336     32339     32342
     32337     32336     32338     32337     32336     32339     32338     32336     32339
     32339     32342     32343     32339     32342     32344     32339     32342     32345
     32340     32339     32341     32340     32339     32342     32341     32339     32342
     32342     32345     32346     32342     32345     32347     32342     32345     32348
     32343     32342     32344     32343     32342     32345     32344     32342     32345
     32345     32348     32349     32345     32348     32350     32345     32348     32351
     32346     32345     32347     32346     32345     32348     32347     32345     32348
     32348     32351     32352     32348     32351     32353     32348     32351     32354
     32349     32348     32350     32349     32348     32351     32350     32348     32351
     32351     32354     32355     32351     32354     32356     32351     32354     32357
     32352     32351     32353     32352     32351     32354     32353     32351     32354
     32355     32354     32356     32355     32354     32357     32356     32354     32357
     32358     32361     32362     32358     32361     32363     32358     32361     32364
     32359     32358     32360     32359     32358     32361     32360     32358     32361
     32361     32364     32365     32361     32364     32366     32361     32364     32367
     32362     32361     32363     32362     32361     32364     32363     32361     32364
     32364     32367     32368     32364     32367     32369     32364     32367     32370
     32365     32364     32366     32365     32364     32367     32366     32364     32367
     32367     32370     32371     32367     32370     32372     32367     32370     32373
     32368     32367     32369     32368     32367     32370     32369     32367     32370
     32370     32373     32374     32370     32373     32375     32370     32373     32376
     32371     32370     32372     32371     32370     32373     32372     32370     32373
     32373     32376     32377     32373     32376     32378     32373     32376     32379
     32374     32373     32375     32374     32373     32376     32375     32373     32376
     32376     32379     32380     32376     32379     32381     32376     32379     32382
     32377     32376     32378     32377     32376     32379     32378     32376     32379
     32379     32382     32383     32379     32382     32384     32379     32382     32385
     32380     32379     32381     32380     32379     32382     32381     32379     32382
     32382     32385     32386     32382     32385     32387     32382     32385     32388
     32383     32382     32384     32383     32382     32385     32384     32382     32385
     32385     32388     32389     32385     32388     32390     32385     32388     32391
     32386     32385     32387     32386     32385     32388     32387     32385     32388
     32388     32391     32392     32388     32391     32393     32388     32391     32394
     32389     32388     32390     32389     32388     32391     32390     32388     32391
     32391     32394     32395     32391     32394     32396     32391     32394     32397
     32392     32391     32393     32392     32391     32394     32393     32391     32394
     32394     32397     32398     32394     32397     32399     32394     32397     32400
     32395     32394     32396     32395     32394     32397     32396     32394     32397
     32398     32397     32399     32398     32397     32400     32399     32397     32400
     32401     32402     32403     32401     32402     32404     32401     32402     32417
     32401     32405     32406     32401     32405     32407     32401     32405     32408
     32401     32409     32410     32401     32409     32411     32401     32409     32412
     32401     32413     32414     32401     32413     32415     32401     32413     32416
     32402     32401     32405     32402     32401     32409     32402     32401     32413
     32402     32417     32418     32402     32417     32419     32402     32417     32423
     32403     32402     32404     32403     32402     32417     32404     32402     32417
     32405     32401     32409     32405     32401     32413     32406     32405     32407
     32406     32405     32408     32407     32405     32408     32409     32401     32413
     32410     32409     32411     32410     32409     32412     32411     32409     32412
     32414     32413     32415     32414     32413     32416     32415     32413     32416
     32417     32423     32420     32418     32417     32419     32418     32417     32423
     32419     32417     32423     32420     32424     32425     32421     32420     32422
     32421     32420     32423     32421     32420     32424     32422     32420     32423
     32422     32420     32424     32423     32420     32424     32424     32425     32426
     32424     32425     32427     32424     32425     32428     32425     32428     32429
     32425     32428     32430     32425     32428     32436     32426     32425     32427
     32426     32425     32428     32427     32425     32428     32428     32430     32431
     32428     32436     32437     32428     32436     32438     32428     32436     32439
     32429     32428     32430     32429     32428     32436     32430     32428     32436
     32430     32431     32432     32430     32431     32433     32431     32433     32434
     32431     32433     32435     32431     32433     32445     32432     32431     32433
     32433     32445     32446     32433     32445     32447     32433     32445     32448
     32434     32433     32435     32434     32433     32445     32435     32433     32445
     32436     32439     32440     32437     32436     32438     32437     32436     32439
     32438     32436     32439     32439     32440     32441     32439     32440     32442
     32440     32442     32443     32440     32442     32444     32440     32442     32492
     32441     32440     32442     32442     32492     32493     32442     32492     32494
     32442     32492     32495     32443     32442     32444     32443     32442     32492
     32444     32442     32492     32445     32448     32449     32445     32448     32450
     32445     32448     32451     32446     32445     32447     32446     32445     32448
     32447     32445     32448     32448     32451     32452     32448     32451     32453
     32448     32451     32454     32449     32448     32450     32449     32448     32451
     32450     32448     32451     32451     32454     32455     32451     32454     32456
     32451     32454     32457     32452     32451     32453     32452     32451     32454
     32453     32451     32454     32454     32457     32458     32454     32457     32459
     32454     32457     32460     32455     32454     32456     32455     32454     32457
     32456     32454     32457     32457     32460     32461     32457     32460     32462
     32457     32460     32463     32458     32457     32459     32458     32457     32460
     32459     32457     32460     32460     32463     32464     32460     32463     32465
     32461     32460     32462     32461     32460     32463     32462     32460     32463
     32463     32465     32466     32463     32465     32467     32464     32463     32465
     32465     32467     32468     32465     32467     32469     32465     32467     32470
     32466     32465     32467     32467     32470     32471     32467     32470     32472
     32467     32470     32473     32468     32467     32469     32468     32467     32470
     32469     32467     32470     32470     32473     32474     32470     32473     32475
     32470     32473     32476     32471     32470     32472     32471     32470     32473
     32472     32470     32473     32473     32476     32477     32473     32476     32478
     32473     32476     32479     32474     32473     32475     32474     32473     32476
     32475     32473     32476     32476     32479     32480     32476     32479     32481
     32476     32479     32482     32477     32476     32478     32477     32476     32479
     32478     32476     32479     32479     32482     32483     32479     32482     32484
     32479     32482     32485     32480     32479     32481     32480     32479     32482
     32481     32479     32482     32482     32485     32486     32482     32485     32487
     32482     32485     32488     32483     32482     32484     32483     32482     32485
     32484     32482     32485     32485     32488     32489     32485     32488     32490
     32485     32488     32491     32486     32485     32487     32486     32485     32488
     32487     32485     32488     32489     32488     32490     32489     32488     32491
     32490     32488     32491     32492     32495     32496     32492     32495     32497
     32492     32495     32498     32493     32492     32494     32493     32492     32495
     32494     32492     32495     32495     32498     32499     32495     32498     32500
     32495     32498     32501     32496     32495     32497     32496     32495     32498
     32497     32495     32498     32498     32501     32502     32498     32501     32503
     32498     32501     32504     32499     32498     32500     32499     32498     32501
     32500     32498     32501     32501     32504     32505     32501     32504     32506
     32501     32504     32507     32502     32501     32503     32502     32501     32504
     32503     32501     32504     32504     32507     32508     32504     32507     32509
     32504     32507     32510     32505     32504     32506     32505     32504     32507
     32506     32504     32507     32507     32510     32511     32507     32510     32512
     32507     32510     32513     32508     32507     32509     32508     32507     32510
     32509     32507     32510     32510     32513     32514     32510     32513     32515
     32510     32513     32516     32511     32510     32512     32511     32510     32513
     32512     32510     32513     32513     32516     32517     32513     32516     32518
     32513     32516     32519     32514     32513     32515     32514     32513     32516
     32515     32513     32516     32516     32519     32520     32516     32519     32521
     32516     32519     32522     32517     32516     32518     32517     32516     32519
     32518     32516     32519     32519     32522     32523     32519     32522     32524
     32519     32522     32525     32520     32519     32521     32520     32519     32522
     32521     32519     32522     32522     32525     32526     32522     32525     32527
     32522     32525     32528     32523     32522     32524     32523     32522     32525
     32524     32522     32525     32525     32528     32529     32525     32528     32530
     32525     32528     32531     32526     32525     32527     32526     32525     32528
     32527     32525     32528     32528     32531     32532     32528     32531     32533
     32528     32531     32534     32529     32528     32530     32529     32528     32531
     32530     32528     32531     32532     32531     32533     32532     32531     32534
     32533     32531     32534     32535     32536     32537     32535     32536     32538
     32535     32536     32551     32535     32539     32540     32535     32539     32541
     32535     32539     32542     32535     32543     32544     32535     32543     32545
     32535     32543     32546     32535     32547     32548     32535     32547     32549
     32535     32547     32550     32536     32535     32539     32536     32535     32543
     32536     32535     32547     32536     32551     32552     32536     32551     32553
     32536     32551     32557     32537     32536     32538     32537     32536     32551
     32538     32536     32551     32539     32535     32543     32539     32535     32547
     32540     32539     32541     32540     32539     32542     32541     32539     32542
     32543     32535     32547     32544     32543     32545     32544     32543     32546
     32545     32543     32546     32548     32547     32549     32548     32547     32550
     32549     32547     32550     32551     32557     32554     32552     32551     32553
     32552     32551     32557     32553     32551     32557     32554     32558     32559
     32555     32554     32556     32555     32554     32557     32555     32554     32558
     32556     32554     32557     32556     32554     32558     32557     32554     32558
     32558     32559     32560     32558     32559     32561     32558     32559     32562
     32559     32562     32563     32559     32562     32564     32559     32562     32570
     32560     32559     32561     32560     32559     32562     32561     32559     32562
     32562     32564     32565     32562     32570     32571     32562     32570     32572
     32562     32570     32573     32563     32562     32564     32563     32562     32570
     32564     32562     32570     32564     32565     32566     32564     32565     32567
     32565     32567     32568     32565     32567     32569     32565     32567     32579
     32566     32565     32567     32567     32579     32580     32567     32579     32581
     32567     32579     32582     32568     32567     32569     32568     32567     32579
     32569     32567     32579     32570     32573     32574     32571     32570     32572
     32571     32570     32573     32572     32570     32573     32573     32574     32575
     32573     32574     32576     32574     32576     32577     32574     32576     32578
     32574     32576     32626     32575     32574     32576     32576     32626     32627
     32576     32626     32628     32576     32626     32629     32577     32576     32578
     32577     32576     32626     32578     32576     32626     32579     32582     32583
     32579     32582     32584     32579     32582     32585     32580     32579     32581
     32580     32579     32582     32581     32579     32582     32582     32585     32586
     32582     32585     32587     32582     32585     32588     32583     32582     32584
     32583     32582     32585     32584     32582     32585     32585     32588     32589
     32585     32588     32590     32585     32588     32591     32586     32585     32587
     32586     32585     32588     32587     32585     32588     32588     32591     32592
     32588     32591     32593     32588     32591     32594     32589     32588     32590
     32589     32588     32591     32590     32588     32591     32591     32594     32595
     32591     32594     32596     32591     32594     32597     32592     32591     32593
     32592     32591     32594     32593     32591     32594     32594     32597     32598
     32594     32597     32599     32595     32594     32596     32595     32594     32597
     32596     32594     32597     32597     32599     32600     32597     32599     32601
     32598     32597     32599     32599     32601     32602     32599     32601     32603
     32599     32601     32604     32600     32599     32601     32601     32604     32605
     32601     32604     32606     32601     32604     32607     32602     32601     32603
     32602     32601     32604     32603     32601     32604     32604     32607     32608
     32604     32607     32609     32604     32607     32610     32605     32604     32606
     32605     32604     32607     32606     32604     32607     32607     32610     32611
     32607     32610     32612     32607     32610     32613     32608     32607     32609
     32608     32607     32610     32609     32607     32610     32610     32613     32614
     32610     32613     32615     32610     32613     32616     32611     32610     32612
     32611     32610     32613     32612     32610     32613     32613     32616     32617
     32613     32616     32618     32613     32616     32619     32614     32613     32615
     32614     32613     32616     32615     32613     32616     32616     32619     32620
     32616     32619     32621     32616     32619     32622     32617     32616     32618
     32617     32616     32619     32618     32616     32619     32619     32622     32623
     32619     32622     32624     32619     32622     32625     32620     32619     32621
     32620     32619     32622     32621     32619     32622     32623     32622     32624
     32623     32622     32625     32624     32622     32625     32626     32629     32630
     32626     32629     32631     32626     32629     32632     32627     32626     32628
     32627     32626     32629     32628     32626     32629     32629     32632     32633
     32629     32632     32634     32629     32632     32635     32630     32629     32631
     32630     32629     32632     32631     32629     32632     32632     32635     32636
     32632     32635     32637     32632     32635     32638     32633     32632     32634
     32633     32632     32635     32634     32632     32635     32635     32638     32639
     32635     32638     32640     32635     32638     32641     32636     32635     32637
     32636     32635     32638     32637     32635     32638     32638     32641     32642
     32638     32641     32643     32638     32641     32644     32639     32638     32640
     32639     32638     32641     32640     32638     32641     32641     32644     32645
     32641     32644     32646     32641     32644     32647     32642     32641     32643
     32642     32641     32644     32643     32641     32644     32644     32647     32648
     32644     32647     32649     32644     32647     32650     32645     32644     32646
     32645     32644     32647     32646     32644     32647     32647     32650     32651
     32647     32650     32652     32647     32650     32653     32648     32647     32649
     32648     32647     32650     32649     32647     32650     32650     32653     32654
     32650     32653     32655     32650     32653     32656     32651     32650     32652
     32651     32650     32653     32652     32650     32653     32653     32656     32657
     32653     32656     32658     32653     32656     32659     32654     32653     32655
     32654     32653     32656     32655     32653     32656     32656     32659     32660
     32656     32659     32661     32656     32659     32662     32657     32656     32658
     32657     32656     32659     32658     32656     32659     32659     32662     32663
     32659     32662     32664     32659     32662     32665     32660     32659     32661
     32660     32659     32662     32661     32659     32662     32662     32665     32666
     32662     32665     32667     32662     32665     32668     32663     32662     32664
     32663     32662     32665     32664     32662     32665     32666     32665     32667
     32666     32665     32668     32667     32665     32668     32669     32670     32671
     32669     32670     32672     32669     32670     32685     32669     32673     32674
     32669     32673     32675     32669     32673     32676     32669     32677     32678
     32669     32677     32679     32669     32677     32680     32669     32681     32682
     32669     32681     32683     32669     32681     32684     32670     32669     32673
     32670     32669     32677     32670     32669     32681     32670     32685     32686
     32670     32685     32687     32670     32685     32691     32671     32670     32672
     32671     32670     32685     32672     32670     32685     32673     32669     32677
     32673     32669     32681     32674     32673     32675     32674     32673     32676
     32675     32673     32676     32677     32669     32681     32678     32677     32679
     32678     32677     32680     32679     32677     32680     32682     32681     32683
     32682     32681     32684     32683     32681     32684     32685     32691     32688
     32686     32685     32687     32686     32685     32691     32687     32685     32691
     32688     32692     32693     32689     32688     32690     32689     32688     32691
     32689     32688     32692     32690     32688     32691     32690     32688     32692
     32691     32688     32692     32692     32693     32694     32692     32693     32695
     32692     32693     32696     32693     32696     32697     32693     32696     32698
     32693     32696     32704     32694     32693     32695     32694     32693     32696
     32695     32693     32696     32696     32698     32699     32696     32704     32705
     32696     32704     32706     32696     32704     32707     32697     32696     32698
     32697     32696     32704     32698     32696     32704     32698     32699     32700
     32698     32699     32701     32699     32701     32702     32699     32701     32703
     32699     32701     32713     32700     32699     32701     32701     32713     32714
     32701     32713     32715     32701     32713     32716     32702     32701     32703
     32702     32701     32713     32703     32701     32713     32704     32707     32708
     32705     32704     32706     32705     32704     32707     32706     32704     32707
     32707     32708     32709     32707     32708     32710     32708     32710     32711
     32708     32710     32712     32708     32710     32760     32709     32708     32710
     32710     32760     32761     32710     32760     32762     32710     32760     32763
     32711     32710     32712     32711     32710     32760     32712     32710     32760
     32713     32716     32717     32713     32716     32718     32713     32716     32719
     32714     32713     32715     32714     32713     32716     32715     32713     32716
     32716     32719     32720     32716     32719     32721     32716     32719     32722
     32717     32716     32718     32717     32716     32719     32718     32716     32719
     32719     32722     32723     32719     32722     32724     32719     32722     32725
     32720     32719     32721     32720     32719     32722     32721     32719     32722
     32722     32725     32726     32722     32725     32727     32722     32725     32728
     32723     32722     32724     32723     32722     32725     32724     32722     32725
     32725     32728     32729     32725     32728     32730     32725     32728     32731
     32726     32725     32727     32726     32725     32728     32727     32725     32728
     32728     32731     32732     32728     32731     32733     32729     32728     32730
     32729     32728     32731     32730     32728     32731     32731     32733     32734
     32731     32733     32735     32732     32731     32733     32733     32735     32736
     32733     32735     32737     32733     32735     32738     32734     32733     32735
     32735     32738     32739     32735     32738     32740     32735     32738     32741
     32736     32735     32737     32736     32735     32738     32737     32735     32738
     32738     32741     32742     32738     32741     32743     32738     32741     32744
     32739     32738     32740     32739     32738     32741     32740     32738     32741
     32741     32744     32745     32741     32744     32746     32741     32744     32747
     32742     32741     32743     32742     32741     32744     32743     32741     32744
     32744     32747     32748     32744     32747     32749     32744     32747     32750
     32745     32744     32746     32745     32744     32747     32746     32744     32747
     32747     32750     32751     32747     32750     32752     32747     32750     32753
     32748     32747     32749     32748     32747     32750     32749     32747     32750
     32750     32753     32754     32750     32753     32755     32750     32753     32756
     32751     32750     32752     32751     32750     32753     32752     32750     32753
     32753     32756     32757     32753     32756     32758     32753     32756     32759
     32754     32753     32755     32754     32753     32756     32755     32753     32756
     32757     32756     32758     32757     32756     32759     32758     32756     32759
     32760     32763     32764     32760     32763     32765     32760     32763     32766
     32761     32760     32762     32761     32760     32763     32762     32760     32763
     32763     32766     32767     32763     32766     32768     32763     32766     32769
     32764     32763     32765     32764     32763     32766     32765     32763     32766
     32766     32769     32770     32766     32769     32771     32766     32769     32772
     32767     32766     32768     32767     32766     32769     32768     32766     32769
     32769     32772     32773     32769     32772     32774     32769     32772     32775
     32770     32769     32771     32770     32769     32772     32771     32769     32772
     32772     32775     32776     32772     32775     32777     32772     32775     32778
     32773     32772     32774     32773     32772     32775     32774     32772     32775
     32775     32778     32779     32775     32778     32780     32775     32778     32781
     32776     32775     32777     32776     32775     32778     32777     32775     32778
     32778     32781     32782     32778     32781     32783     32778     32781     32784
     32779     32778     32780     32779     32778     32781     32780     32778     32781
     32781     32784     32785     32781     32784     32786     32781     32784     32787
     32782     32781     32783     32782     32781     32784     32783     32781     32784
     32784     32787     32788     32784     32787     32789     32784     32787     32790
     32785     32784     32786     32785     32784     32787     32786     32784     32787
     32787     32790     32791     32787     32790     32792     32787     32790     32793
     32788     32787     32789     32788     32787     32790     32789     32787     32790
     32790     32793     32794     32790     32793     32795     32790     32793     32796
     32791     32790     32792     32791     32790     32793     32792     32790     32793
     32793     32796     32797     32793     32796     32798     32793     32796     32799
     32794     32793     32795     32794     32793     32796     32795     32793     32796
     32796     32799     32800     32796     32799     32801     32796     32799     32802
     32797     32796     32798     32797     32796     32799     32798     32796     32799
     32800     32799     32801     32800     32799     32802     32801     32799     32802
     32803     32804     32805     32803     32804     32806     32803     32804     32819
     32803     32807     32808     32803     32807     32809     32803     32807     32810
     32803     32811     32812     32803     32811     32813     32803     32811     32814
     32803     32815     32816     32803     32815     32817     32803     32815     32818
     32804     32803     32807     32804     32803     32811     32804     32803     32815
     32804     32819     32820     32804     32819     32821     32804     32819     32825
     32805     32804     32806     32805     32804     32819     32806     32804     32819
     32807     32803     32811     32807     32803     32815     32808     32807     32809
     32808     32807     32810     32809     32807     32810     32811     32803     32815
     32812     32811     32813     32812     32811     32814     32813     32811     32814
     32816     32815     32817     32816     32815     32818     32817     32815     32818
     32819     32825     32822     32820     32819     32821     32820     32819     32825
     32821     32819     32825     32822     32826     32827     32823     32822     32824
     32823     32822     32825     32823     32822     32826     32824     32822     32825
     32824     32822     32826     32825     32822     32826     32826     32827     32828
     32826     32827     32829     32826     32827     32830     32827     32830     32831
     32827     32830     32832     32827     32830     32838     32828     32827     32829
     32828     32827     32830     32829     32827     32830     32830     32832     32833
     32830     32838     32839     32830     32838     32840     32830     32838     32841
     32831     32830     32832     32831     32830     32838     32832     32830     32838
     32832     32833     32834     32832     32833     32835     32833     32835     32836
     32833     32835     32837     32833     32835     32847     32834     32833     32835
     32835     32847     32848     32835     32847     32849     32835     32847     32850
     32836     32835     32837     32836     32835     32847     32837     32835     32847
     32838     32841     32842     32839     32838     32840     32839     32838     32841
     32840     32838     32841     32841     32842     32843     32841     32842     32844
     32842     32844     32845     32842     32844     32846     32842     32844     32894
     32843     32842     32844     32844     32894     32895     32844     32894     32896
     32844     32894     32897     32845     32844     32846     32845     32844     32894
     32846     32844     32894     32847     32850     32851     32847     32850     32852
     32847     32850     32853     32848     32847     32849     32848     32847     32850
     32849     32847     32850     32850     32853     32854     32850     32853     32855
     32850     32853     32856     32851     32850     32852     32851     32850     32853
     32852     32850     32853     32853     32856     32857     32853     32856     32858
     32853     32856     32859     32854     32853     32855     32854     32853     32856
     32855     32853     32856     32856     32859     32860     32856     32859     32861
     32856     32859     32862     32857     32856     32858     32857     32856     32859
     32858     32856     32859     32859     32862     32863     32859     32862     32864
     32859     32862     32865     32860     32859     32861     32860     32859     32862
     32861     32859     32862     32862     32865     32866     32862     32865     32867
     32863     32862     32864     32863     32862     32865     32864     32862     32865
     32865     32867     32868     32865     32867     32869     32866     32865     32867
     32867     32869     32870     32867     32869     32871     32867     32869     32872
     32868     32867     32869     32869     32872     32873     32869     32872     32874
     32869     32872     32875     32870     32869     32871     32870     32869     32872
     32871     32869     32872     32872     32875     32876     32872     32875     32877
     32872     32875     32878     32873     32872     32874     32873     32872     32875
     32874     32872     32875     32875     32878     32879     32875     32878     32880
     32875     32878     32881     32876     32875     32877     32876     32875     32878
     32877     32875     32878     32878     32881     32882     32878     32881     32883
     32878     32881     32884     32879     32878     32880     32879     32878     32881
     32880     32878     32881     32881     32884     32885     32881     32884     32886
     32881     32884     32887     32882     32881     32883     32882     32881     32884
     32883     32881     32884     32884     32887     32888     32884     32887     32889
     32884     32887     32890     32885     32884     32886     32885     32884     32887
     32886     32884     32887     32887     32890     32891     32887     32890     32892
     32887     32890     32893     32888     32887     32889     32888     32887     32890
     32889     32887     32890     32891     32890     32892     32891     32890     32893
     32892     32890     32893     32894     32897     32898     32894     32897     32899
     32894     32897     32900     32895     32894     32896     32895     32894     32897
     32896     32894     32897     32897     32900     32901     32897     32900     32902
     32897     32900     32903     32898     32897     32899     32898     32897     32900
     32899     32897     32900     32900     32903     32904     32900     32903     32905
     32900     32903     32906     32901     32900     32902     32901     32900     32903
     32902     32900     32903     32903     32906     32907     32903     32906     32908
     32903     32906     32909     32904     32903     32905     32904     32903     32906
     32905     32903     32906     32906     32909     32910     32906     32909     32911
     32906     32909     32912     32907     32906     32908     32907     32906     32909
     32908     32906     32909     32909     32912     32913     32909     32912     32914
     32909     32912     32915     32910     32909     32911     32910     32909     32912
     32911     32909     32912     32912     32915     32916     32912     32915     32917
     32912     32915     32918     32913     32912     32914     32913     32912     32915
     32914     32912     32915     32915     32918     32919     32915     32918     32920
     32915     32918     32921     32916     32915     32917     32916     32915     32918
     32917     32915     32918     32918     32921     32922     32918     32921     32923
     32918     32921     32924     32919     32918     32920     32919     32918     32921
     32920     32918     32921     32921     32924     32925     32921     32924     32926
     32921     32924     32927     32922     32921     32923     32922     32921     32924
     32923     32921     32924     32924     32927     32928     32924     32927     32929
     32924     32927     32930     32925     32924     32926     32925     32924     32927
     32926     32924     32927     32927     32930     32931     32927     32930     32932
     32927     32930     32933     32928     32927     32929     32928     32927     32930
     32929     32927     32930     32930     32933     32934     32930     32933     32935
     32930     32933     32936     32931     32930     32932     32931     32930     32933
     32932     32930     32933     32934     32933     32935     32934     32933     32936
     32935     32933     32936     32937     32938     32939     32937     32938     32940
     32937     32938     32953     32937     32941     32942     32937     32941     32943
     32937     32941     32944     32937     32945     32946     32937     32945     32947
     32937     32945     32948     32937     32949     32950     32937     32949     32951
     32937     32949     32952     32938     32937     32941     32938     32937     32945
     32938     32937     32949     32938     32953     32954     32938     32953     32955
     32938     32953     32959     32939     32938     32940     32939     32938     32953
     32940     32938     32953     32941     32937     32945     32941     32937     32949
     32942     32941     32943     32942     32941     32944     32943     32941     32944
     32945     32937     32949     32946     32945     32947     32946     32945     32948
     32947     32945     32948     32950     32949     32951     32950     32949     32952
     32951     32949     32952     32953     32959     32956     32954     32953     32955
     32954     32953     32959     32955     32953     32959     32956     32960     32961
     32957     32956     32958     32957     32956     32959     32957     32956     32960
     32958     32956     32959     32958     32956     32960     32959     32956     32960
     32960     32961     32962     32960     32961     32963     32960     32961     32964
     32961     32964     32965     32961     32964     32966     32961     32964     32972
     32962     32961     32963     32962     32961     32964     32963     32961     32964
     32964     32966     32967     32964     32972     32973     32964     32972     32974
     32964     32972     32975     32965     32964     32966     32965     32964     32972
     32966     32964     32972     32966     32967     32968     32966     32967     32969
     32967     32969     32970     32967     32969     32971     32967     32969     32981
     32968     32967     32969     32969     32981     32982     32969     32981     32983
     32969     32981     32984     32970     32969     32971     32970     32969     32981
     32971     32969     32981     32972     32975     32976     32973     32972     32974
     32973     32972     32975     32974     32972     32975     32975     32976     32977
     32975     32976     32978     32976     32978     32979     32976     32978     32980
     32976     32978     33028     32977     32976     32978     32978     33028     33029
     32978     33028     33030     32978     33028     33031     32979     32978     32980
     32979     32978     33028     32980     32978     33028     32981     32984     32985
     32981     32984     32986     32981     32984     32987     32982     32981     32983
     32982     32981     32984     32983     32981     32984     32984     32987     32988
     32984     32987     32989     32984     32987     32990     32985     32984     32986
     32985     32984     32987     32986     32984     32987     32987     32990     32991
     32987     32990     32992     32987     32990     32993     32988     32987     32989
     32988     32987     32990     32989     32987     32990     32990     32993     32994
     32990     32993     32995     32990     32993     32996     32991     32990     32992
     32991     32990     32993     32992     32990     32993     32993     32996     32997
     32993     32996     32998     32993     32996     32999     32994     32993     32995
     32994     32993     32996     32995     32993     32996     32996     32999     33000
     32996     32999     33001     32997     32996     32998     32997     32996     32999
     32998     32996     32999     32999     33001     33002     32999     33001     33003
     33000     32999     33001     33001     33003     33004     33001     33003     33005
     33001     33003     33006     33002     33001     33003     33003     33006     33007
     33003     33006     33008     33003     33006     33009     33004     33003     33005
     33004     33003     33006     33005     33003     33006     33006     33009     33010
     33006     33009     33011     33006     33009     33012     33007     33006     33008
     33007     33006     33009     33008     33006     33009     33009     33012     33013
     33009     33012     33014     33009     33012     33015     33010     33009     33011
     33010     33009     33012     33011     33009     33012     33012     33015     33016
     33012     33015     33017     33012     33015     33018     33013     33012     33014
     33013     33012     33015     33014     33012     33015     33015     33018     33019
     33015     33018     33020     33015     33018     33021     33016     33015     33017
     33016     33015     33018     33017     33015     33018     33018     33021     33022
     33018     33021     33023     33018     33021     33024     33019     33018     33020
     33019     33018     33021     33020     33018     33021     33021     33024     33025
     33021     33024     33026     33021     33024     33027     33022     33021     33023
     33022     33021     33024     33023     33021     33024     33025     33024     33026
     33025     33024     33027     33026     33024     33027     33028     33031     33032
     33028     33031     33033     33028     33031     33034     33029     33028     33030
     33029     33028     33031     33030     33028     33031     33031     33034     33035
     33031     33034     33036     33031     33034     33037     33032     33031     33033
     33032     33031     33034     33033     33031     33034     33034     33037     33038
     33034     33037     33039     33034     33037     33040     33035     33034     33036
     33035     33034     33037     33036     33034     33037     33037     33040     33041
     33037     33040     33042     33037     33040     33043     33038     33037     33039
     33038     33037     33040     33039     33037     33040     33040     33043     33044
     33040     33043     33045     33040     33043     33046     33041     33040     33042
     33041     33040     33043     33042     33040     33043     33043     33046     33047
     33043     33046     33048     33043     33046     33049     33044     33043     33045
     33044     33043     33046     33045     33043     33046     33046     33049     33050
     33046     33049     33051     33046     33049     33052     33047     33046     33048
     33047     33046     33049     33048     33046     33049     33049     33052     33053
     33049     33052     33054     33049     33052     33055     33050     33049     33051
     33050     33049     33052     33051     33049     33052     33052     33055     33056
     33052     33055     33057     33052     33055     33058     33053     33052     33054
     33053     33052     33055     33054     33052     33055     33055     33058     33059
     33055     33058     33060     33055     33058     33061     33056     33055     33057
     33056     33055     33058     33057     33055     33058     33058     33061     33062
     33058     33061     33063     33058     33061     33064     33059     33058     33060
     33059     33058     33061     33060     33058     33061     33061     33064     33065
     33061     33064     33066     33061     33064     33067     33062     33061     33063
     33062     33061     33064     33063     33061     33064     33064     33067     33068
     33064     33067     33069     33064     33067     33070     33065     33064     33066
     33065     33064     33067     33066     33064     33067     33068     33067     33069
     33068     33067     33070     33069     33067     33070     33071     33072     33073
     33071     33072     33074     33071     33072     33087     33071     33075     33076
     33071     33075     33077     33071     33075     33078     33071     33079     33080
     33071     33079     33081     33071     33079     33082     33071     33083     33084
     33071     33083     33085     33071     33083     33086     33072     33071     33075
     33072     33071     33079     33072     33071     33083     33072     33087     33088
     33072     33087     33089     33072     33087     33093     33073     33072     33074
     33073     33072     33087     33074     33072     33087     33075     33071     33079
     33075     33071     33083     33076     33075     33077     33076     33075     33078
     33077     33075     33078     33079     33071     33083     33080     33079     33081
     33080     33079     33082     33081     33079     33082     33084     33083     33085
     33084     33083     33086     33085     33083     33086     33087     33093     33090
     33088     33087     33089     33088     33087     33093     33089     33087     33093
     33090     33094     33095     33091     33090     33092     33091     33090     33093
     33091     33090     33094     33092     33090     33093     33092     33090     33094
     33093     33090     33094     33094     33095     33096     33094     33095     33097
     33094     33095     33098     33095     33098     33099     33095     33098     33100
     33095     33098     33106     33096     33095     33097     33096     33095     33098
     33097     33095     33098     33098     33100     33101     33098     33106     33107
     33098     33106     33108     33098     33106     33109     33099     33098     33100
     33099     33098     33106     33100     33098     33106     33100     33101     33102
     33100     33101     33103     33101     33103     33104     33101     33103     33105
     33101     33103     33115     33102     33101     33103     33103     33115     33116
     33103     33115     33117     33103     33115     33118     33104     33103     33105
     33104     33103     33115     33105     33103     33115     33106     33109     33110
     33107     33106     33108     33107     33106     33109     33108     33106     33109
     33109     33110     33111     33109     33110     33112     33110     33112     33113
     33110     33112     33114     33110     33112     33162     33111     33110     33112
     33112     33162     33163     33112     33162     33164     33112     33162     33165
     33113     33112     33114     33113     33112     33162     33114     33112     33162
     33115     33118     33119     33115     33118     33120     33115     33118     33121
     33116     33115     33117     33116     33115     33118     33117     33115     33118
     33118     33121     33122     33118     33121     33123     33118     33121     33124
     33119     33118     33120     33119     33118     33121     33120     33118     33121
     33121     33124     33125     33121     33124     33126     33121     33124     33127
     33122     33121     33123     33122     33121     33124     33123     33121     33124
     33124     33127     33128     33124     33127     33129     33124     33127     33130
     33125     33124     33126     33125     33124     33127     33126     33124     33127
     33127     33130     33131     33127     33130     33132     33127     33130     33133
     33128     33127     33129     33128     33127     33130     33129     33127     33130
     33130     33133     33134     33130     33133     33135     33131     33130     33132
     33131     33130     33133     33132     33130     33133     33133     33135     33136
     33133     33135     33137     33134     33133     33135     33135     33137     33138
     33135     33137     33139     33135     33137     33140     33136     33135     33137
     33137     33140     33141     33137     33140     33142     33137     33140     33143
     33138     33137     33139     33138     33137     33140     33139     33137     33140
     33140     33143     33144     33140     33143     33145     33140     33143     33146
     33141     33140     33142     33141     33140     33143     33142     33140     33143
     33143     33146     33147     33143     33146     33148     33143     33146     33149
     33144     33143     33145     33144     33143     33146     33145     33143     33146
     33146     33149     33150     33146     33149     33151     33146     33149     33152
     33147     33146     33148     33147     33146     33149     33148     33146     33149
     33149     33152     33153     33149     33152     33154     33149     33152     33155
     33150     33149     33151     33150     33149     33152     33151     33149     33152
     33152     33155     33156     33152     33155     33157     33152     33155     33158
     33153     33152     33154     33153     33152     33155     33154     33152     33155
     33155     33158     33159     33155     33158     33160     33155     33158     33161
     33156     33155     33157     33156     33155     33158     33157     33155     33158
     33159     33158     33160     33159     33158     33161     33160     33158     33161
     33162     33165     33166     33162     33165     33167     33162     33165     33168
     33163     33162     33164     33163     33162     33165     33164     33162     33165
     33165     33168     33169     33165     33168     33170     33165     33168     33171
     33166     33165     33167     33166     33165     33168     33167     33165     33168
     33168     33171     33172     33168     33171     33173     33168     33171     33174
     33169     33168     33170     33169     33168     33171     33170     33168     33171
     33171     33174     33175     33171     33174     33176     33171     33174     33177
     33172     33171     33173     33172     33171     33174     33173     33171     33174
     33174     33177     33178     33174     33177     33179     33174     33177     33180
     33175     33174     33176     33175     33174     33177     33176     33174     33177
     33177     33180     33181     33177     33180     33182     33177     33180     33183
     33178     33177     33179     33178     33177     33180     33179     33177     33180
     33180     33183     33184     33180     33183     33185     33180     33183     33186
     33181     33180     33182     33181     33180     33183     33182     33180     33183
     33183     33186     33187     33183     33186     33188     33183     33186     33189
     33184     33183     33185     33184     33183     33186     33185     33183     33186
     33186     33189     33190     33186     33189     33191     33186     33189     33192
     33187     33186     33188     33187     33186     33189     33188     33186     33189
     33189     33192     33193     33189     33192     33194     33189     33192     33195
     33190     33189     33191     33190     33189     33192     33191     33189     33192
     33192     33195     33196     33192     33195     33197     33192     33195     33198
     33193     33192     33194     33193     33192     33195     33194     33192     33195
     33195     33198     33199     33195     33198     33200     33195     33198     33201
     33196     33195     33197     33196     33195     33198     33197     33195     33198
     33198     33201     33202     33198     33201     33203     33198     33201     33204
     33199     33198     33200     33199     33198     33201     33200     33198     33201
     33202     33201     33203     33202     33201     33204     33203     33201     33204
     33205     33206     33207     33205     33206     33208     33205     33206     33221
     33205     33209     33210     33205     33209     33211     33205     33209     33212
     33205     33213     33214     33205     33213     33215     33205     33213     33216
     33205     33217     33218     33205     33217     33219     33205     33217     33220
     33206     33205     33209     33206     33205     33213     33206     33205     33217
     33206     33221     33222     33206     33221     33223     33206     33221     33227
     33207     33206     33208     33207     33206     33221     33208     33206     33221
     33209     33205     33213     33209     33205     33217     33210     33209     33211
     33210     33209     33212     33211     33209     33212     33213     33205     33217
     33214     33213     33215     33214     33213     33216     33215     33213     33216
     33218     33217     33219     33218     33217     33220     33219     33217     33220
     33221     33227     33224     33222     33221     33223     33222     33221     33227
     33223     33221     33227     33224     33228     33229     33225     33224     33226
     33225     33224     33227     33225     33224     33228     33226     33224     33227
     33226     33224     33228     33227     33224     33228     33228     33229     33230
     33228     33229     33231     33228     33229     33232     33229     33232     33233
     33229     33232     33234     33229     33232     33240     33230     33229     33231
     33230     33229     33232     33231     33229     33232     33232     33234     33235
     33232     33240     33241     33232     33240     33242     33232     33240     33243
     33233     33232     33234     33233     33232     33240     33234     33232     33240
     33234     33235     33236     33234     33235     33237     33235     33237     33238
     33235     33237     33239     33235     33237     33249     33236     33235     33237
     33237     33249     33250     33237     33249     33251     33237     33249     33252
     33238     33237     33239     33238     33237     33249     33239     33237     33249
     33240     33243     33244     33241     33240     33242     33241     33240     33243
     33242     33240     33243     33243     33244     33245     33243     33244     33246
     33244     33246     33247     33244     33246     33248     33244     33246     33296
     33245     33244     33246     33246     33296     33297     33246     33296     33298
     33246     33296     33299     33247     33246     33248     33247     33246     33296
     33248     33246     33296     33249     33252     33253     33249     33252     33254
     33249     33252     33255     33250     33249     33251     33250     33249     33252
     33251     33249     33252     33252     33255     33256     33252     33255     33257
     33252     33255     33258     33253     33252     33254     33253     33252     33255
     33254     33252     33255     33255     33258     33259     33255     33258     33260
     33255     33258     33261     33256     33255     33257     33256     33255     33258
     33257     33255     33258     33258     33261     33262     33258     33261     33263
     33258     33261     33264     33259     33258     33260     33259     33258     33261
     33260     33258     33261     33261     33264     33265     33261     33264     33266
     33261     33264     33267     33262     33261     33263     33262     33261     33264
     33263     33261     33264     33264     33267     33268     33264     33267     33269
     33265     33264     33266     33265     33264     33267     33266     33264     33267
     33267     33269     33270     33267     33269     33271     33268     33267     33269
     33269     33271     33272     33269     33271     33273     33269     33271     33274
     33270     33269     33271     33271     33274     33275     33271     33274     33276
     33271     33274     33277     33272     33271     33273     33272     33271     33274
     33273     33271     33274     33274     33277     33278     33274     33277     33279
     33274     33277     33280     33275     33274     33276     33275     33274     33277
     33276     33274     33277     33277     33280     33281     33277     33280     33282
     33277     33280     33283     33278     33277     33279     33278     33277     33280
     33279     33277     33280     33280     33283     33284     33280     33283     33285
     33280     33283     33286     33281     33280     33282     33281     33280     33283
     33282     33280     33283     33283     33286     33287     33283     33286     33288
     33283     33286     33289     33284     33283     33285     33284     33283     33286
     33285     33283     33286     33286     33289     33290     33286     33289     33291
     33286     33289     33292     33287     33286     33288     33287     33286     33289
     33288     33286     33289     33289     33292     33293     33289     33292     33294
     33289     33292     33295     33290     33289     33291     33290     33289     33292
     33291     33289     33292     33293     33292     33294     33293     33292     33295
     33294     33292     33295     33296     33299     33300     33296     33299     33301
     33296     33299     33302     33297     33296     33298     33297     33296     33299
     33298     33296     33299     33299     33302     33303     33299     33302     33304
     33299     33302     33305     33300     33299     33301     33300     33299     33302
     33301     33299     33302     33302     33305     33306     33302     33305     33307
     33302     33305     33308     33303     33302     33304     33303     33302     33305
     33304     33302     33305     33305     33308     33309     33305     33308     33310
     33305     33308     33311     33306     33305     33307     33306     33305     33308
     33307     33305     33308     33308     33311     33312     33308     33311     33313
     33308     33311     33314     33309     33308     33310     33309     33308     33311
     33310     33308     33311     33311     33314     33315     33311     33314     33316
     33311     33314     33317     33312     33311     33313     33312     33311     33314
     33313     33311     33314     33314     33317     33318     33314     33317     33319
     33314     33317     33320     33315     33314     33316     33315     33314     33317
     33316     33314     33317     33317     33320     33321     33317     33320     33322
     33317     33320     33323     33318     33317     33319     33318     33317     33320
     33319     33317     33320     33320     33323     33324     33320     33323     33325
     33320     33323     33326     33321     33320     33322     33321     33320     33323
     33322     33320     33323     33323     33326     33327     33323     33326     33328
     33323     33326     33329     33324     33323     33325     33324     33323     33326
     33325     33323     33326     33326     33329     33330     33326     33329     33331
     33326     33329     33332     33327     33326     33328     33327     33326     33329
     33328     33326     33329     33329     33332     33333     33329     33332     33334
     33329     33332     33335     33330     33329     33331     33330     33329     33332
     33331     33329     33332     33332     33335     33336     33332     33335     33337
     33332     33335     33338     33333     33332     33334     33333     33332     33335
     33334     33332     33335     33336     33335     33337     33336     33335     33338
     33337     33335     33338     33339     33340     33341     33339     33340     33342
     33339     33340     33355     33339     33343     33344     33339     33343     33345
     33339     33343     33346     33339     33347     33348     33339     33347     33349
     33339     33347     33350     33339     33351     33352     33339     33351     33353
     33339     33351     33354     33340     33339     33343     33340     33339     33347
     33340     33339     33351     33340     33355     33356     33340     33355     33357
     33340     33355     33361     33341     33340     33342     33341     33340     33355
     33342     33340     33355     33343     33339     33347     33343     33339     33351
     33344     33343     33345     33344     33343     33346     33345     33343     33346
     33347     33339     33351     33348     33347     33349     33348     33347     33350
     33349     33347     33350     33352     33351     33353     33352     33351     33354
     33353     33351     33354     33355     33361     33358     33356     33355     33357
     33356     33355     33361     33357     33355     33361     33358     33362     33363
     33359     33358     33360     33359     33358     33361     33359     33358     33362
     33360     33358     33361     33360     33358     33362     33361     33358     33362
     33362     33363     33364     33362     33363     33365     33362     33363     33366
     33363     33366     33367     33363     33366     33368     33363     33366     33374
     33364     33363     33365     33364     33363     33366     33365     33363     33366
     33366     33368     33369     33366     33374     33375     33366     33374     33376
     33366     33374     33377     33367     33366     33368     33367     33366     33374
     33368     33366     33374     33368     33369     33370     33368     33369     33371
     33369     33371     33372     33369     33371     33373     33369     33371     33383
     33370     33369     33371     33371     33383     33384     33371     33383     33385
     33371     33383     33386     33372     33371     33373     33372     33371     33383
     33373     33371     33383     33374     33377     33378     33375     33374     33376
     33375     33374     33377     33376     33374     33377     33377     33378     33379
     33377     33378     33380     33378     33380     33381     33378     33380     33382
     33378     33380     33430     33379     33378     33380     33380     33430     33431
     33380     33430     33432     33380     33430     33433     33381     33380     33382
     33381     33380     33430     33382     33380     33430     33383     33386     33387
     33383     33386     33388     33383     33386     33389     33384     33383     33385
     33384     33383     33386     33385     33383     33386     33386     33389     33390
     33386     33389     33391     33386     33389     33392     33387     33386     33388
     33387     33386     33389     33388     33386     33389     33389     33392     33393
     33389     33392     33394     33389     33392     33395     33390     33389     33391
     33390     33389     33392     33391     33389     33392     33392     33395     33396
     33392     33395     33397     33392     33395     33398     33393     33392     33394
     33393     33392     33395     33394     33392     33395     33395     33398     33399
     33395     33398     33400     33395     33398     33401     33396     33395     33397
     33396     33395     33398     33397     33395     33398     33398     33401     33402
     33398     33401     33403     33399     33398     33400     33399     33398     33401
     33400     33398     33401     33401     33403     33404     33401     33403     33405
     33402     33401     33403     33403     33405     33406     33403     33405     33407
     33403     33405     33408     33404     33403     33405     33405     33408     33409
     33405     33408     33410     33405     33408     33411     33406     33405     33407
     33406     33405     33408     33407     33405     33408     33408     33411     33412
     33408     33411     33413     33408     33411     33414     33409     33408     33410
     33409     33408     33411     33410     33408     33411     33411     33414     33415
     33411     33414     33416     33411     33414     33417     33412     33411     33413
     33412     33411     33414     33413     33411     33414     33414     33417     33418
     33414     33417     33419     33414     33417     33420     33415     33414     33416
     33415     33414     33417     33416     33414     33417     33417     33420     33421
     33417     33420     33422     33417     33420     33423     33418     33417     33419
     33418     33417     33420     33419     33417     33420     33420     33423     33424
     33420     33423     33425     33420     33423     33426     33421     33420     33422
     33421     33420     33423     33422     33420     33423     33423     33426     33427
     33423     33426     33428     33423     33426     33429     33424     33423     33425
     33424     33423     33426     33425     33423     33426     33427     33426     33428
     33427     33426     33429     33428     33426     33429     33430     33433     33434
     33430     33433     33435     33430     33433     33436     33431     33430     33432
     33431     33430     33433     33432     33430     33433     33433     33436     33437
     33433     33436     33438     33433     33436     33439     33434     33433     33435
     33434     33433     33436     33435     33433     33436     33436     33439     33440
     33436     33439     33441     33436     33439     33442     33437     33436     33438
     33437     33436     33439     33438     33436     33439     33439     33442     33443
     33439     33442     33444     33439     33442     33445     33440     33439     33441
     33440     33439     33442     33441     33439     33442     33442     33445     33446
     33442     33445     33447     33442     33445     33448     33443     33442     33444
     33443     33442     33445     33444     33442     33445     33445     33448     33449
     33445     33448     33450     33445     33448     33451     33446     33445     33447
     33446     33445     33448     33447     33445     33448     33448     33451     33452
     33448     33451     33453     33448     33451     33454     33449     33448     33450
     33449     33448     33451     33450     33448     33451     33451     33454     33455
     33451     33454     33456     33451     33454     33457     33452     33451     33453
     33452     33451     33454     33453     33451     33454     33454     33457     33458
     33454     33457     33459     33454     33457     33460     33455     33454     33456
     33455     33454     33457     33456     33454     33457     33457     33460     33461
     33457     33460     33462     33457     33460     33463     33458     33457     33459
     33458     33457     33460     33459     33457     33460     33460     33463     33464
     33460     33463     33465     33460     33463     33466     33461     33460     33462
     33461     33460     33463     33462     33460     33463     33463     33466     33467
     33463     33466     33468     33463     33466     33469     33464     33463     33465
     33464     33463     33466     33465     33463     33466     33466     33469     33470
     33466     33469     33471     33466     33469     33472     33467     33466     33468
     33467     33466     33469     33468     33466     33469     33470     33469     33471
     33470     33469     33472     33471     33469     33472     33473     33474     33475
     33473     33474     33476     33473     33474     33489     33473     33477     33478
     33473     33477     33479     33473     33477     33480     33473     33481     33482
     33473     33481     33483     33473     33481     33484     33473     33485     33486
     33473     33485     33487     33473     33485     33488     33474     33473     33477
     33474     33473     33481     33474     33473     33485     33474     33489     33490
     33474     33489     33491     33474     33489     33495     33475     33474     33476
     33475     33474     33489     33476     33474     33489     33477     33473     33481
     33477     33473     33485     33478     33477     33479     33478     33477     33480
     33479     33477     33480     33481     33473     33485     33482     33481     33483
     33482     33481     33484     33483     33481     33484     33486     33485     33487
     33486     33485     33488     33487     33485     33488     33489     33495     33492
     33490     33489     33491     33490     33489     33495     33491     33489     33495
     33492     33496     33497     33493     33492     33494     33493     33492     33495
     33493     33492     33496     33494     33492     33495     33494     33492     33496
     33495     33492     33496     33496     33497     33498     33496     33497     33499
     33496     33497     33500     33497     33500     33501     33497     33500     33502
     33497     33500     33508     33498     33497     33499     33498     33497     33500
     33499     33497     33500     33500     33502     33503     33500     33508     33509
     33500     33508     33510     33500     33508     33511     33501     33500     33502
     33501     33500     33508     33502     33500     33508     33502     33503     33504
     33502     33503     33505     33503     33505     33506     33503     33505     33507
     33503     33505     33517     33504     33503     33505     33505     33517     33518
     33505     33517     33519     33505     33517     33520     33506     33505     33507
     33506     33505     33517     33507     33505     33517     33508     33511     33512
     33509     33508     33510     33509     33508     33511     33510     33508     33511
     33511     33512     33513     33511     33512     33514     33512     33514     33515
     33512     33514     33516     33512     33514     33564     33513     33512     33514
     33514     33564     33565     33514     33564     33566     33514     33564     33567
     33515     33514     33516     33515     33514     33564     33516     33514     33564
     33517     33520     33521     33517     33520     33522     33517     33520     33523
     33518     33517     33519     33518     33517     33520     33519     33517     33520
     33520     33523     33524     33520     33523     33525     33520     33523     33526
     33521     33520     33522     33521     33520     33523     33522     33520     33523
     33523     33526     33527     33523     33526     33528     33523     33526     33529
     33524     33523     33525     33524     33523     33526     33525     33523     33526
     33526     33529     33530     33526     33529     33531     33526     33529     33532
     33527     33526     33528     33527     33526     33529     33528     33526     33529
     33529     33532     33533     33529     33532     33534     33529     33532     33535
     33530     33529     33531     33530     33529     33532     33531     33529     33532
     33532     33535     33536     33532     33535     33537     33533     33532     33534
     33533     33532     33535     33534     33532     33535     33535     33537     33538
     33535     33537     33539     33536     33535     33537     33537     33539     33540
     33537     33539     33541     33537     33539     33542     33538     33537     33539
     33539     33542     33543     33539     33542     33544     33539     33542     33545
     33540     33539     33541     33540     33539     33542     33541     33539     33542
     33542     33545     33546     33542     33545     33547     33542     33545     33548
     33543     33542     33544     33543     33542     33545     33544     33542     33545
     33545     33548     33549     33545     33548     33550     33545     33548     33551
     33546     33545     33547     33546     33545     33548     33547     33545     33548
     33548     33551     33552     33548     33551     33553     33548     33551     33554
     33549     33548     33550     33549     33548     33551     33550     33548     33551
     33551     33554     33555     33551     33554     33556     33551     33554     33557
     33552     33551     33553     33552     33551     33554     33553     33551     33554
     33554     33557     33558     33554     33557     33559     33554     33557     33560
     33555     33554     33556     33555     33554     33557     33556     33554     33557
     33557     33560     33561     33557     33560     33562     33557     33560     33563
     33558     33557     33559     33558     33557     33560     33559     33557     33560
     33561     33560     33562     33561     33560     33563     33562     33560     33563
     33564     33567     33568     33564     33567     33569     33564     33567     33570
     33565     33564     33566     33565     33564     33567     33566     33564     33567
     33567     33570     33571     33567     33570     33572     33567     33570     33573
     33568     33567     33569     33568     33567     33570     33569     33567     33570
     33570     33573     33574     33570     33573     33575     33570     33573     33576
     33571     33570     33572     33571     33570     33573     33572     33570     33573
     33573     33576     33577     33573     33576     33578     33573     33576     33579
     33574     33573     33575     33574     33573     33576     33575     33573     33576
     33576     33579     33580     33576     33579     33581     33576     33579     33582
     33577     33576     33578     33577     33576     33579     33578     33576     33579
     33579     33582     33583     33579     33582     33584     33579     33582     33585
     33580     33579     33581     33580     33579     33582     33581     33579     33582
     33582     33585     33586     33582     33585     33587     33582     33585     33588
     33583     33582     33584     33583     33582     33585     33584     33582     33585
     33585     33588     33589     33585     33588     33590     33585     33588     33591
     33586     33585     33587     33586     33585     33588     33587     33585     33588
     33588     33591     33592     33588     33591     33593     33588     33591     33594
     33589     33588     33590     33589     33588     33591     33590     33588     33591
     33591     33594     33595     33591     33594     33596     33591     33594     33597
     33592     33591     33593     33592     33591     33594     33593     33591     33594
     33594     33597     33598     33594     33597     33599     33594     33597     33600
     33595     33594     33596     33595     33594     33597     33596     33594     33597
     33597     33600     33601     33597     33600     33602     33597     33600     33603
     33598     33597     33599     33598     33597     33600     33599     33597     33600
     33600     33603     33604     33600     33603     33605     33600     33603     33606
     33601     33600     33602     33601     33600     33603     33602     33600     33603
     33604     33603     33605     33604     33603     33606     33605     33603     33606
     33607     33608     33609     33607     33608     33610     33607     33608     33623
     33607     33611     33612     33607     33611     33613     33607     33611     33614
     33607     33615     33616     33607     33615     33617     33607     33615     33618
     33607     33619     33620     33607     33619     33621     33607     33619     33622
     33608     33607     33611     33608     33607     33615     33608     33607     33619
     33608     33623     33624     33608     33623     33625     33608     33623     33629
     33609     33608     33610     33609     33608     33623     33610     33608     33623
     33611     33607     33615     33611     33607     33619     33612     33611     33613
     33612     33611     33614     33613     33611     33614     33615     33607     33619
     33616     33615     33617     33616     33615     33618     33617     33615     33618
     33620     33619     33621     33620     33619     33622     33621     33619     33622
     33623     33629     33626     33624     33623     33625     33624     33623     33629
     33625     33623     33629     33626     33630     33631     33627     33626     33628
     33627     33626     33629     33627     33626     33630     33628     33626     33629
     33628     33626     33630     33629     33626     33630     33630     33631     33632
     33630     33631     33633     33630     33631     33634     33631     33634     33635
     33631     33634     33636     33631     33634     33642     33632     33631     33633
     33632     33631     33634     33633     33631     33634     33634     33636     33637
     33634     33642     33643     33634     33642     33644     33634     33642     33645
     33635     33634     33636     33635     33634     33642     33636     33634     33642
     33636     33637     33638     33636     33637     33639     33637     33639     33640
     33637     33639     33641     33637     33639     33651     33638     33637     33639
     33639     33651     33652     33639     33651     33653     33639     33651     33654
     33640     33639     33641     33640     33639     33651     33641     33639     33651
     33642     33645     33646     33643     33642     33644     33643     33642     33645
     33644     33642     33645     33645     33646     33647     33645     33646     33648
     33646     33648     33649     33646     33648     33650     33646     33648     33698
     33647     33646     33648     33648     33698     33699     33648     33698     33700
     33648     33698     33701     33649     33648     33650     33649     33648     33698
     33650     33648     33698     33651     33654     33655     33651     33654     33656
     33651     33654     33657     33652     33651     33653     33652     33651     33654
     33653     33651     33654     33654     33657     33658     33654     33657     33659
     33654     33657     33660     33655     33654     33656     33655     33654     33657
     33656     33654     33657     33657     33660     33661     33657     33660     33662
     33657     33660     33663     33658     33657     33659     33658     33657     33660
     33659     33657     33660     33660     33663     33664     33660     33663     33665
     33660     33663     33666     33661     33660     33662     33661     33660     33663
     33662     33660     33663     33663     33666     33667     33663     33666     33668
     33663     33666     33669     33664     33663     33665     33664     33663     33666
     33665     33663     33666     33666     33669     33670     33666     33669     33671
     33667     33666     33668     33667     33666     33669     33668     33666     33669
     33669     33671     33672     33669     33671     33673     33670     33669     33671
     33671     33673     33674     33671     33673     33675     33671     33673     33676
     33672     33671     33673     33673     33676     33677     33673     33676     33678
     33673     33676     33679     33674     33673     33675     33674     33673     33676
     33675     33673     33676     33676     33679     33680     33676     33679     33681
     33676     33679     33682     33677     33676     33678     33677     33676     33679
     33678     33676     33679     33679     33682     33683     33679     33682     33684
     33679     33682     33685     33680     33679     33681     33680     33679     33682
     33681     33679     33682     33682     33685     33686     33682     33685     33687
     33682     33685     33688     33683     33682     33684     33683     33682     33685
     33684     33682     33685     33685     33688     33689     33685     33688     33690
     33685     33688     33691     33686     33685     33687     33686     33685     33688
     33687     33685     33688     33688     33691     33692     33688     33691     33693
     33688     33691     33694     33689     33688     33690     33689     33688     33691
     33690     33688     33691     33691     33694     33695     33691     33694     33696
     33691     33694     33697     33692     33691     33693     33692     33691     33694
     33693     33691     33694     33695     33694     33696     33695     33694     33697
     33696     33694     33697     33698     33701     33702     33698     33701     33703
     33698     33701     33704     33699     33698     33700     33699     33698     33701
     33700     33698     33701     33701     33704     33705     33701     33704     33706
     33701     33704     33707     33702     33701     33703     33702     33701     33704
     33703     33701     33704     33704     33707     33708     33704     33707     33709
     33704     33707     33710     33705     33704     33706     33705     33704     33707
     33706     33704     33707     33707     33710     33711     33707     33710     33712
     33707     33710     33713     33708     33707     33709     33708     33707     33710
     33709     33707     33710     33710     33713     33714     33710     33713     33715
     33710     33713     33716     33711     33710     33712     33711     33710     33713
     33712     33710     33713     33713     33716     33717     33713     33716     33718
     33713     33716     33719     33714     33713     33715     33714     33713     33716
     33715     33713     33716     33716     33719     33720     33716     33719     33721
     33716     33719     33722     33717     33716     33718     33717     33716     33719
     33718     33716     33719     33719     33722     33723     33719     33722     33724
     33719     33722     33725     33720     33719     33721     33720     33719     33722
     33721     33719     33722     33722     33725     33726     33722     33725     33727
     33722     33725     33728     33723     33722     33724     33723     33722     33725
     33724     33722     33725     33725     33728     33729     33725     33728     33730
     33725     33728     33731     33726     33725     33727     33726     33725     33728
     33727     33725     33728     33728     33731     33732     33728     33731     33733
     33728     33731     33734     33729     33728     33730     33729     33728     33731
     33730     33728     33731     33731     33734     33735     33731     33734     33736
     33731     33734     33737     33732     33731     33733     33732     33731     33734
     33733     33731     33734     33734     33737     33738     33734     33737     33739
     33734     33737     33740     33735     33734     33736     33735     33734     33737
     33736     33734     33737     33738     33737     33739     33738     33737     33740
     33739     33737     33740     33741     33742     33743     33741     33742     33744
     33741     33742     33757     33741     33745     33746     33741     33745     33747
     33741     33745     33748     33741     33749     33750     33741     33749     33751
     33741     33749     33752     33741     33753     33754     33741     33753     33755
     33741     33753     33756     33742     33741     33745     33742     33741     33749
     33742     33741     33753     33742     33757     33758     33742     33757     33759
     33742     33757     33763     33743     33742     33744     33743     33742     33757
     33744     33742     33757     33745     33741     33749     33745     33741     33753
     33746     33745     33747     33746     33745     33748     33747     33745     33748
     33749     33741     33753     33750     33749     33751     33750     33749     33752
     33751     33749     33752     33754     33753     33755     33754     33753     33756
     33755     33753     33756     33757     33763     33760     33758     33757     33759
     33758     33757     33763     33759     33757     33763     33760     33764     33765
     33761     33760     33762     33761     33760     33763     33761     33760     33764
     33762     33760     33763     33762     33760     33764     33763     33760     33764
     33764     33765     33766     33764     33765     33767     33764     33765     33768
     33765     33768     33769     33765     33768     33770     33765     33768     33776
     33766     33765     33767     33766     33765     33768     33767     33765     33768
     33768     33770     33771     33768     33776     33777     33768     33776     33778
     33768     33776     33779     33769     33768     33770     33769     33768     33776
     33770     33768     33776     33770     33771     33772     33770     33771     33773
     33771     33773     33774     33771     33773     33775     33771     33773     33785
     33772     33771     33773     33773     33785     33786     33773     33785     33787
     33773     33785     33788     33774     33773     33775     33774     33773     33785
     33775     33773     33785     33776     33779     33780     33777     33776     33778
     33777     33776     33779     33778     33776     33779     33779     33780     33781
     33779     33780     33782     33780     33782     33783     33780     33782     33784
     33780     33782     33832     33781     33780     33782     33782     33832     33833
     33782     33832     33834     33782     33832     33835     33783     33782     33784
     33783     33782     33832     33784     33782     33832     33785     33788     33789
     33785     33788     33790     33785     33788     33791     33786     33785     33787
     33786     33785     33788     33787     33785     33788     33788     33791     33792
     33788     33791     33793     33788     33791     33794     33789     33788     33790
     33789     33788     33791     33790     33788     33791     33791     33794     33795
     33791     33794     33796     33791     33794     33797     33792     33791     33793
     33792     33791     33794     33793     33791     33794     33794     33797     33798
     33794     33797     33799     33794     33797     33800     33795     33794     33796
     33795     33794     33797     33796     33794     33797     33797     33800     33801
     33797     33800     33802     33797     33800     33803     33798     33797     33799
     33798     33797     33800     33799     33797     33800     33800     33803     33804
     33800     33803     33805     33801     33800     33802     33801     33800     33803
     33802     33800     33803     33803     33805     33806     33803     33805     33807
     33804     33803     33805     33805     33807     33808     33805     33807     33809
     33805     33807     33810     33806     33805     33807     33807     33810     33811
     33807     33810     33812     33807     33810     33813     33808     33807     33809
     33808     33807     33810     33809     33807     33810     33810     33813     33814
     33810     33813     33815     33810     33813     33816     33811     33810     33812
     33811     33810     33813     33812     33810     33813     33813     33816     33817
     33813     33816     33818     33813     33816     33819     33814     33813     33815
     33814     33813     33816     33815     33813     33816     33816     33819     33820
     33816     33819     33821     33816     33819     33822     33817     33816     33818
     33817     33816     33819     33818     33816     33819     33819     33822     33823
     33819     33822     33824     33819     33822     33825     33820     33819     33821
     33820     33819     33822     33821     33819     33822     33822     33825     33826
     33822     33825     33827     33822     33825     33828     33823     33822     33824
     33823     33822     33825     33824     33822     33825     33825     33828     33829
     33825     33828     33830     33825     33828     33831     33826     33825     33827
     33826     33825     33828     33827     33825     33828     33829     33828     33830
     33829     33828     33831     33830     33828     33831     33832     33835     33836
     33832     33835     33837     33832     33835     33838     33833     33832     33834
     33833     33832     33835     33834     33832     33835     33835     33838     33839
     33835     33838     33840     33835     33838     33841     33836     33835     33837
     33836     33835     33838     33837     33835     33838     33838     33841     33842
     33838     33841     33843     33838     33841     33844     33839     33838     33840
     33839     33838     33841     33840     33838     33841     33841     33844     33845
     33841     33844     33846     33841     33844     33847     33842     33841     33843
     33842     33841     33844     33843     33841     33844     33844     33847     33848
     33844     33847     33849     33844     33847     33850     33845     33844     33846
     33845     33844     33847     33846     33844     33847     33847     33850     33851
     33847     33850     33852     33847     33850     33853     33848     33847     33849
     33848     33847     33850     33849     33847     33850     33850     33853     33854
     33850     33853     33855     33850     33853     33856     33851     33850     33852
     33851     33850     33853     33852     33850     33853     33853     33856     33857
     33853     33856     33858     33853     33856     33859     33854     33853     33855
     33854     33853     33856     33855     33853     33856     33856     33859     33860
     33856     33859     33861     33856     33859     33862     33857     33856     33858
     33857     33856     33859     33858     33856     33859     33859     33862     33863
     33859     33862     33864     33859     33862     33865     33860     33859     33861
     33860     33859     33862     33861     33859     33862     33862     33865     33866
     33862     33865     33867     33862     33865     33868     33863     33862     33864
     33863     33862     33865     33864     33862     33865     33865     33868     33869
     33865     33868     33870     33865     33868     33871     33866     33865     33867
     33866     33865     33868     33867     33865     33868     33868     33871     33872
     33868     33871     33873     33868     33871     33874     33869     33868     33870
     33869     33868     33871     33870     33868     33871     33872     33871     33873
     33872     33871     33874     33873     33871     33874     33875     33876     33877
     33875     33876     33878     33875     33876     33891     33875     33879     33880
     33875     33879     33881     33875     33879     33882     33875     33883     33884
     33875     33883     33885     33875     33883     33886     33875     33887     33888
     33875     33887     33889     33875     33887     33890     33876     33875     33879
     33876     33875     33883     33876     33875     33887     33876     33891     33892
     33876     33891     33893     33876     33891     33897     33877     33876     33878
     33877     33876     33891     33878     33876     33891     33879     33875     33883
     33879     33875     33887     33880     33879     33881     33880     33879     33882
     33881     33879     33882     33883     33875     33887     33884     33883     33885
     33884     33883     33886     33885     33883     33886     33888     33887     33889
     33888     33887     33890     33889     33887     33890     33891     33897     33894
     33892     33891     33893     33892     33891     33897     33893     33891     33897
     33894     33898     33899     33895     33894     33896     33895     33894     33897
     33895     33894     33898     33896     33894     33897     33896     33894     33898
     33897     33894     33898     33898     33899     33900     33898     33899     33901
     33898     33899     33902     33899     33902     33903     33899     33902     33904
     33899     33902     33910     33900     33899     33901     33900     33899     33902
     33901     33899     33902     33902     33904     33905     33902     33910     33911
     33902     33910     33912     33902     33910     33913     33903     33902     33904
     33903     33902     33910     33904     33902     33910     33904     33905     33906
     33904     33905     33907     33905     33907     33908     33905     33907     33909
     33905     33907     33919     33906     33905     33907     33907     33919     33920
     33907     33919     33921     33907     33919     33922     33908     33907     33909
     33908     33907     33919     33909     33907     33919     33910     33913     33914
     33911     33910     33912     33911     33910     33913     33912     33910     33913
     33913     33914     33915     33913     33914     33916     33914     33916     33917
     33914     33916     33918     33914     33916     33966     33915     33914     33916
     33916     33966     33967     33916     33966     33968     33916     33966     33969
     33917     33916     33918     33917     33916     33966     33918     33916     33966
     33919     33922     33923     33919     33922     33924     33919     33922     33925
     33920     33919     33921     33920     33919     33922     33921     33919     33922
     33922     33925     33926     33922     33925     33927     33922     33925     33928
     33923     33922     33924     33923     33922     33925     33924     33922     33925
     33925     33928     33929     33925     33928     33930     33925     33928     33931
     33926     33925     33927     33926     33925     33928     33927     33925     33928
     33928     33931     33932     33928     33931     33933     33928     33931     33934
     33929     33928     33930     33929     33928     33931     33930     33928     33931
     33931     33934     33935     33931     33934     33936     33931     33934     33937
     33932     33931     33933     33932     33931     33934     33933     33931     33934
     33934     33937     33938     33934     33937     33939     33935     33934     33936
     33935     33934     33937     33936     33934     33937     33937     33939     33940
     33937     33939     33941     33938     33937     33939     33939     33941     33942
     33939     33941     33943     33939     33941     33944     33940     33939     33941
     33941     33944     33945     33941     33944     33946     33941     33944     33947
     33942     33941     33943     33942     33941     33944     33943     33941     33944
     33944     33947     33948     33944     33947     33949     33944     33947     33950
     33945     33944     33946     33945     33944     33947     33946     33944     33947
     33947     33950     33951     33947     33950     33952     33947     33950     33953
     33948     33947     33949     33948     33947     33950     33949     33947     33950
     33950     33953     33954     33950     33953     33955     33950     33953     33956
     33951     33950     33952     33951     33950     33953     33952     33950     33953
     33953     33956     33957     33953     33956     33958     33953     33956     33959
     33954     33953     33955     33954     33953     33956     33955     33953     33956
     33956     33959     33960     33956     33959     33961     33956     33959     33962
     33957     33956     33958     33957     33956     33959     33958     33956     33959
     33959     33962     33963     33959     33962     33964     33959     33962     33965
     33960     33959     33961     33960     33959     33962     33961     33959     33962
     33963     33962     33964     33963     33962     33965     33964     33962     33965
     33966     33969     33970     33966     33969     33971     33966     33969     33972
     33967     33966     33968     33967     33966     33969     33968     33966     33969
     33969     33972     33973     33969     33972     33974     33969     33972     33975
     33970     33969     33971     33970     33969     33972     33971     33969     33972
     33972     33975     33976     33972     33975     33977     33972     33975     33978
     33973     33972     33974     33973     33972     33975     33974     33972     33975
     33975     33978     33979     33975     33978     33980     33975     33978     33981
     33976     33975     33977     33976     33975     33978     33977     33975     33978
     33978     33981     33982     33978     33981     33983     33978     33981     33984
     33979     33978     33980     33979     33978     33981     33980     33978     33981
     33981     33984     33985     33981     33984     33986     33981     33984     33987
     33982     33981     33983     33982     33981     33984     33983     33981     33984
     33984     33987     33988     33984     33987     33989     33984     33987     33990
     33985     33984     33986     33985     33984     33987     33986     33984     33987
     33987     33990     33991     33987     33990     33992     33987     33990     33993
     33988     33987     33989     33988     33987     33990     33989     33987     33990
     33990     33993     33994     33990     33993     33995     33990     33993     33996
     33991     33990     33992     33991     33990     33993     33992     33990     33993
     33993     33996     33997     33993     33996     33998     33993     33996     33999
     33994     33993     33995     33994     33993     33996     33995     33993     33996
     33996     33999     34000     33996     33999     34001     33996     33999     34002
     33997     33996     33998     33997     33996     33999     33998     33996     33999
     33999     34002     34003     33999     34002     34004     33999     34002     34005
     34000     33999     34001     34000     33999     34002     34001     33999     34002
     34002     34005     34006     34002     34005     34007     34002     34005     34008
     34003     34002     34004     34003     34002     34005     34004     34002     34005
     34006     34005     34007     34006     34005     34008     34007     34005     34008
     34009     34010     34011     34009     34010     34012     34009     34010     34025
     34009     34013     34014     34009     34013     34015     34009     34013     34016
     34009     34017     34018     34009     34017     34019     34009     34017     34020
     34009     34021     34022     34009     34021     34023     34009     34021     34024
     34010     34009     34013     34010     34009     34017     34010     34009     34021
     34010     34025     34026     34010     34025     34027     34010     34025     34031
     34011     34010     34012     34011     34010     34025     34012     34010     34025
     34013     34009     34017     34013     34009     34021     34014     34013     34015
     34014     34013     34016     34015     34013     34016     34017     34009     34021
     34018     34017     34019     34018     34017     34020     34019     34017     34020
     34022     34021     34023     34022     34021     34024     34023     34021     34024
     34025     34031     34028     34026     34025     34027     34026     34025     34031
     34027     34025     34031     34028     34032     34033     34029     34028     34030
     34029     34028     34031     34029     34028     34032     34030     34028     34031
     34030     34028     34032     34031     34028     34032     34032     34033     34034
     34032     34033     34035     34032     34033     34036     34033     34036     34037
     34033     34036     34038     34033     34036     34044     34034     34033     34035
     34034     34033     34036     34035     34033     34036     34036     34038     34039
     34036     34044     34045     34036     34044     34046     34036     34044     34047
     34037     34036     34038     34037     34036     34044     34038     34036     34044
     34038     34039     34040     34038     34039     34041     34039     34041     34042
     34039     34041     34043     34039     34041     34053     34040     34039     34041
     34041     34053     34054     34041     34053     34055     34041     34053     34056
     34042     34041     34043     34042     34041     34053     34043     34041     34053
     34044     34047     34048     34045     34044     34046     34045     34044     34047
     34046     34044     34047     34047     34048     34049     34047     34048     34050
     34048     34050     34051     34048     34050     34052     34048     34050     34100
     34049     34048     34050     34050     34100     34101     34050     34100     34102
     34050     34100     34103     34051     34050     34052     34051     34050     34100
     34052     34050     34100     34053     34056     34057     34053     34056     34058
     34053     34056     34059     34054     34053     34055     34054     34053     34056
     34055     34053     34056     34056     34059     34060     34056     34059     34061
     34056     34059     34062     34057     34056     34058     34057     34056     34059
     34058     34056     34059     34059     34062     34063     34059     34062     34064
     34059     34062     34065     34060     34059     34061     34060     34059     34062
     34061     34059     34062     34062     34065     34066     34062     34065     34067
     34062     34065     34068     34063     34062     34064     34063     34062     34065
     34064     34062     34065     34065     34068     34069     34065     34068     34070
     34065     34068     34071     34066     34065     34067     34066     34065     34068
     34067     34065     34068     34068     34071     34072     34068     34071     34073
     34069     34068     34070     34069     34068     34071     34070     34068     34071
     34071     34073     34074     34071     34073     34075     34072     34071     34073
     34073     34075     34076     34073     34075     34077     34073     34075     34078
     34074     34073     34075     34075     34078     34079     34075     34078     34080
     34075     34078     34081     34076     34075     34077     34076     34075     34078
     34077     34075     34078     34078     34081     34082     34078     34081     34083
     34078     34081     34084     34079     34078     34080     34079     34078     34081
     34080     34078     34081     34081     34084     34085     34081     34084     34086
     34081     34084     34087     34082     34081     34083     34082     34081     34084
     34083     34081     34084     34084     34087     34088     34084     34087     34089
     34084     34087     34090     34085     34084     34086     34085     34084     34087
     34086     34084     34087     34087     34090     34091     34087     34090     34092
     34087     34090     34093     34088     34087     34089     34088     34087     34090
     34089     34087     34090     34090     34093     34094     34090     34093     34095
     34090     34093     34096     34091     34090     34092     34091     34090     34093
     34092     34090     34093     34093     34096     34097     34093     34096     34098
     34093     34096     34099     34094     34093     34095     34094     34093     34096
     34095     34093     34096     34097     34096     34098     34097     34096     34099
     34098     34096     34099     34100     34103     34104     34100     34103     34105
     34100     34103     34106     34101     34100     34102     34101     34100     34103
     34102     34100     34103     34103     34106     34107     34103     34106     34108
     34103     34106     34109     34104     34103     34105     34104     34103     34106
     34105     34103     34106     34106     34109     34110     34106     34109     34111
     34106     34109     34112     34107     34106     34108     34107     34106     34109
     34108     34106     34109     34109     34112     34113     34109     34112     34114
     34109     34112     34115     34110     34109     34111     34110     34109     34112
     34111     34109     34112     34112     34115     34116     34112     34115     34117
     34112     34115     34118     34113     34112     34114     34113     34112     34115
     34114     34112     34115     34115     34118     34119     34115     34118     34120
     34115     34118     34121     34116     34115     34117     34116     34115     34118
     34117     34115     34118     34118     34121     34122     34118     34121     34123
     34118     34121     34124     34119     34118     34120     34119     34118     34121
     34120     34118     34121     34121     34124     34125     34121     34124     34126
     34121     34124     34127     34122     34121     34123     34122     34121     34124
     34123     34121     34124     34124     34127     34128     34124     34127     34129
     34124     34127     34130     34125     34124     34126     34125     34124     34127
     34126     34124     34127     34127     34130     34131     34127     34130     34132
     34127     34130     34133     34128     34127     34129     34128     34127     34130
     34129     34127     34130     34130     34133     34134     34130     34133     34135
     34130     34133     34136     34131     34130     34132     34131     34130     34133
     34132     34130     34133     34133     34136     34137     34133     34136     34138
     34133     34136     34139     34134     34133     34135     34134     34133     34136
     34135     34133     34136     34136     34139     34140     34136     34139     34141
     34136     34139     34142     34137     34136     34138     34137     34136     34139
     34138     34136     34139     34140     34139     34141     34140     34139     34142
     34141     34139     34142     34143     34144     34145     34143     34144     34146
     34143     34144     34159     34143     34147     34148     34143     34147     34149
     34143     34147     34150     34143     34151     34152     34143     34151     34153
     34143     34151     34154     34143     34155     34156     34143     34155     34157
     34143     34155     34158     34144     34143     34147     34144     34143     34151
     34144     34143     34155     34144     34159     34160     34144     34159     34161
     34144     34159     34165     34145     34144     34146     34145     34144     34159
     34146     34144     34159     34147     34143     34151     34147     34143     34155
     34148     34147     34149     34148     34147     34150     34149     34147     34150
     34151     34143     34155     34152     34151     34153     34152     34151     34154
     34153     34151     34154     34156     34155     34157     34156     34155     34158
     34157     34155     34158     34159     34165     34162     34160     34159     34161
     34160     34159     34165     34161     34159     34165     34162     34166     34167
     34163     34162     34164     34163     34162     34165     34163     34162     34166
     34164     34162     34165     34164     34162     34166     34165     34162     34166
     34166     34167     34168     34166     34167     34169     34166     34167     34170
     34167     34170     34171     34167     34170     34172     34167     34170     34178
     34168     34167     34169     34168     34167     34170     34169     34167     34170
     34170     34172     34173     34170     34178     34179     34170     34178     34180
     34170     34178     34181     34171     34170     34172     34171     34170     34178
     34172     34170     34178     34172     34173     34174     34172     34173     34175
     34173     34175     34176     34173     34175     34177     34173     34175     34187
     34174     34173     34175     34175     34187     34188     34175     34187     34189
     34175     34187     34190     34176     34175     34177     34176     34175     34187
     34177     34175     34187     34178     34181     34182     34179     34178     34180
     34179     34178     34181     34180     34178     34181     34181     34182     34183
     34181     34182     34184     34182     34184     34185     34182     34184     34186
     34182     34184     34234     34183     34182     34184     34184     34234     34235
     34184     34234     34236     34184     34234     34237     34185     34184     34186
     34185     34184     34234     34186     34184     34234     34187     34190     34191
     34187     34190     34192     34187     34190     34193     34188     34187     34189
     34188     34187     34190     34189     34187     34190     34190     34193     34194
     34190     34193     34195     34190     34193     34196     34191     34190     34192
     34191     34190     34193     34192     34190     34193     34193     34196     34197
     34193     34196     34198     34193     34196     34199     34194     34193     34195
     34194     34193     34196     34195     34193     34196     34196     34199     34200
     34196     34199     34201     34196     34199     34202     34197     34196     34198
     34197     34196     34199     34198     34196     34199     34199     34202     34203
     34199     34202     34204     34199     34202     34205     34200     34199     34201
     34200     34199     34202     34201     34199     34202     34202     34205     34206
     34202     34205     34207     34203     34202     34204     34203     34202     34205
     34204     34202     34205     34205     34207     34208     34205     34207     34209
     34206     34205     34207     34207     34209     34210     34207     34209     34211
     34207     34209     34212     34208     34207     34209     34209     34212     34213
     34209     34212     34214     34209     34212     34215     34210     34209     34211
     34210     34209     34212     34211     34209     34212     34212     34215     34216
     34212     34215     34217     34212     34215     34218     34213     34212     34214
     34213     34212     34215     34214     34212     34215     34215     34218     34219
     34215     34218     34220     34215     34218     34221     34216     34215     34217
     34216     34215     34218     34217     34215     34218     34218     34221     34222
     34218     34221     34223     34218     34221     34224     34219     34218     34220
     34219     34218     34221     34220     34218     34221     34221     34224     34225
     34221     34224     34226     34221     34224     34227     34222     34221     34223
     34222     34221     34224     34223     34221     34224     34224     34227     34228
     34224     34227     34229     34224     34227     34230     34225     34224     34226
     34225     34224     34227     34226     34224     34227     34227     34230     34231
     34227     34230     34232     34227     34230     34233     34228     34227     34229
     34228     34227     34230     34229     34227     34230     34231     34230     34232
     34231     34230     34233     34232     34230     34233     34234     34237     34238
     34234     34237     34239     34234     34237     34240     34235     34234     34236
     34235     34234     34237     34236     34234     34237     34237     34240     34241
     34237     34240     34242     34237     34240     34243     34238     34237     34239
     34238     34237     34240     34239     34237     34240     34240     34243     34244
     34240     34243     34245     34240     34243     34246     34241     34240     34242
     34241     34240     34243     34242     34240     34243     34243     34246     34247
     34243     34246     34248     34243     34246     34249     34244     34243     34245
     34244     34243     34246     34245     34243     34246     34246     34249     34250
     34246     34249     34251     34246     34249     34252     34247     34246     34248
     34247     34246     34249     34248     34246     34249     34249     34252     34253
     34249     34252     34254     34249     34252     34255     34250     34249     34251
     34250     34249     34252     34251     34249     34252     34252     34255     34256
     34252     34255     34257     34252     34255     34258     34253     34252     34254
     34253     34252     34255     34254     34252     34255     34255     34258     34259
     34255     34258     34260     34255     34258     34261     34256     34255     34257
     34256     34255     34258     34257     34255     34258     34258     34261     34262
     34258     34261     34263     34258     34261     34264     34259     34258     34260
     34259     34258     34261     34260     34258     34261     34261     34264     34265
     34261     34264     34266     34261     34264     34267     34262     34261     34263
     34262     34261     34264     34263     34261     34264     34264     34267     34268
     34264     34267     34269     34264     34267     34270     34265     34264     34266
     34265     34264     34267     34266     34264     34267     34267     34270     34271
     34267     34270     34272     34267     34270     34273     34268     34267     34269
     34268     34267     34270     34269     34267     34270     34270     34273     34274
     34270     34273     34275     34270     34273     34276     34271     34270     34272
     34271     34270     34273     34272     34270     34273     34274     34273     34275
     34274     34273     34276     34275     34273     34276     34277     34278     34279
     34277     34278     34280     34277     34278     34293     34277     34281     34282
     34277     34281     34283     34277     34281     34284     34277     34285     34286
     34277     34285     34287     34277     34285     34288     34277     34289     34290
     34277     34289     34291     34277     34289     34292     34278     34277     34281
     34278     34277     34285     34278     34277     34289     34278     34293     34294
     34278     34293     34295     34278     34293     34299     34279     34278     34280
     34279     34278     34293     34280     34278     34293     34281     34277     34285
     34281     34277     34289     34282     34281     34283     34282     34281     34284
     34283     34281     34284     34285     34277     34289     34286     34285     34287
     34286     34285     34288     34287     34285     34288     34290     34289     34291
     34290     34289     34292     34291     34289     34292     34293     34299     34296
     34294     34293     34295     34294     34293     34299     34295     34293     34299
     34296     34300     34301     34297     34296     34298     34297     34296     34299
     34297     34296     34300     34298     34296     34299     34298     34296     34300
     34299     34296     34300     34300     34301     34302     34300     34301     34303
     34300     34301     34304     34301     34304     34305     34301     34304     34306
     34301     34304     34312     34302     34301     34303     34302     34301     34304
     34303     34301     34304     34304     34306     34307     34304     34312     34313
     34304     34312     34314     34304     34312     34315     34305     34304     34306
     34305     34304     34312     34306     34304     34312     34306     34307     34308
     34306     34307     34309     34307     34309     34310     34307     34309     34311
     34307     34309     34321     34308     34307     34309     34309     34321     34322
     34309     34321     34323     34309     34321     34324     34310     34309     34311
     34310     34309     34321     34311     34309     34321     34312     34315     34316
     34313     34312     34314     34313     34312     34315     34314     34312     34315
     34315     34316     34317     34315     34316     34318     34316     34318     34319
     34316     34318     34320     34316     34318     34368     34317     34316     34318
     34318     34368     34369     34318     34368     34370     34318     34368     34371
     34319     34318     34320     34319     34318     34368     34320     34318     34368
     34321     34324     34325     34321     34324     34326     34321     34324     34327
     34322     34321     34323     34322     34321     34324     34323     34321     34324
     34324     34327     34328     34324     34327     34329     34324     34327     34330
     34325     34324     34326     34325     34324     34327     34326     34324     34327
     34327     34330     34331     34327     34330     34332     34327     34330     34333
     34328     34327     34329     34328     34327     34330     34329     34327     34330
     34330     34333     34334     34330     34333     34335     34330     34333     34336
     34331     34330     34332     34331     34330     34333     34332     34330     34333
     34333     34336     34337     34333     34336     34338     34333     34336     34339
     34334     34333     34335     34334     34333     34336     34335     34333     34336
     34336     34339     34340     34336     34339     34341     34337     34336     34338
     34337     34336     34339     34338     34336     34339     34339     34341     34342
     34339     34341     34343     34340     34339     34341     34341     34343     34344
     34341     34343     34345     34341     34343     34346     34342     34341     34343
     34343     34346     34347     34343     34346     34348     34343     34346     34349
     34344     34343     34345     34344     34343     34346     34345     34343     34346
     34346     34349     34350     34346     34349     34351     34346     34349     34352
     34347     34346     34348     34347     34346     34349     34348     34346     34349
     34349     34352     34353     34349     34352     34354     34349     34352     34355
     34350     34349     34351     34350     34349     34352     34351     34349     34352
     34352     34355     34356     34352     34355     34357     34352     34355     34358
     34353     34352     34354     34353     34352     34355     34354     34352     34355
     34355     34358     34359     34355     34358     34360     34355     34358     34361
     34356     34355     34357     34356     34355     34358     34357     34355     34358
     34358     34361     34362     34358     34361     34363     34358     34361     34364
     34359     34358     34360     34359     34358     34361     34360     34358     34361
     34361     34364     34365     34361     34364     34366     34361     34364     34367
     34362     34361     34363     34362     34361     34364     34363     34361     34364
     34365     34364     34366     34365     34364     34367     34366     34364     34367
     34368     34371     34372     34368     34371     34373     34368     34371     34374
     34369     34368     34370     34369     34368     34371     34370     34368     34371
     34371     34374     34375     34371     34374     34376     34371     34374     34377
     34372     34371     34373     34372     34371     34374     34373     34371     34374
     34374     34377     34378     34374     34377     34379     34374     34377     34380
     34375     34374     34376     34375     34374     34377     34376     34374     34377
     34377     34380     34381     34377     34380     34382     34377     34380     34383
     34378     34377     34379     34378     34377     34380     34379     34377     34380
     34380     34383     34384     34380     34383     34385     34380     34383     34386
     34381     34380     34382     34381     34380     34383     34382     34380     34383
     34383     34386     34387     34383     34386     34388     34383     34386     34389
     34384     34383     34385     34384     34383     34386     34385     34383     34386
     34386     34389     34390     34386     34389     34391     34386     34389     34392
     34387     34386     34388     34387     34386     34389     34388     34386     34389
     34389     34392     34393     34389     34392     34394     34389     34392     34395
     34390     34389     34391     34390     34389     34392     34391     34389     34392
     34392     34395     34396     34392     34395     34397     34392     34395     34398
     34393     34392     34394     34393     34392     34395     34394     34392     34395
     34395     34398     34399     34395     34398     34400     34395     34398     34401
     34396     34395     34397     34396     34395     34398     34397     34395     34398
     34398     34401     34402     34398     34401     34403     34398     34401     34404
     34399     34398     34400     34399     34398     34401     34400     34398     34401
     34401     34404     34405     34401     34404     34406     34401     34404     34407
     34402     34401     34403     34402     34401     34404     34403     34401     34404
     34404     34407     34408     34404     34407     34409     34404     34407     34410
     34405     34404     34406     34405     34404     34407     34406     34404     34407
     34408     34407     34409     34408     34407     34410     34409     34407     34410
     34411     34412     34413     34411     34412     34414     34411     34412     34427
     34411     34415     34416     34411     34415     34417     34411     34415     34418
     34411     34419     34420     34411     34419     34421     34411     34419     34422
     34411     34423     34424     34411     34423     34425     34411     34423     34426
     34412     34411     34415     34412     34411     34419     34412     34411     34423
     34412     34427     34428     34412     34427     34429     34412     34427     34433
     34413     34412     34414     34413     34412     34427     34414     34412     34427
     34415     34411     34419     34415     34411     34423     34416     34415     34417
     34416     34415     34418     34417     34415     34418     34419     34411     34423
     34420     34419     34421     34420     34419     34422     34421     34419     34422
     34424     34423     34425     34424     34423     34426     34425     34423     34426
     34427     34433     34430     34428     34427     34429     34428     34427     34433
     34429     34427     34433     34430     34434     34435     34431     34430     34432
     34431     34430     34433     34431     34430     34434     34432     34430     34433
     34432     34430     34434     34433     34430     34434     34434     34435     34436
     34434     34435     34437     34434     34435     34438     34435     34438     34439
     34435     34438     34440     34435     34438     34446     34436     34435     34437
     34436     34435     34438     34437     34435     34438     34438     34440     34441
     34438     34446     34447     34438     34446     34448     34438     34446     34449
     34439     34438     34440     34439     34438     34446     34440     34438     34446
     34440     34441     34442     34440     34441     34443     34441     34443     34444
     34441     34443     34445     34441     34443     34455     34442     34441     34443
     34443     34455     34456     34443     34455     34457     34443     34455     34458
     34444     34443     34445     34444     34443     34455     34445     34443     34455
     34446     34449     34450     34447     34446     34448     34447     34446     34449
     34448     34446     34449     34449     34450     34451     34449     34450     34452
     34450     34452     34453     34450     34452     34454     34450     34452     34502
     34451     34450     34452     34452     34502     34503     34452     34502     34504
     34452     34502     34505     34453     34452     34454     34453     34452     34502
     34454     34452     34502     34455     34458     34459     34455     34458     34460
     34455     34458     34461     34456     34455     34457     34456     34455     34458
     34457     34455     34458     34458     34461     34462     34458     34461     34463
     34458     34461     34464     34459     34458     34460     34459     34458     34461
     34460     34458     34461     34461     34464     34465     34461     34464     34466
     34461     34464     34467     34462     34461     34463     34462     34461     34464
     34463     34461     34464     34464     34467     34468     34464     34467     34469
     34464     34467     34470     34465     34464     34466     34465     34464     34467
     34466     34464     34467     34467     34470     34471     34467     34470     34472
     34467     34470     34473     34468     34467     34469     34468     34467     34470
     34469     34467     34470     34470     34473     34474     34470     34473     34475
     34471     34470     34472     34471     34470     34473     34472     34470     34473
     34473     34475     34476     34473     34475     34477     34474     34473     34475
     34475     34477     34478     34475     34477     34479     34475     34477     34480
     34476     34475     34477     34477     34480     34481     34477     34480     34482
     34477     34480     34483     34478     34477     34479     34478     34477     34480
     34479     34477     34480     34480     34483     34484     34480     34483     34485
     34480     34483     34486     34481     34480     34482     34481     34480     34483
     34482     34480     34483     34483     34486     34487     34483     34486     34488
     34483     34486     34489     34484     34483     34485     34484     34483     34486
     34485     34483     34486     34486     34489     34490     34486     34489     34491
     34486     34489     34492     34487     34486     34488     34487     34486     34489
     34488     34486     34489     34489     34492     34493     34489     34492     34494
     34489     34492     34495     34490     34489     34491     34490     34489     34492
     34491     34489     34492     34492     34495     34496     34492     34495     34497
     34492     34495     34498     34493     34492     34494     34493     34492     34495
     34494     34492     34495     34495     34498     34499     34495     34498     34500
     34495     34498     34501     34496     34495     34497     34496     34495     34498
     34497     34495     34498     34499     34498     34500     34499     34498     34501
     34500     34498     34501     34502     34505     34506     34502     34505     34507
     34502     34505     34508     34503     34502     34504     34503     34502     34505
     34504     34502     34505     34505     34508     34509     34505     34508     34510
     34505     34508     34511     34506     34505     34507     34506     34505     34508
     34507     34505     34508     34508     34511     34512     34508     34511     34513
     34508     34511     34514     34509     34508     34510     34509     34508     34511
     34510     34508     34511     34511     34514     34515     34511     34514     34516
     34511     34514     34517     34512     34511     34513     34512     34511     34514
     34513     34511     34514     34514     34517     34518     34514     34517     34519
     34514     34517     34520     34515     34514     34516     34515     34514     34517
     34516     34514     34517     34517     34520     34521     34517     34520     34522
     34517     34520     34523     34518     34517     34519     34518     34517     34520
     34519     34517     34520     34520     34523     34524     34520     34523     34525
     34520     34523     34526     34521     34520     34522     34521     34520     34523
     34522     34520     34523     34523     34526     34527     34523     34526     34528
     34523     34526     34529     34524     34523     34525     34524     34523     34526
     34525     34523     34526     34526     34529     34530     34526     34529     34531
     34526     34529     34532     34527     34526     34528     34527     34526     34529
     34528     34526     34529     34529     34532     34533     34529     34532     34534
     34529     34532     34535     34530     34529     34531     34530     34529     34532
     34531     34529     34532     34532     34535     34536     34532     34535     34537
     34532     34535     34538     34533     34532     34534     34533     34532     34535
     34534     34532     34535     34535     34538     34539     34535     34538     34540
     34535     34538     34541     34536     34535     34537     34536     34535     34538
     34537     34535     34538     34538     34541     34542     34538     34541     34543
     34538     34541     34544     34539     34538     34540     34539     34538     34541
     34540     34538     34541     34542     34541     34543     34542     34541     34544
     34543     34541     34544     34545     34546     34547     34545     34546     34548
     34545     34546     34561     34545     34549     34550     34545     34549     34551
     34545     34549     34552     34545     34553     34554     34545     34553     34555
     34545     34553     34556     34545     34557     34558     34545     34557     34559
     34545     34557     34560     34546     34545     34549     34546     34545     34553
     34546     34545     34557     34546     34561     34562     34546     34561     34563
     34546     34561     34567     34547     34546     34548     34547     34546     34561
     34548     34546     34561     34549     34545     34553     34549     34545     34557
     34550     34549     34551     34550     34549     34552     34551     34549     34552
     34553     34545     34557     34554     34553     34555     34554     34553     34556
     34555     34553     34556     34558     34557     34559     34558     34557     34560
     34559     34557     34560     34561     34567     34564     34562     34561     34563
     34562     34561     34567     34563     34561     34567     34564     34568     34569
     34565     34564     34566     34565     34564     34567     34565     34564     34568
     34566     34564     34567     34566     34564     34568     34567     34564     34568
     34568     34569     34570     34568     34569     34571     34568     34569     34572
     34569     34572     34573     34569     34572     34574     34569     34572     34580
     34570     34569     34571     34570     34569     34572     34571     34569     34572
     34572     34574     34575     34572     34580     34581     34572     34580     34582
     34572     34580     34583     34573     34572     34574     34573     34572     34580
     34574     34572     34580     34574     34575     34576     34574     34575     34577
     34575     34577     34578     34575     34577     34579     34575     34577     34589
     34576     34575     34577     34577     34589     34590     34577     34589     34591
     34577     34589     34592     34578     34577     34579     34578     34577     34589
     34579     34577     34589     34580     34583     34584     34581     34580     34582
     34581     34580     34583     34582     34580     34583     34583     34584     34585
     34583     34584     34586     34584     34586     34587     34584     34586     34588
     34584     34586     34636     34585     34584     34586     34586     34636     34637
     34586     34636     34638     34586     34636     34639     34587     34586     34588
     34587     34586     34636     34588     34586     34636     34589     34592     34593
     34589     34592     34594     34589     34592     34595     34590     34589     34591
     34590     34589     34592     34591     34589     34592     34592     34595     34596
     34592     34595     34597     34592     34595     34598     34593     34592     34594
     34593     34592     34595     34594     34592     34595     34595     34598     34599
     34595     34598     34600     34595     34598     34601     34596     34595     34597
     34596     34595     34598     34597     34595     34598     34598     34601     34602
     34598     34601     34603     34598     34601     34604     34599     34598     34600
     34599     34598     34601     34600     34598     34601     34601     34604     34605
     34601     34604     34606     34601     34604     34607     34602     34601     34603
     34602     34601     34604     34603     34601     34604     34604     34607     34608
     34604     34607     34609     34605     34604     34606     34605     34604     34607
     34606     34604     34607     34607     34609     34610     34607     34609     34611
     34608     34607     34609     34609     34611     34612     34609     34611     34613
     34609     34611     34614     34610     34609     34611     34611     34614     34615
     34611     34614     34616     34611     34614     34617     34612     34611     34613
     34612     34611     34614     34613     34611     34614     34614     34617     34618
     34614     34617     34619     34614     34617     34620     34615     34614     34616
     34615     34614     34617     34616     34614     34617     34617     34620     34621
     34617     34620     34622     34617     34620     34623     34618     34617     34619
     34618     34617     34620     34619     34617     34620     34620     34623     34624
     34620     34623     34625     34620     34623     34626     34621     34620     34622
     34621     34620     34623     34622     34620     34623     34623     34626     34627
     34623     34626     34628     34623     34626     34629     34624     34623     34625
     34624     34623     34626     34625     34623     34626     34626     34629     34630
     34626     34629     34631     34626     34629     34632     34627     34626     34628
     34627     34626     34629     34628     34626     34629     34629     34632     34633
     34629     34632     34634     34629     34632     34635     34630     34629     34631
     34630     34629     34632     34631     34629     34632     34633     34632     34634
     34633     34632     34635     34634     34632     34635     34636     34639     34640
     34636     34639     34641     34636     34639     34642     34637     34636     34638
     34637     34636     34639     34638     34636     34639     34639     34642     34643
     34639     34642     34644     34639     34642     34645     34640     34639     34641
     34640     34639     34642     34641     34639     34642     34642     34645     34646
     34642     34645     34647     34642     34645     34648     34643     34642     34644
     34643     34642     34645     34644     34642     34645     34645     34648     34649
     34645     34648     34650     34645     34648     34651     34646     34645     34647
     34646     34645     34648     34647     34645     34648     34648     34651     34652
     34648     34651     34653     34648     34651     34654     34649     34648     34650
     34649     34648     34651     34650     34648     34651     34651     34654     34655
     34651     34654     34656     34651     34654     34657     34652     34651     34653
     34652     34651     34654     34653     34651     34654     34654     34657     34658
     34654     34657     34659     34654     34657     34660     34655     34654     34656
     34655     34654     34657     34656     34654     34657     34657     34660     34661
     34657     34660     34662     34657     34660     34663     34658     34657     34659
     34658     34657     34660     34659     34657     34660     34660     34663     34664
     34660     34663     34665     34660     34663     34666     34661     34660     34662
     34661     34660     34663     34662     34660     34663     34663     34666     34667
     34663     34666     34668     34663     34666     34669     34664     34663     34665
     34664     34663     34666     34665     34663     34666     34666     34669     34670
     34666     34669     34671     34666     34669     34672     34667     34666     34668
     34667     34666     34669     34668     34666     34669     34669     34672     34673
     34669     34672     34674     34669     34672     34675     34670     34669     34671
     34670     34669     34672     34671     34669     34672     34672     34675     34676
     34672     34675     34677     34672     34675     34678     34673     34672     34674
     34673     34672     34675     34674     34672     34675     34676     34675     34677
     34676     34675     34678     34677     34675     34678     34679     34680     34681
     34679     34680     34682     34679     34680     34695     34679     34683     34684
     34679     34683     34685     34679     34683     34686     34679     34687     34688
     34679     34687     34689     34679     34687     34690     34679     34691     34692
     34679     34691     34693     34679     34691     34694     34680     34679     34683
     34680     34679     34687     34680     34679     34691     34680     34695     34696
     34680     34695     34697     34680     34695     34701     34681     34680     34682
     34681     34680     34695     34682     34680     34695     34683     34679     34687
     34683     34679     34691     34684     34683     34685     34684     34683     34686
     34685     34683     34686     34687     34679     34691     34688     34687     34689
     34688     34687     34690     34689     34687     34690     34692     34691     34693
     34692     34691     34694     34693     34691     34694     34695     34701     34698
     34696     34695     34697     34696     34695     34701     34697     34695     34701
     34698     34702     34703     34699     34698     34700     34699     34698     34701
     34699     34698     34702     34700     34698     34701     34700     34698     34702
     34701     34698     34702     34702     34703     34704     34702     34703     34705
     34702     34703     34706     34703     34706     34707     34703     34706     34708
     34703     34706     34714     34704     34703     34705     34704     34703     34706
     34705     34703     34706     34706     34708     34709     34706     34714     34715
     34706     34714     34716     34706     34714     34717     34707     34706     34708
     34707     34706     34714     34708     34706     34714     34708     34709     34710
     34708     34709     34711     34709     34711     34712     34709     34711     34713
     34709     34711     34723     34710     34709     34711     34711     34723     34724
     34711     34723     34725     34711     34723     34726     34712     34711     34713
     34712     34711     34723     34713     34711     34723     34714     34717     34718
     34715     34714     34716     34715     34714     34717     34716     34714     34717
     34717     34718     34719     34717     34718     34720     34718     34720     34721
     34718     34720     34722     34718     34720     34770     34719     34718     34720
     34720     34770     34771     34720     34770     34772     34720     34770     34773
     34721     34720     34722     34721     34720     34770     34722     34720     34770
     34723     34726     34727     34723     34726     34728     34723     34726     34729
     34724     34723     34725     34724     34723     34726     34725     34723     34726
     34726     34729     34730     34726     34729     34731     34726     34729     34732
     34727     34726     34728     34727     34726     34729     34728     34726     34729
     34729     34732     34733     34729     34732     34734     34729     34732     34735
     34730     34729     34731     34730     34729     34732     34731     34729     34732
     34732     34735     34736     34732     34735     34737     34732     34735     34738
     34733     34732     34734     34733     34732     34735     34734     34732     34735
     34735     34738     34739     34735     34738     34740     34735     34738     34741
     34736     34735     34737     34736     34735     34738     34737     34735     34738
     34738     34741     34742     34738     34741     34743     34739     34738     34740
     34739     34738     34741     34740     34738     34741     34741     34743     34744
     34741     34743     34745     34742     34741     34743     34743     34745     34746
     34743     34745     34747     34743     34745     34748     34744     34743     34745
     34745     34748     34749     34745     34748     34750     34745     34748     34751
     34746     34745     34747     34746     34745     34748     34747     34745     34748
     34748     34751     34752     34748     34751     34753     34748     34751     34754
     34749     34748     34750     34749     34748     34751     34750     34748     34751
     34751     34754     34755     34751     34754     34756     34751     34754     34757
     34752     34751     34753     34752     34751     34754     34753     34751     34754
     34754     34757     34758     34754     34757     34759     34754     34757     34760
     34755     34754     34756     34755     34754     34757     34756     34754     34757
     34757     34760     34761     34757     34760     34762     34757     34760     34763
     34758     34757     34759     34758     34757     34760     34759     34757     34760
     34760     34763     34764     34760     34763     34765     34760     34763     34766
     34761     34760     34762     34761     34760     34763     34762     34760     34763
     34763     34766     34767     34763     34766     34768     34763     34766     34769
     34764     34763     34765     34764     34763     34766     34765     34763     34766
     34767     34766     34768     34767     34766     34769     34768     34766     34769
     34770     34773     34774     34770     34773     34775     34770     34773     34776
     34771     34770     34772     34771     34770     34773     34772     34770     34773
     34773     34776     34777     34773     34776     34778     34773     34776     34779
     34774     34773     34775     34774     34773     34776     34775     34773     34776
     34776     34779     34780     34776     34779     34781     34776     34779     34782
     34777     34776     34778     34777     34776     34779     34778     34776     34779
     34779     34782     34783     34779     34782     34784     34779     34782     34785
     34780     34779     34781     34780     34779     34782     34781     34779     34782
     34782     34785     34786     34782     34785     34787     34782     34785     34788
     34783     34782     34784     34783     34782     34785     34784     34782     34785
     34785     34788     34789     34785     34788     34790     34785     34788     34791
     34786     34785     34787     34786     34785     34788     34787     34785     34788
     34788     34791     34792     34788     34791     34793     34788     34791     34794
     34789     34788     34790     34789     34788     34791     34790     34788     34791
     34791     34794     34795     34791     34794     34796     34791     34794     34797
     34792     34791     34793     34792     34791     34794     34793     34791     34794
     34794     34797     34798     34794     34797     34799     34794     34797     34800
     34795     34794     34796     34795     34794     34797     34796     34794     34797
     34797     34800     34801     34797     34800     34802     34797     34800     34803
     34798     34797     34799     34798     34797     34800     34799     34797     34800
     34800     34803     34804     34800     34803     34805     34800     34803     34806
     34801     34800     34802     34801     34800     34803     34802     34800     34803
     34803     34806     34807     34803     34806     34808     34803     34806     34809
     34804     34803     34805     34804     34803     34806     34805     34803     34806
     34806     34809     34810     34806     34809     34811     34806     34809     34812
     34807     34806     34808     34807     34806     34809     34808     34806     34809
     34810     34809     34811     34810     34809     34812     34811     34809     34812
     34813     34814     34815     34813     34814     34816     34813     34814     34829
     34813     34817     34818     34813     34817     34819     34813     34817     34820
     34813     34821     34822     34813     34821     34823     34813     34821     34824
     34813     34825     34826     34813     34825     34827     34813     34825     34828
     34814     34813     34817     34814     34813     34821     34814     34813     34825
     34814     34829     34830     34814     34829     34831     34814     34829     34835
     34815     34814     34816     34815     34814     34829     34816     34814     34829
     34817     34813     34821     34817     34813     34825     34818     34817     34819
     34818     34817     34820     34819     34817     34820     34821     34813     34825
     34822     34821     34823     34822     34821     34824     34823     34821     34824
     34826     34825     34827     34826     34825     34828     34827     34825     34828
     34829     34835     34832     34830     34829     34831     34830     34829     34835
     34831     34829     34835     34832     34836     34837     34833     34832     34834
     34833     34832     34835     34833     34832     34836     34834     34832     34835
     34834     34832     34836     34835     34832     34836     34836     34837     34838
     34836     34837     34839     34836     34837     34840     34837     34840     34841
     34837     34840     34842     34837     34840     34848     34838     34837     34839
     34838     34837     34840     34839     34837     34840     34840     34842     34843
     34840     34848     34849     34840     34848     34850     34840     34848     34851
     34841     34840     34842     34841     34840     34848     34842     34840     34848
     34842     34843     34844     34842     34843     34845     34843     34845     34846
     34843     34845     34847     34843     34845     34857     34844     34843     34845
     34845     34857     34858     34845     34857     34859     34845     34857     34860
     34846     34845     34847     34846     34845     34857     34847     34845     34857
     34848     34851     34852     34849     34848     34850     34849     34848     34851
     34850     34848     34851     34851     34852     34853     34851     34852     34854
     34852     34854     34855     34852     34854     34856     34852     34854     34904
     34853     34852     34854     34854     34904     34905     34854     34904     34906
     34854     34904     34907     34855     34854     34856     34855     34854     34904
     34856     34854     34904     34857     34860     34861     34857     34860     34862
     34857     34860     34863     34858     34857     34859     34858     34857     34860
     34859     34857     34860     34860     34863     34864     34860     34863     34865
     34860     34863     34866     34861     34860     34862     34861     34860     34863
     34862     34860     34863     34863     34866     34867     34863     34866     34868
     34863     34866     34869     34864     34863     34865     34864     34863     34866
     34865     34863     34866     34866     34869     34870     34866     34869     34871
     34866     34869     34872     34867     34866     34868     34867     34866     34869
     34868     34866     34869     34869     34872     34873     34869     34872     34874
     34869     34872     34875     34870     34869     34871     34870     34869     34872
     34871     34869     34872     34872     34875     34876     34872     34875     34877
     34873     34872     34874     34873     34872     34875     34874     34872     34875
     34875     34877     34878     34875     34877     34879     34876     34875     34877
     34877     34879     34880     34877     34879     34881     34877     34879     34882
     34878     34877     34879     34879     34882     34883     34879     34882     34884
     34879     34882     34885     34880     34879     34881     34880     34879     34882
     34881     34879     34882     34882     34885     34886     34882     34885     34887
     34882     34885     34888     34883     34882     34884     34883     34882     34885
     34884     34882     34885     34885     34888     34889     34885     34888     34890
     34885     34888     34891     34886     34885     34887     34886     34885     34888
     34887     34885     34888     34888     34891     34892     34888     34891     34893
     34888     34891     34894     34889     34888     34890     34889     34888     34891
     34890     34888     34891     34891     34894     34895     34891     34894     34896
     34891     34894     34897     34892     34891     34893     34892     34891     34894
     34893     34891     34894     34894     34897     34898     34894     34897     34899
     34894     34897     34900     34895     34894     34896     34895     34894     34897
     34896     34894     34897     34897     34900     34901     34897     34900     34902
     34897     34900     34903     34898     34897     34899     34898     34897     34900
     34899     34897     34900     34901     34900     34902     34901     34900     34903
     34902     34900     34903     34904     34907     34908     34904     34907     34909
     34904     34907     34910     34905     34904     34906     34905     34904     34907
     34906     34904     34907     34907     34910     34911     34907     34910     34912
     34907     34910     34913     34908     34907     34909     34908     34907     34910
     34909     34907     34910     34910     34913     34914     34910     34913     34915
     34910     34913     34916     34911     34910     34912     34911     34910     34913
     34912     34910     34913     34913     34916     34917     34913     34916     34918
     34913     34916     34919     34914     34913     34915     34914     34913     34916
     34915     34913     34916     34916     34919     34920     34916     34919     34921
     34916     34919     34922     34917     34916     34918     34917     34916     34919
     34918     34916     34919     34919     34922     34923     34919     34922     34924
     34919     34922     34925     34920     34919     34921     34920     34919     34922
     34921     34919     34922     34922     34925     34926     34922     34925     34927
     34922     34925     34928     34923     34922     34924     34923     34922     34925
     34924     34922     34925     34925     34928     34929     34925     34928     34930
     34925     34928     34931     34926     34925     34927     34926     34925     34928
     34927     34925     34928     34928     34931     34932     34928     34931     34933
     34928     34931     34934     34929     34928     34930     34929     34928     34931
     34930     34928     34931     34931     34934     34935     34931     34934     34936
     34931     34934     34937     34932     34931     34933     34932     34931     34934
     34933     34931     34934     34934     34937     34938     34934     34937     34939
     34934     34937     34940     34935     34934     34936     34935     34934     34937
     34936     34934     34937     34937     34940     34941     34937     34940     34942
     34937     34940     34943     34938     34937     34939     34938     34937     34940
     34939     34937     34940     34940     34943     34944     34940     34943     34945
     34940     34943     34946     34941     34940     34942     34941     34940     34943
     34942     34940     34943     34944     34943     34945     34944     34943     34946
     34945     34943     34946     34947     34948     34949     34947     34948     34950
     34947     34948     34963     34947     34951     34952     34947     34951     34953
     34947     34951     34954     34947     34955     34956     34947     34955     34957
     34947     34955     34958     34947     34959     34960     34947     34959     34961
     34947     34959     34962     34948     34947     34951     34948     34947     34955
     34948     34947     34959     34948     34963     34964     34948     34963     34965
     34948     34963     34969     34949     34948     34950     34949     34948     34963
     34950     34948     34963     34951     34947     34955     34951     34947     34959
     34952     34951     34953     34952     34951     34954     34953     34951     34954
     34955     34947     34959     34956     34955     34957     34956     34955     34958
     34957     34955     34958     34960     34959     34961     34960     34959     34962
     34961     34959     34962     34963     34969     34966     34964     34963     34965
     34964     34963     34969     34965     34963     34969     34966     34970     34971
     34967     34966     34968     34967     34966     34969     34967     34966     34970
     34968     34966     34969     34968     34966     34970     34969     34966     34970
     34970     34971     34972     34970     34971     34973     34970     34971     34974
     34971     34974     34975     34971     34974     34976     34971     34974     34982
     34972     34971     34973     34972     34971     34974     34973     34971     34974
     34974     34976     34977     34974     34982     34983     34974     34982     34984
     34974     34982     34985     34975     34974     34976     34975     34974     34982
     34976     34974     34982     34976     34977     34978     34976     34977     34979
     34977     34979     34980     34977     34979     34981     34977     34979     34991
     34978     34977     34979     34979     34991     34992     34979     34991     34993
     34979     34991     34994     34980     34979     34981     34980     34979     34991
     34981     34979     34991     34982     34985     34986     34983     34982     34984
     34983     34982     34985     34984     34982     34985     34985     34986     34987
     34985     34986     34988     34986     34988     34989     34986     34988     34990
     34986     34988     35038     34987     34986     34988     34988     35038     35039
     34988     35038     35040     34988     35038     35041     34989     34988     34990
     34989     34988     35038     34990     34988     35038     34991     34994     34995
     34991     34994     34996     34991     34994     34997     34992     34991     34993
     34992     34991     34994     34993     34991     34994     34994     34997     34998
     34994     34997     34999     34994     34997     35000     34995     34994     34996
     34995     34994     34997     34996     34994     34997     34997     35000     35001
     34997     35000     35002     34997     35000     35003     34998     34997     34999
     34998     34997     35000     34999     34997     35000     35000     35003     35004
     35000     35003     35005     35000     35003     35006     35001     35000     35002
     35001     35000     35003     35002     35000     35003     35003     35006     35007
     35003     35006     35008     35003     35006     35009     35004     35003     35005
     35004     35003     35006     35005     35003     35006     35006     35009     35010
     35006     35009     35011     35007     35006     35008     35007     35006     35009
     35008     35006     35009     35009     35011     35012     35009     35011     35013
     35010     35009     35011     35011     35013     35014     35011     35013     35015
     35011     35013     35016     35012     35011     35013     35013     35016     35017
     35013     35016     35018     35013     35016     35019     35014     35013     35015
     35014     35013     35016     35015     35013     35016     35016     35019     35020
     35016     35019     35021     35016     35019     35022     35017     35016     35018
     35017     35016     35019     35018     35016     35019     35019     35022     35023
     35019     35022     35024     35019     35022     35025     35020     35019     35021
     35020     35019     35022     35021     35019     35022     35022     35025     35026
     35022     35025     35027     35022     35025     35028     35023     35022     35024
     35023     35022     35025     35024     35022     35025     35025     35028     35029
     35025     35028     35030     35025     35028     35031     35026     35025     35027
     35026     35025     35028     35027     35025     35028     35028     35031     35032
     35028     35031     35033     35028     35031     35034     35029     35028     35030
     35029     35028     35031     35030     35028     35031     35031     35034     35035
     35031     35034     35036     35031     35034     35037     35032     35031     35033
     35032     35031     35034     35033     35031     35034     35035     35034     35036
     35035     35034     35037     35036     35034     35037     35038     35041     35042
     35038     35041     35043     35038     35041     35044     35039     35038     35040
     35039     35038     35041     35040     35038     35041     35041     35044     35045
     35041     35044     35046     35041     35044     35047     35042     35041     35043
     35042     35041     35044     35043     35041     35044     35044     35047     35048
     35044     35047     35049     35044     35047     35050     35045     35044     35046
     35045     35044     35047     35046     35044     35047     35047     35050     35051
     35047     35050     35052     35047     35050     35053     35048     35047     35049
     35048     35047     35050     35049     35047     35050     35050     35053     35054
     35050     35053     35055     35050     35053     35056     35051     35050     35052
     35051     35050     35053     35052     35050     35053     35053     35056     35057
     35053     35056     35058     35053     35056     35059     35054     35053     35055
     35054     35053     35056     35055     35053     35056     35056     35059     35060
     35056     35059     35061     35056     35059     35062     35057     35056     35058
     35057     35056     35059     35058     35056     35059     35059     35062     35063
     35059     35062     35064     35059     35062     35065     35060     35059     35061
     35060     35059     35062     35061     35059     35062     35062     35065     35066
     35062     35065     35067     35062     35065     35068     35063     35062     35064
     35063     35062     35065     35064     35062     35065     35065     35068     35069
     35065     35068     35070     35065     35068     35071     35066     35065     35067
     35066     35065     35068     35067     35065     35068     35068     35071     35072
     35068     35071     35073     35068     35071     35074     35069     35068     35070
     35069     35068     35071     35070     35068     35071     35071     35074     35075
     35071     35074     35076     35071     35074     35077     35072     35071     35073
     35072     35071     35074     35073     35071     35074     35074     35077     35078
     35074     35077     35079     35074     35077     35080     35075     35074     35076
     35075     35074     35077     35076     35074     35077     35078     35077     35079
     35078     35077     35080     35079     35077     35080     35081     35082     35083
     35081     35082     35084     35081     35082     35097     35081     35085     35086
     35081     35085     35087     35081     35085     35088     35081     35089     35090
     35081     35089     35091     35081     35089     35092     35081     35093     35094
     35081     35093     35095     35081     35093     35096     35082     35081     35085
     35082     35081     35089     35082     35081     35093     35082     35097     35098
     35082     35097     35099     35082     35097     35103     35083     35082     35084
     35083     35082     35097     35084     35082     35097     35085     35081     35089
     35085     35081     35093     35086     35085     35087     35086     35085     35088
     35087     35085     35088     35089     35081     35093     35090     35089     35091
     35090     35089     35092     35091     35089     35092     35094     35093     35095
     35094     35093     35096     35095     35093     35096     35097     35103     35100
     35098     35097     35099     35098     35097     35103     35099     35097     35103
     35100     35104     35105     35101     35100     35102     35101     35100     35103
     35101     35100     35104     35102     35100     35103     35102     35100     35104
     35103     35100     35104     35104     35105     35106     35104     35105     35107
     35104     35105     35108     35105     35108     35109     35105     35108     35110
     35105     35108     35116     35106     35105     35107     35106     35105     35108
     35107     35105     35108     35108     35110     35111     35108     35116     35117
     35108     35116     35118     35108     35116     35119     35109     35108     35110
     35109     35108     35116     35110     35108     35116     35110     35111     35112
     35110     35111     35113     35111     35113     35114     35111     35113     35115
     35111     35113     35125     35112     35111     35113     35113     35125     35126
     35113     35125     35127     35113     35125     35128     35114     35113     35115
     35114     35113     35125     35115     35113     35125     35116     35119     35120
     35117     35116     35118     35117     35116     35119     35118     35116     35119
     35119     35120     35121     35119     35120     35122     35120     35122     35123
     35120     35122     35124     35120     35122     35172     35121     35120     35122
     35122     35172     35173     35122     35172     35174     35122     35172     35175
     35123     35122     35124     35123     35122     35172     35124     35122     35172
     35125     35128     35129     35125     35128     35130     35125     35128     35131
     35126     35125     35127     35126     35125     35128     35127     35125     35128
     35128     35131     35132     35128     35131     35133     35128     35131     35134
     35129     35128     35130     35129     35128     35131     35130     35128     35131
     35131     35134     35135     35131     35134     35136     35131     35134     35137
     35132     35131     35133     35132     35131     35134     35133     35131     35134
     35134     35137     35138     35134     35137     35139     35134     35137     35140
     35135     35134     35136     35135     35134     35137     35136     35134     35137
     35137     35140     35141     35137     35140     35142     35137     35140     35143
     35138     35137     35139     35138     35137     35140     35139     35137     35140
     35140     35143     35144     35140     35143     35145     35141     35140     35142
     35141     35140     35143     35142     35140     35143     35143     35145     35146
     35143     35145     35147     35144     35143     35145     35145     35147     35148
     35145     35147     35149     35145     35147     35150     35146     35145     35147
     35147     35150     35151     35147     35150     35152     35147     35150     35153
     35148     35147     35149     35148     35147     35150     35149     35147     35150
     35150     35153     35154     35150     35153     35155     35150     35153     35156
     35151     35150     35152     35151     35150     35153     35152     35150     35153
     35153     35156     35157     35153     35156     35158     35153     35156     35159
     35154     35153     35155     35154     35153     35156     35155     35153     35156
     35156     35159     35160     35156     35159     35161     35156     35159     35162
     35157     35156     35158     35157     35156     35159     35158     35156     35159
     35159     35162     35163     35159     35162     35164     35159     35162     35165
     35160     35159     35161     35160     35159     35162     35161     35159     35162
     35162     35165     35166     35162     35165     35167     35162     35165     35168
     35163     35162     35164     35163     35162     35165     35164     35162     35165
     35165     35168     35169     35165     35168     35170     35165     35168     35171
     35166     35165     35167     35166     35165     35168     35167     35165     35168
     35169     35168     35170     35169     35168     35171     35170     35168     35171
     35172     35175     35176     35172     35175     35177     35172     35175     35178
     35173     35172     35174     35173     35172     35175     35174     35172     35175
     35175     35178     35179     35175     35178     35180     35175     35178     35181
     35176     35175     35177     35176     35175     35178     35177     35175     35178
     35178     35181     35182     35178     35181     35183     35178     35181     35184
     35179     35178     35180     35179     35178     35181     35180     35178     35181
     35181     35184     35185     35181     35184     35186     35181     35184     35187
     35182     35181     35183     35182     35181     35184     35183     35181     35184
     35184     35187     35188     35184     35187     35189     35184     35187     35190
     35185     35184     35186     35185     35184     35187     35186     35184     35187
     35187     35190     35191     35187     35190     35192     35187     35190     35193
     35188     35187     35189     35188     35187     35190     35189     35187     35190
     35190     35193     35194     35190     35193     35195     35190     35193     35196
     35191     35190     35192     35191     35190     35193     35192     35190     35193
     35193     35196     35197     35193     35196     35198     35193     35196     35199
     35194     35193     35195     35194     35193     35196     35195     35193     35196
     35196     35199     35200     35196     35199     35201     35196     35199     35202
     35197     35196     35198     35197     35196     35199     35198     35196     35199
     35199     35202     35203     35199     35202     35204     35199     35202     35205
     35200     35199     35201     35200     35199     35202     35201     35199     35202
     35202     35205     35206     35202     35205     35207     35202     35205     35208
     35203     35202     35204     35203     35202     35205     35204     35202     35205
     35205     35208     35209     35205     35208     35210     35205     35208     35211
     35206     35205     35207     35206     35205     35208     35207     35205     35208
     35208     35211     35212     35208     35211     35213     35208     35211     35214
     35209     35208     35210     35209     35208     35211     35210     35208     35211
     35212     35211     35213     35212     35211     35214     35213     35211     35214
     35215     35216     35217     35215     35216     35218     35215     35216     35231
     35215     35219     35220     35215     35219     35221     35215     35219     35222
     35215     35223     35224     35215     35223     35225     35215     35223     35226
     35215     35227     35228     35215     35227     35229     35215     35227     35230
     35216     35215     35219     35216     35215     35223     35216     35215     35227
     35216     35231     35232     35216     35231     35233     35216     35231     35237
     35217     35216     35218     35217     35216     35231     35218     35216     35231
     35219     35215     35223     35219     35215     35227     35220     35219     35221
     35220     35219     35222     35221     35219     35222     35223     35215     35227
     35224     35223     35225     35224     35223     35226     35225     35223     35226
     35228     35227     35229     35228     35227     35230     35229     35227     35230
     35231     35237     35234     35232     35231     35233     35232     35231     35237
     35233     35231     35237     35234     35238     35239     35235     35234     35236
     35235     35234     35237     35235     35234     35238     35236     35234     35237
     35236     35234     35238     35237     35234     35238     35238     35239     35240
     35238     35239     35241     35238     35239     35242     35239     35242     35243
     35239     35242     35244     35239     35242     35250     35240     35239     35241
     35240     35239     35242     35241     35239     35242     35242     35244     35245
     35242     35250     35251     35242     35250     35252     35242     35250     35253
     35243     35242     35244     35243     35242     35250     35244     35242     35250
     35244     35245     35246     35244     35245     35247     35245     35247     35248
     35245     35247     35249     35245     35247     35259     35246     35245     35247
     35247     35259     35260     35247     35259     35261     35247     35259     35262
     35248     35247     35249     35248     35247     35259     35249     35247     35259
     35250     35253     35254     35251     35250     35252     35251     35250     35253
     35252     35250     35253     35253     35254     35255     35253     35254     35256
     35254     35256     35257     35254     35256     35258     35254     35256     35306
     35255     35254     35256     35256     35306     35307     35256     35306     35308
     35256     35306     35309     35257     35256     35258     35257     35256     35306
     35258     35256     35306     35259     35262     35263     35259     35262     35264
     35259     35262     35265     35260     35259     35261     35260     35259     35262
     35261     35259     35262     35262     35265     35266     35262     35265     35267
     35262     35265     35268     35263     35262     35264     35263     35262     35265
     35264     35262     35265     35265     35268     35269     35265     35268     35270
     35265     35268     35271     35266     35265     35267     35266     35265     35268
     35267     35265     35268     35268     35271     35272     35268     35271     35273
     35268     35271     35274     35269     35268     35270     35269     35268     35271
     35270     35268     35271     35271     35274     35275     35271     35274     35276
     35271     35274     35277     35272     35271     35273     35272     35271     35274
     35273     35271     35274     35274     35277     35278     35274     35277     35279
     35275     35274     35276     35275     35274     35277     35276     35274     35277
     35277     35279     35280     35277     35279     35281     35278     35277     35279
     35279     35281     35282     35279     35281     35283     35279     35281     35284
     35280     35279     35281     35281     35284     35285     35281     35284     35286
     35281     35284     35287     35282     35281     35283     35282     35281     35284
     35283     35281     35284     35284     35287     35288     35284     35287     35289
     35284     35287     35290     35285     35284     35286     35285     35284     35287
     35286     35284     35287     35287     35290     35291     35287     35290     35292
     35287     35290     35293     35288     35287     35289     35288     35287     35290
     35289     35287     35290     35290     35293     35294     35290     35293     35295
     35290     35293     35296     35291     35290     35292     35291     35290     35293
     35292     35290     35293     35293     35296     35297     35293     35296     35298
     35293     35296     35299     35294     35293     35295     35294     35293     35296
     35295     35293     35296     35296     35299     35300     35296     35299     35301
     35296     35299     35302     35297     35296     35298     35297     35296     35299
     35298     35296     35299     35299     35302     35303     35299     35302     35304
     35299     35302     35305     35300     35299     35301     35300     35299     35302
     35301     35299     35302     35303     35302     35304     35303     35302     35305
     35304     35302     35305     35306     35309     35310     35306     35309     35311
     35306     35309     35312     35307     35306     35308     35307     35306     35309
     35308     35306     35309     35309     35312     35313     35309     35312     35314
     35309     35312     35315     35310     35309     35311     35310     35309     35312
     35311     35309     35312     35312     35315     35316     35312     35315     35317
     35312     35315     35318     35313     35312     35314     35313     35312     35315
     35314     35312     35315     35315     35318     35319     35315     35318     35320
     35315     35318     35321     35316     35315     35317     35316     35315     35318
     35317     35315     35318     35318     35321     35322     35318     35321     35323
     35318     35321     35324     35319     35318     35320     35319     35318     35321
     35320     35318     35321     35321     35324     35325     35321     35324     35326
     35321     35324     35327     35322     35321     35323     35322     35321     35324
     35323     35321     35324     35324     35327     35328     35324     35327     35329
     35324     35327     35330     35325     35324     35326     35325     35324     35327
     35326     35324     35327     35327     35330     35331     35327     35330     35332
     35327     35330     35333     35328     35327     35329     35328     35327     35330
     35329     35327     35330     35330     35333     35334     35330     35333     35335
     35330     35333     35336     35331     35330     35332     35331     35330     35333
     35332     35330     35333     35333     35336     35337     35333     35336     35338
     35333     35336     35339     35334     35333     35335     35334     35333     35336
     35335     35333     35336     35336     35339     35340     35336     35339     35341
     35336     35339     35342     35337     35336     35338     35337     35336     35339
     35338     35336     35339     35339     35342     35343     35339     35342     35344
     35339     35342     35345     35340     35339     35341     35340     35339     35342
     35341     35339     35342     35342     35345     35346     35342     35345     35347
     35342     35345     35348     35343     35342     35344     35343     35342     35345
     35344     35342     35345     35346     35345     35347     35346     35345     35348
     35347     35345     35348     35349     35350     35351     35349     35350     35352
     35349     35350     35365     35349     35353     35354     35349     35353     35355
     35349     35353     35356     35349     35357     35358     35349     35357     35359
     35349     35357     35360     35349     35361     35362     35349     35361     35363
     35349     35361     35364     35350     35349     35353     35350     35349     35357
     35350     35349     35361     35350     35365     35366     35350     35365     35367
     35350     35365     35371     35351     35350     35352     35351     35350     35365
     35352     35350     35365     35353     35349     35357     35353     35349     35361
     35354     35353     35355     35354     35353     35356     35355     35353     35356
     35357     35349     35361     35358     35357     35359     35358     35357     35360
     35359     35357     35360     35362     35361     35363     35362     35361     35364
     35363     35361     35364     35365     35371     35368     35366     35365     35367
     35366     35365     35371     35367     35365     35371     35368     35372     35373
     35369     35368     35370     35369     35368     35371     35369     35368     35372
     35370     35368     35371     35370     35368     35372     35371     35368     35372
     35372     35373     35374     35372     35373     35375     35372     35373     35376
     35373     35376     35377     35373     35376     35378     35373     35376     35384
     35374     35373     35375     35374     35373     35376     35375     35373     35376
     35376     35378     35379     35376     35384     35385     35376     35384     35386
     35376     35384     35387     35377     35376     35378     35377     35376     35384
     35378     35376     35384     35378     35379     35380     35378     35379     35381
     35379     35381     35382     35379     35381     35383     35379     35381     35393
     35380     35379     35381     35381     35393     35394     35381     35393     35395
     35381     35393     35396     35382     35381     35383     35382     35381     35393
     35383     35381     35393     35384     35387     35388     35385     35384     35386
     35385     35384     35387     35386     35384     35387     35387     35388     35389
     35387     35388     35390     35388     35390     35391     35388     35390     35392
     35388     35390     35440     35389     35388     35390     35390     35440     35441
     35390     35440     35442     35390     35440     35443     35391     35390     35392
     35391     35390     35440     35392     35390     35440     35393     35396     35397
     35393     35396     35398     35393     35396     35399     35394     35393     35395
     35394     35393     35396     35395     35393     35396     35396     35399     35400
     35396     35399     35401     35396     35399     35402     35397     35396     35398
     35397     35396     35399     35398     35396     35399     35399     35402     35403
     35399     35402     35404     35399     35402     35405     35400     35399     35401
     35400     35399     35402     35401     35399     35402     35402     35405     35406
     35402     35405     35407     35402     35405     35408     35403     35402     35404
     35403     35402     35405     35404     35402     35405     35405     35408     35409
     35405     35408     35410     35405     35408     35411     35406     35405     35407
     35406     35405     35408     35407     35405     35408     35408     35411     35412
     35408     35411     35413     35409     35408     35410     35409     35408     35411
     35410     35408     35411     35411     35413     35414     35411     35413     35415
     35412     35411     35413     35413     35415     35416     35413     35415     35417
     35413     35415     35418     35414     35413     35415     35415     35418     35419
     35415     35418     35420     35415     35418     35421     35416     35415     35417
     35416     35415     35418     35417     35415     35418     35418     35421     35422
     35418     35421     35423     35418     35421     35424     35419     35418     35420
     35419     35418     35421     35420     35418     35421     35421     35424     35425
     35421     35424     35426     35421     35424     35427     35422     35421     35423
     35422     35421     35424     35423     35421     35424     35424     35427     35428
     35424     35427     35429     35424     35427     35430     35425     35424     35426
     35425     35424     35427     35426     35424     35427     35427     35430     35431
     35427     35430     35432     35427     35430     35433     35428     35427     35429
     35428     35427     35430     35429     35427     35430     35430     35433     35434
     35430     35433     35435     35430     35433     35436     35431     35430     35432
     35431     35430     35433     35432     35430     35433     35433     35436     35437
     35433     35436     35438     35433     35436     35439     35434     35433     35435
     35434     35433     35436     35435     35433     35436     35437     35436     35438
     35437     35436     35439     35438     35436     35439     35440     35443     35444
     35440     35443     35445     35440     35443     35446     35441     35440     35442
     35441     35440     35443     35442     35440     35443     35443     35446     35447
     35443     35446     35448     35443     35446     35449     35444     35443     35445
     35444     35443     35446     35445     35443     35446     35446     35449     35450
     35446     35449     35451     35446     35449     35452     35447     35446     35448
     35447     35446     35449     35448     35446     35449     35449     35452     35453
     35449     35452     35454     35449     35452     35455     35450     35449     35451
     35450     35449     35452     35451     35449     35452     35452     35455     35456
     35452     35455     35457     35452     35455     35458     35453     35452     35454
     35453     35452     35455     35454     35452     35455     35455     35458     35459
     35455     35458     35460     35455     35458     35461     35456     35455     35457
     35456     35455     35458     35457     35455     35458     35458     35461     35462
     35458     35461     35463     35458     35461     35464     35459     35458     35460
     35459     35458     35461     35460     35458     35461     35461     35464     35465
     35461     35464     35466     35461     35464     35467     35462     35461     35463
     35462     35461     35464     35463     35461     35464     35464     35467     35468
     35464     35467     35469     35464     35467     35470     35465     35464     35466
     35465     35464     35467     35466     35464     35467     35467     35470     35471
     35467     35470     35472     35467     35470     35473     35468     35467     35469
     35468     35467     35470     35469     35467     35470     35470     35473     35474
     35470     35473     35475     35470     35473     35476     35471     35470     35472
     35471     35470     35473     35472     35470     35473     35473     35476     35477
     35473     35476     35478     35473     35476     35479     35474     35473     35475
     35474     35473     35476     35475     35473     35476     35476     35479     35480
     35476     35479     35481     35476     35479     35482     35477     35476     35478
     35477     35476     35479     35478     35476     35479     35480     35479     35481
     35480     35479     35482     35481     35479     35482     35483     35484     35485
     35483     35484     35486     35483     35484     35499     35483     35487     35488
     35483     35487     35489     35483     35487     35490     35483     35491     35492
     35483     35491     35493     35483     35491     35494     35483     35495     35496
     35483     35495     35497     35483     35495     35498     35484     35483     35487
     35484     35483     35491     35484     35483     35495     35484     35499     35500
     35484     35499     35501     35484     35499     35505     35485     35484     35486
     35485     35484     35499     35486     35484     35499     35487     35483     35491
     35487     35483     35495     35488     35487     35489     35488     35487     35490
     35489     35487     35490     35491     35483     35495     35492     35491     35493
     35492     35491     35494     35493     35491     35494     35496     35495     35497
     35496     35495     35498     35497     35495     35498     35499     35505     35502
     35500     35499     35501     35500     35499     35505     35501     35499     35505
     35502     35506     35507     35503     35502     35504     35503     35502     35505
     35503     35502     35506     35504     35502     35505     35504     35502     35506
     35505     35502     35506     35506     35507     35508     35506     35507     35509
     35506     35507     35510     35507     35510     35511     35507     35510     35512
     35507     35510     35518     35508     35507     35509     35508     35507     35510
     35509     35507     35510     35510     35512     35513     35510     35518     35519
     35510     35518     35520     35510     35518     35521     35511     35510     35512
     35511     35510     35518     35512     35510     35518     35512     35513     35514
     35512     35513     35515     35513     35515     35516     35513     35515     35517
     35513     35515     35527     35514     35513     35515     35515     35527     35528
     35515     35527     35529     35515     35527     35530     35516     35515     35517
     35516     35515     35527     35517     35515     35527     35518     35521     35522
     35519     35518     35520     35519     35518     35521     35520     35518     35521
     35521     35522     35523     35521     35522     35524     35522     35524     35525
     35522     35524     35526     35522     35524     35574     35523     35522     35524
     35524     35574     35575     35524     35574     35576     35524     35574     35577
     35525     35524     35526     35525     35524     35574     35526     35524     35574
     35527     35530     35531     35527     35530     35532     35527     35530     35533
     35528     35527     35529     35528     35527     35530     35529     35527     35530
     35530     35533     35534     35530     35533     35535     35530     35533     35536
     35531     35530     35532     35531     35530     35533     35532     35530     35533
     35533     35536     35537     35533     35536     35538     35533     35536     35539
     35534     35533     35535     35534     35533     35536     35535     35533     35536
     35536     35539     35540     35536     35539     35541     35536     35539     35542
     35537     35536     35538     35537     35536     35539     35538     35536     35539
     35539     35542     35543     35539     35542     35544     35539     35542     35545
     35540     35539     35541     35540     35539     35542     35541     35539     35542
     35542     35545     35546     35542     35545     35547     35543     35542     35544
     35543     35542     35545     35544     35542     35545     35545     35547     35548
     35545     35547     35549     35546     35545     35547     35547     35549     35550
     35547     35549     35551     35547     35549     35552     35548     35547     35549
     35549     35552     35553     35549     35552     35554     35549     35552     35555
     35550     35549     35551     35550     35549     35552     35551     35549     35552
     35552     35555     35556     35552     35555     35557     35552     35555     35558
     35553     35552     35554     35553     35552     35555     35554     35552     35555
     35555     35558     35559     35555     35558     35560     35555     35558     35561
     35556     35555     35557     35556     35555     35558     35557     35555     35558
     35558     35561     35562     35558     35561     35563     35558     35561     35564
     35559     35558     35560     35559     35558     35561     35560     35558     35561
     35561     35564     35565     35561     35564     35566     35561     35564     35567
     35562     35561     35563     35562     35561     35564     35563     35561     35564
     35564     35567     35568     35564     35567     35569     35564     35567     35570
     35565     35564     35566     35565     35564     35567     35566     35564     35567
     35567     35570     35571     35567     35570     35572     35567     35570     35573
     35568     35567     35569     35568     35567     35570     35569     35567     35570
     35571     35570     35572     35571     35570     35573     35572     35570     35573
     35574     35577     35578     35574     35577     35579     35574     35577     35580
     35575     35574     35576     35575     35574     35577     35576     35574     35577
     35577     35580     35581     35577     35580     35582     35577     35580     35583
     35578     35577     35579     35578     35577     35580     35579     35577     35580
     35580     35583     35584     35580     35583     35585     35580     35583     35586
     35581     35580     35582     35581     35580     35583     35582     35580     35583
     35583     35586     35587     35583     35586     35588     35583     35586     35589
     35584     35583     35585     35584     35583     35586     35585     35583     35586
     35586     35589     35590     35586     35589     35591     35586     35589     35592
     35587     35586     35588     35587     35586     35589     35588     35586     35589
     35589     35592     35593     35589     35592     35594     35589     35592     35595
     35590     35589     35591     35590     35589     35592     35591     35589     35592
     35592     35595     35596     35592     35595     35597     35592     35595     35598
     35593     35592     35594     35593     35592     35595     35594     35592     35595
     35595     35598     35599     35595     35598     35600     35595     35598     35601
     35596     35595     35597     35596     35595     35598     35597     35595     35598
     35598     35601     35602     35598     35601     35603     35598     35601     35604
     35599     35598     35600     35599     35598     35601     35600     35598     35601
     35601     35604     35605     35601     35604     35606     35601     35604     35607
     35602     35601     35603     35602     35601     35604     35603     35601     35604
     35604     35607     35608     35604     35607     35609     35604     35607     35610
     35605     35604     35606     35605     35604     35607     35606     35604     35607
     35607     35610     35611     35607     35610     35612     35607     35610     35613
     35608     35607     35609     35608     35607     35610     35609     35607     35610
     35610     35613     35614     35610     35613     35615     35610     35613     35616
     35611     35610     35612     35611     35610     35613     35612     35610     35613
     35614     35613     35615     35614     35613     35616     35615     35613     35616
     35617     35618     35619     35617     35618     35620     35617     35618     35633
     35617     35621     35622     35617     35621     35623     35617     35621     35624
     35617     35625     35626     35617     35625     35627     35617     35625     35628
     35617     35629     35630     35617     35629     35631     35617     35629     35632
     35618     35617     35621     35618     35617     35625     35618     35617     35629
     35618     35633     35634     35618     35633     35635     35618     35633     35639
     35619     35618     35620     35619     35618     35633     35620     35618     35633
     35621     35617     35625     35621     35617     35629     35622     35621     35623
     35622     35621     35624     35623     35621     35624     35625     35617     35629
     35626     35625     35627     35626     35625     35628     35627     35625     35628
     35630     35629     35631     35630     35629     35632     35631     35629     35632
     35633     35639     35636     35634     35633     35635     35634     35633     35639
     35635     35633     35639     35636     35640     35641     35637     35636     35638
     35637     35636     35639     35637     35636     35640     35638     35636     35639
     35638     35636     35640     35639     35636     35640     35640     35641     35642
     35640     35641     35643     35640     35641     35644     35641     35644     35645
     35641     35644     35646     35641     35644     35652     35642     35641     35643
     35642     35641     35644     35643     35641     35644     35644     35646     35647
     35644     35652     35653     35644     35652     35654     35644     35652     35655
     35645     35644     35646     35645     35644     35652     35646     35644     35652
     35646     35647     35648     35646     35647     35649     35647     35649     35650
     35647     35649     35651     35647     35649     35661     35648     35647     35649
     35649     35661     35662     35649     35661     35663     35649     35661     35664
     35650     35649     35651     35650     35649     35661     35651     35649     35661
     35652     35655     35656     35653     35652     35654     35653     35652     35655
     35654     35652     35655     35655     35656     35657     35655     35656     35658
     35656     35658     35659     35656     35658     35660     35656     35658     35708
     35657     35656     35658     35658     35708     35709     35658     35708     35710
     35658     35708     35711     35659     35658     35660     35659     35658     35708
     35660     35658     35708     35661     35664     35665     35661     35664     35666
     35661     35664     35667     35662     35661     35663     35662     35661     35664
     35663     35661     35664     35664     35667     35668     35664     35667     35669
     35664     35667     35670     35665     35664     35666     35665     35664     35667
     35666     35664     35667     35667     35670     35671     35667     35670     35672
     35667     35670     35673     35668     35667     35669     35668     35667     35670
     35669     35667     35670     35670     35673     35674     35670     35673     35675
     35670     35673     35676     35671     35670     35672     35671     35670     35673
     35672     35670     35673     35673     35676     35677     35673     35676     35678
     35673     35676     35679     35674     35673     35675     35674     35673     35676
     35675     35673     35676     35676     35679     35680     35676     35679     35681
     35677     35676     35678     35677     35676     35679     35678     35676     35679
     35679     35681     35682     35679     35681     35683     35680     35679     35681
     35681     35683     35684     35681     35683     35685     35681     35683     35686
     35682     35681     35683     35683     35686     35687     35683     35686     35688
     35683     35686     35689     35684     35683     35685     35684     35683     35686
     35685     35683     35686     35686     35689     35690     35686     35689     35691
     35686     35689     35692     35687     35686     35688     35687     35686     35689
     35688     35686     35689     35689     35692     35693     35689     35692     35694
     35689     35692     35695     35690     35689     35691     35690     35689     35692
     35691     35689     35692     35692     35695     35696     35692     35695     35697
     35692     35695     35698     35693     35692     35694     35693     35692     35695
     35694     35692     35695     35695     35698     35699     35695     35698     35700
     35695     35698     35701     35696     35695     35697     35696     35695     35698
     35697     35695     35698     35698     35701     35702     35698     35701     35703
     35698     35701     35704     35699     35698     35700     35699     35698     35701
     35700     35698     35701     35701     35704     35705     35701     35704     35706
     35701     35704     35707     35702     35701     35703     35702     35701     35704
     35703     35701     35704     35705     35704     35706     35705     35704     35707
     35706     35704     35707     35708     35711     35712     35708     35711     35713
     35708     35711     35714     35709     35708     35710     35709     35708     35711
     35710     35708     35711     35711     35714     35715     35711     35714     35716
     35711     35714     35717     35712     35711     35713     35712     35711     35714
     35713     35711     35714     35714     35717     35718     35714     35717     35719
     35714     35717     35720     35715     35714     35716     35715     35714     35717
     35716     35714     35717     35717     35720     35721     35717     35720     35722
     35717     35720     35723     35718     35717     35719     35718     35717     35720
     35719     35717     35720     35720     35723     35724     35720     35723     35725
     35720     35723     35726     35721     35720     35722     35721     35720     35723
     35722     35720     35723     35723     35726     35727     35723     35726     35728
     35723     35726     35729     35724     35723     35725     35724     35723     35726
     35725     35723     35726     35726     35729     35730     35726     35729     35731
     35726     35729     35732     35727     35726     35728     35727     35726     35729
     35728     35726     35729     35729     35732     35733     35729     35732     35734
     35729     35732     35735     35730     35729     35731     35730     35729     35732
     35731     35729     35732     35732     35735     35736     35732     35735     35737
     35732     35735     35738     35733     35732     35734     35733     35732     35735
     35734     35732     35735     35735     35738     35739     35735     35738     35740
     35735     35738     35741     35736     35735     35737     35736     35735     35738
     35737     35735     35738     35738     35741     35742     35738     35741     35743
     35738     35741     35744     35739     35738     35740     35739     35738     35741
     35740     35738     35741     35741     35744     35745     35741     35744     35746
     35741     35744     35747     35742     35741     35743     35742     35741     35744
     35743     35741     35744     35744     35747     35748     35744     35747     35749
     35744     35747     35750     35745     35744     35746     35745     35744     35747
     35746     35744     35747     35748     35747     35749     35748     35747     35750
     35749     35747     35750     35751     35752     35753     35751     35752     35754
     35751     35752     35767     35751     35755     35756     35751     35755     35757
     35751     35755     35758     35751     35759     35760     35751     35759     35761
     35751     35759     35762     35751     35763     35764     35751     35763     35765
     35751     35763     35766     35752     35751     35755     35752     35751     35759
     35752     35751     35763     35752     35767     35768     35752     35767     35769
     35752     35767     35773     35753     35752     35754     35753     35752     35767
     35754     35752     35767     35755     35751     35759     35755     35751     35763
     35756     35755     35757     35756     35755     35758     35757     35755     35758
     35759     35751     35763     35760     35759     35761     35760     35759     35762
     35761     35759     35762     35764     35763     35765     35764     35763     35766
     35765     35763     35766     35767     35773     35770     35768     35767     35769
     35768     35767     35773     35769     35767     35773     35770     35774     35775
     35771     35770     35772     35771     35770     35773     35771     35770     35774
     35772     35770     35773     35772     35770     35774     35773     35770     35774
     35774     35775     35776     35774     35775     35777     35774     35775     35778
     35775     35778     35779     35775     35778     35780     35775     35778     35786
     35776     35775     35777     35776     35775     35778     35777     35775     35778
     35778     35780     35781     35778     35786     35787     35778     35786     35788
     35778     35786     35789     35779     35778     35780     35779     35778     35786
     35780     35778     35786     35780     35781     35782     35780     35781     35783
     35781     35783     35784     35781     35783     35785     35781     35783     35795
     35782     35781     35783     35783     35795     35796     35783     35795     35797
     35783     35795     35798     35784     35783     35785     35784     35783     35795
     35785     35783     35795     35786     35789     35790     35787     35786     35788
     35787     35786     35789     35788     35786     35789     35789     35790     35791
     35789     35790     35792     35790     35792     35793     35790     35792     35794
     35790     35792     35842     35791     35790     35792     35792     35842     35843
     35792     35842     35844     35792     35842     35845     35793     35792     35794
     35793     35792     35842     35794     35792     35842     35795     35798     35799
     35795     35798     35800     35795     35798     35801     35796     35795     35797
     35796     35795     35798     35797     35795     35798     35798     35801     35802
     35798     35801     35803     35798     35801     35804     35799     35798     35800
     35799     35798     35801     35800     35798     35801     35801     35804     35805
     35801     35804     35806     35801     35804     35807     35802     35801     35803
     35802     35801     35804     35803     35801     35804     35804     35807     35808
     35804     35807     35809     35804     35807     35810     35805     35804     35806
     35805     35804     35807     35806     35804     35807     35807     35810     35811
     35807     35810     35812     35807     35810     35813     35808     35807     35809
     35808     35807     35810     35809     35807     35810     35810     35813     35814
     35810     35813     35815     35811     35810     35812     35811     35810     35813
     35812     35810     35813     35813     35815     35816     35813     35815     35817
     35814     35813     35815     35815     35817     35818     35815     35817     35819
     35815     35817     35820     35816     35815     35817     35817     35820     35821
     35817     35820     35822     35817     35820     35823     35818     35817     35819
     35818     35817     35820     35819     35817     35820     35820     35823     35824
     35820     35823     35825     35820     35823     35826     35821     35820     35822
     35821     35820     35823     35822     35820     35823     35823     35826     35827
     35823     35826     35828     35823     35826     35829     35824     35823     35825
     35824     35823     35826     35825     35823     35826     35826     35829     35830
     35826     35829     35831     35826     35829     35832     35827     35826     35828
     35827     35826     35829     35828     35826     35829     35829     35832     35833
     35829     35832     35834     35829     35832     35835     35830     35829     35831
     35830     35829     35832     35831     35829     35832     35832     35835     35836
     35832     35835     35837     35832     35835     35838     35833     35832     35834
     35833     35832     35835     35834     35832     35835     35835     35838     35839
     35835     35838     35840     35835     35838     35841     35836     35835     35837
     35836     35835     35838     35837     35835     35838     35839     35838     35840
     35839     35838     35841     35840     35838     35841     35842     35845     35846
     35842     35845     35847     35842     35845     35848     35843     35842     35844
     35843     35842     35845     35844     35842     35845     35845     35848     35849
     35845     35848     35850     35845     35848     35851     35846     35845     35847
     35846     35845     35848     35847     35845     35848     35848     35851     35852
     35848     35851     35853     35848     35851     35854     35849     35848     35850
     35849     35848     35851     35850     35848     35851     35851     35854     35855
     35851     35854     35856     35851     35854     35857     35852     35851     35853
     35852     35851     35854     35853     35851     35854     35854     35857     35858
     35854     35857     35859     35854     35857     35860     35855     35854     35856
     35855     35854     35857     35856     35854     35857     35857     35860     35861
     35857     35860     35862     35857     35860     35863     35858     35857     35859
     35858     35857     35860     35859     35857     35860     35860     35863     35864
     35860     35863     35865     35860     35863     35866     35861     35860     35862
     35861     35860     35863     35862     35860     35863     35863     35866     35867
     35863     35866     35868     35863     35866     35869     35864     35863     35865
     35864     35863     35866     35865     35863     35866     35866     35869     35870
     35866     35869     35871     35866     35869     35872     35867     35866     35868
     35867     35866     35869     35868     35866     35869     35869     35872     35873
     35869     35872     35874     35869     35872     35875     35870     35869     35871
     35870     35869     35872     35871     35869     35872     35872     35875     35876
     35872     35875     35877     35872     35875     35878     35873     35872     35874
     35873     35872     35875     35874     35872     35875     35875     35878     35879
     35875     35878     35880     35875     35878     35881     35876     35875     35877
     35876     35875     35878     35877     35875     35878     35878     35881     35882
     35878     35881     35883     35878     35881     35884     35879     35878     35880
     35879     35878     35881     35880     35878     35881     35882     35881     35883
     35882     35881     35884     35883     35881     35884     35885     35886     35887
     35885     35886     35888     35885     35886     35901     35885     35889     35890
     35885     35889     35891     35885     35889     35892     35885     35893     35894
     35885     35893     35895     35885     35893     35896     35885     35897     35898
     35885     35897     35899     35885     35897     35900     35886     35885     35889
     35886     35885     35893     35886     35885     35897     35886     35901     35902
     35886     35901     35903     35886     35901     35907     35887     35886     35888
     35887     35886     35901     35888     35886     35901     35889     35885     35893
     35889     35885     35897     35890     35889     35891     35890     35889     35892
     35891     35889     35892     35893     35885     35897     35894     35893     35895
     35894     35893     35896     35895     35893     35896     35898     35897     35899
     35898     35897     35900     35899     35897     35900     35901     35907     35904
     35902     35901     35903     35902     35901     35907     35903     35901     35907
     35904     35908     35909     35905     35904     35906     35905     35904     35907
     35905     35904     35908     35906     35904     35907     35906     35904     35908
     35907     35904     35908     35908     35909     35910     35908     35909     35911
     35908     35909     35912     35909     35912     35913     35909     35912     35914
     35909     35912     35920     35910     35909     35911     35910     35909     35912
     35911     35909     35912     35912     35914     35915     35912     35920     35921
     35912     35920     35922     35912     35920     35923     35913     35912     35914
     35913     35912     35920     35914     35912     35920     35914     35915     35916
     35914     35915     35917     35915     35917     35918     35915     35917     35919
     35915     35917     35929     35916     35915     35917     35917     35929     35930
     35917     35929     35931     35917     35929     35932     35918     35917     35919
     35918     35917     35929     35919     35917     35929     35920     35923     35924
     35921     35920     35922     35921     35920     35923     35922     35920     35923
     35923     35924     35925     35923     35924     35926     35924     35926     35927
     35924     35926     35928     35924     35926     35976     35925     35924     35926
     35926     35976     35977     35926     35976     35978     35926     35976     35979
     35927     35926     35928     35927     35926     35976     35928     35926     35976
     35929     35932     35933     35929     35932     35934     35929     35932     35935
     35930     35929     35931     35930     35929     35932     35931     35929     35932
     35932     35935     35936     35932     35935     35937     35932     35935     35938
     35933     35932     35934     35933     35932     35935     35934     35932     35935
     35935     35938     35939     35935     35938     35940     35935     35938     35941
     35936     35935     35937     35936     35935     35938     35937     35935     35938
     35938     35941     35942     35938     35941     35943     35938     35941     35944
     35939     35938     35940     35939     35938     35941     35940     35938     35941
     35941     35944     35945     35941     35944     35946     35941     35944     35947
     35942     35941     35943     35942     35941     35944     35943     35941     35944
     35944     35947     35948     35944     35947     35949     35945     35944     35946
     35945     35944     35947     35946     35944     35947     35947     35949     35950
     35947     35949     35951     35948     35947     35949     35949     35951     35952
     35949     35951     35953     35949     35951     35954     35950     35949     35951
     35951     35954     35955     35951     35954     35956     35951     35954     35957
     35952     35951     35953     35952     35951     35954     35953     35951     35954
     35954     35957     35958     35954     35957     35959     35954     35957     35960
     35955     35954     35956     35955     35954     35957     35956     35954     35957
     35957     35960     35961     35957     35960     35962     35957     35960     35963
     35958     35957     35959     35958     35957     35960     35959     35957     35960
     35960     35963     35964     35960     35963     35965     35960     35963     35966
     35961     35960     35962     35961     35960     35963     35962     35960     35963
     35963     35966     35967     35963     35966     35968     35963     35966     35969
     35964     35963     35965     35964     35963     35966     35965     35963     35966
     35966     35969     35970     35966     35969     35971     35966     35969     35972
     35967     35966     35968     35967     35966     35969     35968     35966     35969
     35969     35972     35973     35969     35972     35974     35969     35972     35975
     35970     35969     35971     35970     35969     35972     35971     35969     35972
     35973     35972     35974     35973     35972     35975     35974     35972     35975
     35976     35979     35980     35976     35979     35981     35976     35979     35982
     35977     35976     35978     35977     35976     35979     35978     35976     35979
     35979     35982     35983     35979     35982     35984     35979     35982     35985
     35980     35979     35981     35980     35979     35982     35981     35979     35982
     35982     35985     35986     35982     35985     35987     35982     35985     35988
     35983     35982     35984     35983     35982     35985     35984     35982     35985
     35985     35988     35989     35985     35988     35990     35985     35988     35991
     35986     35985     35987     35986     35985     35988     35987     35985     35988
     35988     35991     35992     35988     35991     35993     35988     35991     35994
     35989     35988     35990     35989     35988     35991     35990     35988     35991
     35991     35994     35995     35991     35994     35996     35991     35994     35997
     35992     35991     35993     35992     35991     35994     35993     35991     35994
     35994     35997     35998     35994     35997     35999     35994     35997     36000
     35995     35994     35996     35995     35994     35997     35996     35994     35997
     35997     36000     36001     35997     36000     36002     35997     36000     36003
     35998     35997     35999     35998     35997     36000     35999     35997     36000
     36000     36003     36004     36000     36003     36005     36000     36003     36006
     36001     36000     36002     36001     36000     36003     36002     36000     36003
     36003     36006     36007     36003     36006     36008     36003     36006     36009
     36004     36003     36005     36004     36003     36006     36005     36003     36006
     36006     36009     36010     36006     36009     36011     36006     36009     36012
     36007     36006     36008     36007     36006     36009     36008     36006     36009
     36009     36012     36013     36009     36012     36014     36009     36012     36015
     36010     36009     36011     36010     36009     36012     36011     36009     36012
     36012     36015     36016     36012     36015     36017     36012     36015     36018
     36013     36012     36014     36013     36012     36015     36014     36012     36015
     36016     36015     36017     36016     36015     36018     36017     36015     36018
     36019     36020     36021     36019     36020     36022     36019     36020     36035
     36019     36023     36024     36019     36023     36025     36019     36023     36026
     36019     36027     36028     36019     36027     36029     36019     36027     36030
     36019     36031     36032     36019     36031     36033     36019     36031     36034
     36020     36019     36023     36020     36019     36027     36020     36019     36031
     36020     36035     36036     36020     36035     36037     36020     36035     36041
     36021     36020     36022     36021     36020     36035     36022     36020     36035
     36023     36019     36027     36023     36019     36031     36024     36023     36025
     36024     36023     36026     36025     36023     36026     36027     36019     36031
     36028     36027     36029     36028     36027     36030     36029     36027     36030
     36032     36031     36033     36032     36031     36034     36033     36031     36034
     36035     36041     36038     36036     36035     36037     36036     36035     36041
     36037     36035     36041     36038     36042     36043     36039     36038     36040
     36039     36038     36041     36039     36038     36042     36040     36038     36041
     36040     36038     36042     36041     36038     36042     36042     36043     36044
     36042     36043     36045     36042     36043     36046     36043     36046     36047
     36043     36046     36048     36043     36046     36054     36044     36043     36045
     36044     36043     36046     36045     36043     36046     36046     36048     36049
     36046     36054     36055     36046     36054     36056     36046     36054     36057
     36047     36046     36048     36047     36046     36054     36048     36046     36054
     36048     36049     36050     36048     36049     36051     36049     36051     36052
     36049     36051     36053     36049     36051     36063     36050     36049     36051
     36051     36063     36064     36051     36063     36065     36051     36063     36066
     36052     36051     36053     36052     36051     36063     36053     36051     36063
     36054     36057     36058     36055     36054     36056     36055     36054     36057
     36056     36054     36057     36057     36058     36059     36057     36058     36060
     36058     36060     36061     36058     36060     36062     36058     36060     36110
     36059     36058     36060     36060     36110     36111     36060     36110     36112
     36060     36110     36113     36061     36060     36062     36061     36060     36110
     36062     36060     36110     36063     36066     36067     36063     36066     36068
     36063     36066     36069     36064     36063     36065     36064     36063     36066
     36065     36063     36066     36066     36069     36070     36066     36069     36071
     36066     36069     36072     36067     36066     36068     36067     36066     36069
     36068     36066     36069     36069     36072     36073     36069     36072     36074
     36069     36072     36075     36070     36069     36071     36070     36069     36072
     36071     36069     36072     36072     36075     36076     36072     36075     36077
     36072     36075     36078     36073     36072     36074     36073     36072     36075
     36074     36072     36075     36075     36078     36079     36075     36078     36080
     36075     36078     36081     36076     36075     36077     36076     36075     36078
     36077     36075     36078     36078     36081     36082     36078     36081     36083
     36079     36078     36080     36079     36078     36081     36080     36078     36081
     36081     36083     36084     36081     36083     36085     36082     36081     36083
     36083     36085     36086     36083     36085     36087     36083     36085     36088
     36084     36083     36085     36085     36088     36089     36085     36088     36090
     36085     36088     36091     36086     36085     36087     36086     36085     36088
     36087     36085     36088     36088     36091     36092     36088     36091     36093
     36088     36091     36094     36089     36088     36090     36089     36088     36091
     36090     36088     36091     36091     36094     36095     36091     36094     36096
     36091     36094     36097     36092     36091     36093     36092     36091     36094
     36093     36091     36094     36094     36097     36098     36094     36097     36099
     36094     36097     36100     36095     36094     36096     36095     36094     36097
     36096     36094     36097     36097     36100     36101     36097     36100     36102
     36097     36100     36103     36098     36097     36099     36098     36097     36100
     36099     36097     36100     36100     36103     36104     36100     36103     36105
     36100     36103     36106     36101     36100     36102     36101     36100     36103
     36102     36100     36103     36103     36106     36107     36103     36106     36108
     36103     36106     36109     36104     36103     36105     36104     36103     36106
     36105     36103     36106     36107     36106     36108     36107     36106     36109
     36108     36106     36109     36110     36113     36114     36110     36113     36115
     36110     36113     36116     36111     36110     36112     36111     36110     36113
     36112     36110     36113     36113     36116     36117     36113     36116     36118
     36113     36116     36119     36114     36113     36115     36114     36113     36116
     36115     36113     36116     36116     36119     36120     36116     36119     36121
     36116     36119     36122     36117     36116     36118     36117     36116     36119
     36118     36116     36119     36119     36122     36123     36119     36122     36124
     36119     36122     36125     36120     36119     36121     36120     36119     36122
     36121     36119     36122     36122     36125     36126     36122     36125     36127
     36122     36125     36128     36123     36122     36124     36123     36122     36125
     36124     36122     36125     36125     36128     36129     36125     36128     36130
     36125     36128     36131     36126     36125     36127     36126     36125     36128
     36127     36125     36128     36128     36131     36132     36128     36131     36133
     36128     36131     36134     36129     36128     36130     36129     36128     36131
     36130     36128     36131     36131     36134     36135     36131     36134     36136
     36131     36134     36137     36132     36131     36133     36132     36131     36134
     36133     36131     36134     36134     36137     36138     36134     36137     36139
     36134     36137     36140     36135     36134     36136     36135     36134     36137
     36136     36134     36137     36137     36140     36141     36137     36140     36142
     36137     36140     36143     36138     36137     36139     36138     36137     36140
     36139     36137     36140     36140     36143     36144     36140     36143     36145
     36140     36143     36146     36141     36140     36142     36141     36140     36143
     36142     36140     36143     36143     36146     36147     36143     36146     36148
     36143     36146     36149     36144     36143     36145     36144     36143     36146
     36145     36143     36146     36146     36149     36150     36146     36149     36151
     36146     36149     36152     36147     36146     36148     36147     36146     36149
     36148     36146     36149     36150     36149     36151     36150     36149     36152
     36151     36149     36152     36153     36154     36155     36153     36154     36156
     36153     36154     36169     36153     36157     36158     36153     36157     36159
     36153     36157     36160     36153     36161     36162     36153     36161     36163
     36153     36161     36164     36153     36165     36166     36153     36165     36167
     36153     36165     36168     36154     36153     36157     36154     36153     36161
     36154     36153     36165     36154     36169     36170     36154     36169     36171
     36154     36169     36175     36155     36154     36156     36155     36154     36169
     36156     36154     36169     36157     36153     36161     36157     36153     36165
     36158     36157     36159     36158     36157     36160     36159     36157     36160
     36161     36153     36165     36162     36161     36163     36162     36161     36164
     36163     36161     36164     36166     36165     36167     36166     36165     36168
     36167     36165     36168     36169     36175     36172     36170     36169     36171
     36170     36169     36175     36171     36169     36175     36172     36176     36177
     36173     36172     36174     36173     36172     36175     36173     36172     36176
     36174     36172     36175     36174     36172     36176     36175     36172     36176
     36176     36177     36178     36176     36177     36179     36176     36177     36180
     36177     36180     36181     36177     36180     36182     36177     36180     36188
     36178     36177     36179     36178     36177     36180     36179     36177     36180
     36180     36182     36183     36180     36188     36189     36180     36188     36190
     36180     36188     36191     36181     36180     36182     36181     36180     36188
     36182     36180     36188     36182     36183     36184     36182     36183     36185
     36183     36185     36186     36183     36185     36187     36183     36185     36197
     36184     36183     36185     36185     36197     36198     36185     36197     36199
     36185     36197     36200     36186     36185     36187     36186     36185     36197
     36187     36185     36197     36188     36191     36192     36189     36188     36190
     36189     36188     36191     36190     36188     36191     36191     36192     36193
     36191     36192     36194     36192     36194     36195     36192     36194     36196
     36192     36194     36244     36193     36192     36194     36194     36244     36245
     36194     36244     36246     36194     36244     36247     36195     36194     36196
     36195     36194     36244     36196     36194     36244     36197     36200     36201
     36197     36200     36202     36197     36200     36203     36198     36197     36199
     36198     36197     36200     36199     36197     36200     36200     36203     36204
     36200     36203     36205     36200     36203     36206     36201     36200     36202
     36201     36200     36203     36202     36200     36203     36203     36206     36207
     36203     36206     36208     36203     36206     36209     36204     36203     36205
     36204     36203     36206     36205     36203     36206     36206     36209     36210
     36206     36209     36211     36206     36209     36212     36207     36206     36208
     36207     36206     36209     36208     36206     36209     36209     36212     36213
     36209     36212     36214     36209     36212     36215     36210     36209     36211
     36210     36209     36212     36211     36209     36212     36212     36215     36216
     36212     36215     36217     36213     36212     36214     36213     36212     36215
     36214     36212     36215     36215     36217     36218     36215     36217     36219
     36216     36215     36217     36217     36219     36220     36217     36219     36221
     36217     36219     36222     36218     36217     36219     36219     36222     36223
     36219     36222     36224     36219     36222     36225     36220     36219     36221
     36220     36219     36222     36221     36219     36222     36222     36225     36226
     36222     36225     36227     36222     36225     36228     36223     36222     36224
     36223     36222     36225     36224     36222     36225     36225     36228     36229
     36225     36228     36230     36225     36228     36231     36226     36225     36227
     36226     36225     36228     36227     36225     36228     36228     36231     36232
     36228     36231     36233     36228     36231     36234     36229     36228     36230
     36229     36228     36231     36230     36228     36231     36231     36234     36235
     36231     36234     36236     36231     36234     36237     36232     36231     36233
     36232     36231     36234     36233     36231     36234     36234     36237     36238
     36234     36237     36239     36234     36237     36240     36235     36234     36236
     36235     36234     36237     36236     36234     36237     36237     36240     36241
     36237     36240     36242     36237     36240     36243     36238     36237     36239
     36238     36237     36240     36239     36237     36240     36241     36240     36242
     36241     36240     36243     36242     36240     36243     36244     36247     36248
     36244     36247     36249     36244     36247     36250     36245     36244     36246
     36245     36244     36247     36246     36244     36247     36247     36250     36251
     36247     36250     36252     36247     36250     36253     36248     36247     36249
     36248     36247     36250     36249     36247     36250     36250     36253     36254
     36250     36253     36255     36250     36253     36256     36251     36250     36252
     36251     36250     36253     36252     36250     36253     36253     36256     36257
     36253     36256     36258     36253     36256     36259     36254     36253     36255
     36254     36253     36256     36255     36253     36256     36256     36259     36260
     36256     36259     36261     36256     36259     36262     36257     36256     36258
     36257     36256     36259     36258     36256     36259     36259     36262     36263
     36259     36262     36264     36259     36262     36265     36260     36259     36261
     36260     36259     36262     36261     36259     36262     36262     36265     36266
     36262     36265     36267     36262     36265     36268     36263     36262     36264
     36263     36262     36265     36264     36262     36265     36265     36268     36269
     36265     36268     36270     36265     36268     36271     36266     36265     36267
     36266     36265     36268     36267     36265     36268     36268     36271     36272
     36268     36271     36273     36268     36271     36274     36269     36268     36270
     36269     36268     36271     36270     36268     36271     36271     36274     36275
     36271     36274     36276     36271     36274     36277     36272     36271     36273
     36272     36271     36274     36273     36271     36274     36274     36277     36278
     36274     36277     36279     36274     36277     36280     36275     36274     36276
     36275     36274     36277     36276     36274     36277     36277     36280     36281
     36277     36280     36282     36277     36280     36283     36278     36277     36279
     36278     36277     36280     36279     36277     36280     36280     36283     36284
     36280     36283     36285     36280     36283     36286     36281     36280     36282
     36281     36280     36283     36282     36280     36283     36284     36283     36285
     36284     36283     36286     36285     36283     36286     36287     36288     36289
     36287     36288     36290     36287     36288     36303     36287     36291     36292
     36287     36291     36293     36287     36291     36294     36287     36295     36296
     36287     36295     36297     36287     36295     36298     36287     36299     36300
     36287     36299     36301     36287     36299     36302     36288     36287     36291
     36288     36287     36295     36288     36287     36299     36288     36303     36304
     36288     36303     36305     36288     36303     36309     36289     36288     36290
     36289     36288     36303     36290     36288     36303     36291     36287     36295
     36291     36287     36299     36292     36291     36293     36292     36291     36294
     36293     36291     36294     36295     36287     36299     36296     36295     36297
     36296     36295     36298     36297     36295     36298     36300     36299     36301
     36300     36299     36302     36301     36299     36302     36303     36309     36306
     36304     36303     36305     36304     36303     36309     36305     36303     36309
     36306     36310     36311     36307     36306     36308     36307     36306     36309
     36307     36306     36310     36308     36306     36309     36308     36306     36310
     36309     36306     36310     36310     36311     36312     36310     36311     36313
     36310     36311     36314     36311     36314     36315     36311     36314     36316
     36311     36314     36322     36312     36311     36313     36312     36311     36314
     36313     36311     36314     36314     36316     36317     36314     36322     36323
     36314     36322     36324     36314     36322     36325     36315     36314     36316
     36315     36314     36322     36316     36314     36322     36316     36317     36318
     36316     36317     36319     36317     36319     36320     36317     36319     36321
     36317     36319     36331     36318     36317     36319     36319     36331     36332
     36319     36331     36333     36319     36331     36334     36320     36319     36321
     36320     36319     36331     36321     36319     36331     36322     36325     36326
     36323     36322     36324     36323     36322     36325     36324     36322     36325
     36325     36326     36327     36325     36326     36328     36326     36328     36329
     36326     36328     36330     36326     36328     36378     36327     36326     36328
     36328     36378     36379     36328     36378     36380     36328     36378     36381
     36329     36328     36330     36329     36328     36378     36330     36328     36378
     36331     36334     36335     36331     36334     36336     36331     36334     36337
     36332     36331     36333     36332     36331     36334     36333     36331     36334
     36334     36337     36338     36334     36337     36339     36334     36337     36340
     36335     36334     36336     36335     36334     36337     36336     36334     36337
     36337     36340     36341     36337     36340     36342     36337     36340     36343
     36338     36337     36339     36338     36337     36340     36339     36337     36340
     36340     36343     36344     36340     36343     36345     36340     36343     36346
     36341     36340     36342     36341     36340     36343     36342     36340     36343
     36343     36346     36347     36343     36346     36348     36343     36346     36349
     36344     36343     36345     36344     36343     36346     36345     36343     36346
     36346     36349     36350     36346     36349     36351     36347     36346     36348
     36347     36346     36349     36348     36346     36349     36349     36351     36352
     36349     36351     36353     36350     36349     36351     36351     36353     36354
     36351     36353     36355     36351     36353     36356     36352     36351     36353
     36353     36356     36357     36353     36356     36358     36353     36356     36359
     36354     36353     36355     36354     36353     36356     36355     36353     36356
     36356     36359     36360     36356     36359     36361     36356     36359     36362
     36357     36356     36358     36357     36356     36359     36358     36356     36359
     36359     36362     36363     36359     36362     36364     36359     36362     36365
     36360     36359     36361     36360     36359     36362     36361     36359     36362
     36362     36365     36366     36362     36365     36367     36362     36365     36368
     36363     36362     36364     36363     36362     36365     36364     36362     36365
     36365     36368     36369     36365     36368     36370     36365     36368     36371
     36366     36365     36367     36366     36365     36368     36367     36365     36368
     36368     36371     36372     36368     36371     36373     36368     36371     36374
     36369     36368     36370     36369     36368     36371     36370     36368     36371
     36371     36374     36375     36371     36374     36376     36371     36374     36377
     36372     36371     36373     36372     36371     36374     36373     36371     36374
     36375     36374     36376     36375     36374     36377     36376     36374     36377
     36378     36381     36382     36378     36381     36383     36378     36381     36384
     36379     36378     36380     36379     36378     36381     36380     36378     36381
     36381     36384     36385     36381     36384     36386     36381     36384     36387
     36382     36381     36383     36382     36381     36384     36383     36381     36384
     36384     36387     36388     36384     36387     36389     36384     36387     36390
     36385     36384     36386     36385     36384     36387     36386     36384     36387
     36387     36390     36391     36387     36390     36392     36387     36390     36393
     36388     36387     36389     36388     36387     36390     36389     36387     36390
     36390     36393     36394     36390     36393     36395     36390     36393     36396
     36391     36390     36392     36391     36390     36393     36392     36390     36393
     36393     36396     36397     36393     36396     36398     36393     36396     36399
     36394     36393     36395     36394     36393     36396     36395     36393     36396
     36396     36399     36400     36396     36399     36401     36396     36399     36402
     36397     36396     36398     36397     36396     36399     36398     36396     36399
     36399     36402     36403     36399     36402     36404     36399     36402     36405
     36400     36399     36401     36400     36399     36402     36401     36399     36402
     36402     36405     36406     36402     36405     36407     36402     36405     36408
     36403     36402     36404     36403     36402     36405     36404     36402     36405
     36405     36408     36409     36405     36408     36410     36405     36408     36411
     36406     36405     36407     36406     36405     36408     36407     36405     36408
     36408     36411     36412     36408     36411     36413     36408     36411     36414
     36409     36408     36410     36409     36408     36411     36410     36408     36411
     36411     36414     36415     36411     36414     36416     36411     36414     36417
     36412     36411     36413     36412     36411     36414     36413     36411     36414
     36414     36417     36418     36414     36417     36419     36414     36417     36420
     36415     36414     36416     36415     36414     36417     36416     36414     36417
     36418     36417     36419     36418     36417     36420     36419     36417     36420
     36421     36422     36423     36421     36422     36424     36421     36422     36437
     36421     36425     36426     36421     36425     36427     36421     36425     36428
     36421     36429     36430     36421     36429     36431     36421     36429     36432
     36421     36433     36434     36421     36433     36435     36421     36433     36436
     36422     36421     36425     36422     36421     36429     36422     36421     36433
     36422     36437     36438     36422     36437     36439     36422     36437     36443
     36423     36422     36424     36423     36422     36437     36424     36422     36437
     36425     36421     36429     36425     36421     36433     36426     36425     36427
     36426     36425     36428     36427     36425     36428     36429     36421     36433
     36430     36429     36431     36430     36429     36432     36431     36429     36432
     36434     36433     36435     36434     36433     36436     36435     36433     36436
     36437     36443     36440     36438     36437     36439     36438     36437     36443
     36439     36437     36443     36440     36444     36445     36441     36440     36442
     36441     36440     36443     36441     36440     36444     36442     36440     36443
     36442     36440     36444     36443     36440     36444     36444     36445     36446
     36444     36445     36447     36444     36445     36448     36445     36448     36449
     36445     36448     36450     36445     36448     36456     36446     36445     36447
     36446     36445     36448     36447     36445     36448     36448     36450     36451
     36448     36456     36457     36448     36456     36458     36448     36456     36459
     36449     36448     36450     36449     36448     36456     36450     36448     36456
     36450     36451     36452     36450     36451     36453     36451     36453     36454
     36451     36453     36455     36451     36453     36465     36452     36451     36453
     36453     36465     36466     36453     36465     36467     36453     36465     36468
     36454     36453     36455     36454     36453     36465     36455     36453     36465
     36456     36459     36460     36457     36456     36458     36457     36456     36459
     36458     36456     36459     36459     36460     36461     36459     36460     36462
     36460     36462     36463     36460     36462     36464     36460     36462     36512
     36461     36460     36462     36462     36512     36513     36462     36512     36514
     36462     36512     36515     36463     36462     36464     36463     36462     36512
     36464     36462     36512     36465     36468     36469     36465     36468     36470
     36465     36468     36471     36466     36465     36467     36466     36465     36468
     36467     36465     36468     36468     36471     36472     36468     36471     36473
     36468     36471     36474     36469     36468     36470     36469     36468     36471
     36470     36468     36471     36471     36474     36475     36471     36474     36476
     36471     36474     36477     36472     36471     36473     36472     36471     36474
     36473     36471     36474     36474     36477     36478     36474     36477     36479
     36474     36477     36480     36475     36474     36476     36475     36474     36477
     36476     36474     36477     36477     36480     36481     36477     36480     36482
     36477     36480     36483     36478     36477     36479     36478     36477     36480
     36479     36477     36480     36480     36483     36484     36480     36483     36485
     36481     36480     36482     36481     36480     36483     36482     36480     36483
     36483     36485     36486     36483     36485     36487     36484     36483     36485
     36485     36487     36488     36485     36487     36489     36485     36487     36490
     36486     36485     36487     36487     36490     36491     36487     36490     36492
     36487     36490     36493     36488     36487     36489     36488     36487     36490
     36489     36487     36490     36490     36493     36494     36490     36493     36495
     36490     36493     36496     36491     36490     36492     36491     36490     36493
     36492     36490     36493     36493     36496     36497     36493     36496     36498
     36493     36496     36499     36494     36493     36495     36494     36493     36496
     36495     36493     36496     36496     36499     36500     36496     36499     36501
     36496     36499     36502     36497     36496     36498     36497     36496     36499
     36498     36496     36499     36499     36502     36503     36499     36502     36504
     36499     36502     36505     36500     36499     36501     36500     36499     36502
     36501     36499     36502     36502     36505     36506     36502     36505     36507
     36502     36505     36508     36503     36502     36504     36503     36502     36505
     36504     36502     36505     36505     36508     36509     36505     36508     36510
     36505     36508     36511     36506     36505     36507     36506     36505     36508
     36507     36505     36508     36509     36508     36510     36509     36508     36511
     36510     36508     36511     36512     36515     36516     36512     36515     36517
     36512     36515     36518     36513     36512     36514     36513     36512     36515
     36514     36512     36515     36515     36518     36519     36515     36518     36520
     36515     36518     36521     36516     36515     36517     36516     36515     36518
     36517     36515     36518     36518     36521     36522     36518     36521     36523
     36518     36521     36524     36519     36518     36520     36519     36518     36521
     36520     36518     36521     36521     36524     36525     36521     36524     36526
     36521     36524     36527     36522     36521     36523     36522     36521     36524
     36523     36521     36524     36524     36527     36528     36524     36527     36529
     36524     36527     36530     36525     36524     36526     36525     36524     36527
     36526     36524     36527     36527     36530     36531     36527     36530     36532
     36527     36530     36533     36528     36527     36529     36528     36527     36530
     36529     36527     36530     36530     36533     36534     36530     36533     36535
     36530     36533     36536     36531     36530     36532     36531     36530     36533
     36532     36530     36533     36533     36536     36537     36533     36536     36538
     36533     36536     36539     36534     36533     36535     36534     36533     36536
     36535     36533     36536     36536     36539     36540     36536     36539     36541
     36536     36539     36542     36537     36536     36538     36537     36536     36539
     36538     36536     36539     36539     36542     36543     36539     36542     36544
     36539     36542     36545     36540     36539     36541     36540     36539     36542
     36541     36539     36542     36542     36545     36546     36542     36545     36547
     36542     36545     36548     36543     36542     36544     36543     36542     36545
     36544     36542     36545     36545     36548     36549     36545     36548     36550
     36545     36548     36551     36546     36545     36547     36546     36545     36548
     36547     36545     36548     36548     36551     36552     36548     36551     36553
     36548     36551     36554     36549     36548     36550     36549     36548     36551
     36550     36548     36551     36552     36551     36553     36552     36551     36554
     36553     36551     36554     36555     36556     36557     36555     36556     36558
     36555     36556     36571     36555     36559     36560     36555     36559     36561
     36555     36559     36562     36555     36563     36564     36555     36563     36565
     36555     36563     36566     36555     36567     36568     36555     36567     36569
     36555     36567     36570     36556     36555     36559     36556     36555     36563
     36556     36555     36567     36556     36571     36572     36556     36571     36573
     36556     36571     36577     36557     36556     36558     36557     36556     36571
     36558     36556     36571     36559     36555     36563     36559     36555     36567
     36560     36559     36561     36560     36559     36562     36561     36559     36562
     36563     36555     36567     36564     36563     36565     36564     36563     36566
     36565     36563     36566     36568     36567     36569     36568     36567     36570
     36569     36567     36570     36571     36577     36574     36572     36571     36573
     36572     36571     36577     36573     36571     36577     36574     36578     36579
     36575     36574     36576     36575     36574     36577     36575     36574     36578
     36576     36574     36577     36576     36574     36578     36577     36574     36578
     36578     36579     36580     36578     36579     36581     36578     36579     36582
     36579     36582     36583     36579     36582     36584     36579     36582     36590
     36580     36579     36581     36580     36579     36582     36581     36579     36582
     36582     36584     36585     36582     36590     36591     36582     36590     36592
     36582     36590     36593     36583     36582     36584     36583     36582     36590
     36584     36582     36590     36584     36585     36586     36584     36585     36587
     36585     36587     36588     36585     36587     36589     36585     36587     36599
     36586     36585     36587     36587     36599     36600     36587     36599     36601
     36587     36599     36602     36588     36587     36589     36588     36587     36599
     36589     36587     36599     36590     36593     36594     36591     36590     36592
     36591     36590     36593     36592     36590     36593     36593     36594     36595
     36593     36594     36596     36594     36596     36597     36594     36596     36598
     36594     36596     36646     36595     36594     36596     36596     36646     36647
     36596     36646     36648     36596     36646     36649     36597     36596     36598
     36597     36596     36646     36598     36596     36646     36599     36602     36603
     36599     36602     36604     36599     36602     36605     36600     36599     36601
     36600     36599     36602     36601     36599     36602     36602     36605     36606
     36602     36605     36607     36602     36605     36608     36603     36602     36604
     36603     36602     36605     36604     36602     36605     36605     36608     36609
     36605     36608     36610     36605     36608     36611     36606     36605     36607
     36606     36605     36608     36607     36605     36608     36608     36611     36612
     36608     36611     36613     36608     36611     36614     36609     36608     36610
     36609     36608     36611     36610     36608     36611     36611     36614     36615
     36611     36614     36616     36611     36614     36617     36612     36611     36613
     36612     36611     36614     36613     36611     36614     36614     36617     36618
     36614     36617     36619     36615     36614     36616     36615     36614     36617
     36616     36614     36617     36617     36619     36620     36617     36619     36621
     36618     36617     36619     36619     36621     36622     36619     36621     36623
     36619     36621     36624     36620     36619     36621     36621     36624     36625
     36621     36624     36626     36621     36624     36627     36622     36621     36623
     36622     36621     36624     36623     36621     36624     36624     36627     36628
     36624     36627     36629     36624     36627     36630     36625     36624     36626
     36625     36624     36627     36626     36624     36627     36627     36630     36631
     36627     36630     36632     36627     36630     36633     36628     36627     36629
     36628     36627     36630     36629     36627     36630     36630     36633     36634
     36630     36633     36635     36630     36633     36636     36631     36630     36632
     36631     36630     36633     36632     36630     36633     36633     36636     36637
     36633     36636     36638     36633     36636     36639     36634     36633     36635
     36634     36633     36636     36635     36633     36636     36636     36639     36640
     36636     36639     36641     36636     36639     36642     36637     36636     36638
     36637     36636     36639     36638     36636     36639     36639     36642     36643
     36639     36642     36644     36639     36642     36645     36640     36639     36641
     36640     36639     36642     36641     36639     36642     36643     36642     36644
     36643     36642     36645     36644     36642     36645     36646     36649     36650
     36646     36649     36651     36646     36649     36652     36647     36646     36648
     36647     36646     36649     36648     36646     36649     36649     36652     36653
     36649     36652     36654     36649     36652     36655     36650     36649     36651
     36650     36649     36652     36651     36649     36652     36652     36655     36656
     36652     36655     36657     36652     36655     36658     36653     36652     36654
     36653     36652     36655     36654     36652     36655     36655     36658     36659
     36655     36658     36660     36655     36658     36661     36656     36655     36657
     36656     36655     36658     36657     36655     36658     36658     36661     36662
     36658     36661     36663     36658     36661     36664     36659     36658     36660
     36659     36658     36661     36660     36658     36661     36661     36664     36665
     36661     36664     36666     36661     36664     36667     36662     36661     36663
     36662     36661     36664     36663     36661     36664     36664     36667     36668
     36664     36667     36669     36664     36667     36670     36665     36664     36666
     36665     36664     36667     36666     36664     36667     36667     36670     36671
     36667     36670     36672     36667     36670     36673     36668     36667     36669
     36668     36667     36670     36669     36667     36670     36670     36673     36674
     36670     36673     36675     36670     36673     36676     36671     36670     36672
     36671     36670     36673     36672     36670     36673     36673     36676     36677
     36673     36676     36678     36673     36676     36679     36674     36673     36675
     36674     36673     36676     36675     36673     36676     36676     36679     36680
     36676     36679     36681     36676     36679     36682     36677     36676     36678
     36677     36676     36679     36678     36676     36679     36679     36682     36683
     36679     36682     36684     36679     36682     36685     36680     36679     36681
     36680     36679     36682     36681     36679     36682     36682     36685     36686
     36682     36685     36687     36682     36685     36688     36683     36682     36684
     36683     36682     36685     36684     36682     36685     36686     36685     36687
     36686     36685     36688     36687     36685     36688     36689     36690     36691
     36689     36690     36692     36689     36690     36705     36689     36693     36694
     36689     36693     36695     36689     36693     36696     36689     36697     36698
     36689     36697     36699     36689     36697     36700     36689     36701     36702
     36689     36701     36703     36689     36701     36704     36690     36689     36693
     36690     36689     36697     36690     36689     36701     36690     36705     36706
     36690     36705     36707     36690     36705     36711     36691     36690     36692
     36691     36690     36705     36692     36690     36705     36693     36689     36697
     36693     36689     36701     36694     36693     36695     36694     36693     36696
     36695     36693     36696     36697     36689     36701     36698     36697     36699
     36698     36697     36700     36699     36697     36700     36702     36701     36703
     36702     36701     36704     36703     36701     36704     36705     36711     36708
     36706     36705     36707     36706     36705     36711     36707     36705     36711
     36708     36712     36713     36709     36708     36710     36709     36708     36711
     36709     36708     36712     36710     36708     36711     36710     36708     36712
     36711     36708     36712     36712     36713     36714     36712     36713     36715
     36712     36713     36716     36713     36716     36717     36713     36716     36718
     36713     36716     36724     36714     36713     36715     36714     36713     36716
     36715     36713     36716     36716     36718     36719     36716     36724     36725
     36716     36724     36726     36716     36724     36727     36717     36716     36718
     36717     36716     36724     36718     36716     36724     36718     36719     36720
     36718     36719     36721     36719     36721     36722     36719     36721     36723
     36719     36721     36733     36720     36719     36721     36721     36733     36734
     36721     36733     36735     36721     36733     36736     36722     36721     36723
     36722     36721     36733     36723     36721     36733     36724     36727     36728
     36725     36724     36726     36725     36724     36727     36726     36724     36727
     36727     36728     36729     36727     36728     36730     36728     36730     36731
     36728     36730     36732     36728     36730     36780     36729     36728     36730
     36730     36780     36781     36730     36780     36782     36730     36780     36783
     36731     36730     36732     36731     36730     36780     36732     36730     36780
     36733     36736     36737     36733     36736     36738     36733     36736     36739
     36734     36733     36735     36734     36733     36736     36735     36733     36736
     36736     36739     36740     36736     36739     36741     36736     36739     36742
     36737     36736     36738     36737     36736     36739     36738     36736     36739
     36739     36742     36743     36739     36742     36744     36739     36742     36745
     36740     36739     36741     36740     36739     36742     36741     36739     36742
     36742     36745     36746     36742     36745     36747     36742     36745     36748
     36743     36742     36744     36743     36742     36745     36744     36742     36745
     36745     36748     36749     36745     36748     36750     36745     36748     36751
     36746     36745     36747     36746     36745     36748     36747     36745     36748
     36748     36751     36752     36748     36751     36753     36749     36748     36750
     36749     36748     36751     36750     36748     36751     36751     36753     36754
     36751     36753     36755     36752     36751     36753     36753     36755     36756
     36753     36755     36757     36753     36755     36758     36754     36753     36755
     36755     36758     36759     36755     36758     36760     36755     36758     36761
     36756     36755     36757     36756     36755     36758     36757     36755     36758
     36758     36761     36762     36758     36761     36763     36758     36761     36764
     36759     36758     36760     36759     36758     36761     36760     36758     36761
     36761     36764     36765     36761     36764     36766     36761     36764     36767
     36762     36761     36763     36762     36761     36764     36763     36761     36764
     36764     36767     36768     36764     36767     36769     36764     36767     36770
     36765     36764     36766     36765     36764     36767     36766     36764     36767
     36767     36770     36771     36767     36770     36772     36767     36770     36773
     36768     36767     36769     36768     36767     36770     36769     36767     36770
     36770     36773     36774     36770     36773     36775     36770     36773     36776
     36771     36770     36772     36771     36770     36773     36772     36770     36773
     36773     36776     36777     36773     36776     36778     36773     36776     36779
     36774     36773     36775     36774     36773     36776     36775     36773     36776
     36777     36776     36778     36777     36776     36779     36778     36776     36779
     36780     36783     36784     36780     36783     36785     36780     36783     36786
     36781     36780     36782     36781     36780     36783     36782     36780     36783
     36783     36786     36787     36783     36786     36788     36783     36786     36789
     36784     36783     36785     36784     36783     36786     36785     36783     36786
     36786     36789     36790     36786     36789     36791     36786     36789     36792
     36787     36786     36788     36787     36786     36789     36788     36786     36789
     36789     36792     36793     36789     36792     36794     36789     36792     36795
     36790     36789     36791     36790     36789     36792     36791     36789     36792
     36792     36795     36796     36792     36795     36797     36792     36795     36798
     36793     36792     36794     36793     36792     36795     36794     36792     36795
     36795     36798     36799     36795     36798     36800     36795     36798     36801
     36796     36795     36797     36796     36795     36798     36797     36795     36798
     36798     36801     36802     36798     36801     36803     36798     36801     36804
     36799     36798     36800     36799     36798     36801     36800     36798     36801
     36801     36804     36805     36801     36804     36806     36801     36804     36807
     36802     36801     36803     36802     36801     36804     36803     36801     36804
     36804     36807     36808     36804     36807     36809     36804     36807     36810
     36805     36804     36806     36805     36804     36807     36806     36804     36807
     36807     36810     36811     36807     36810     36812     36807     36810     36813
     36808     36807     36809     36808     36807     36810     36809     36807     36810
     36810     36813     36814     36810     36813     36815     36810     36813     36816
     36811     36810     36812     36811     36810     36813     36812     36810     36813
     36813     36816     36817     36813     36816     36818     36813     36816     36819
     36814     36813     36815     36814     36813     36816     36815     36813     36816
     36816     36819     36820     36816     36819     36821     36816     36819     36822
     36817     36816     36818     36817     36816     36819     36818     36816     36819
     36820     36819     36821     36820     36819     36822     36821     36819     36822
     36823     36824     36825     36823     36824     36826     36823     36824     36839
     36823     36827     36828     36823     36827     36829     36823     36827     36830
     36823     36831     36832     36823     36831     36833     36823     36831     36834
     36823     36835     36836     36823     36835     36837     36823     36835     36838
     36824     36823     36827     36824     36823     36831     36824     36823     36835
     36824     36839     36840     36824     36839     36841     36824     36839     36845
     36825     36824     36826     36825     36824     36839     36826     36824     36839
     36827     36823     36831     36827     36823     36835     36828     36827     36829
     36828     36827     36830     36829     36827     36830     36831     36823     36835
     36832     36831     36833     36832     36831     36834     36833     36831     36834
     36836     36835     36837     36836     36835     36838     36837     36835     36838
     36839     36845     36842     36840     36839     36841     36840     36839     36845
     36841     36839     36845     36842     36846     36847     36843     36842     36844
     36843     36842     36845     36843     36842     36846     36844     36842     36845
     36844     36842     36846     36845     36842     36846     36846     36847     36848
     36846     36847     36849     36846     36847     36850     36847     36850     36851
     36847     36850     36852     36847     36850     36858     36848     36847     36849
     36848     36847     36850     36849     36847     36850     36850     36852     36853
     36850     36858     36859     36850     36858     36860     36850     36858     36861
     36851     36850     36852     36851     36850     36858     36852     36850     36858
     36852     36853     36854     36852     36853     36855     36853     36855     36856
     36853     36855     36857     36853     36855     36867     36854     36853     36855
     36855     36867     36868     36855     36867     36869     36855     36867     36870
     36856     36855     36857     36856     36855     36867     36857     36855     36867
     36858     36861     36862     36859     36858     36860     36859     36858     36861
     36860     36858     36861     36861     36862     36863     36861     36862     36864
     36862     36864     36865     36862     36864     36866     36862     36864     36914
     36863     36862     36864     36864     36914     36915     36864     36914     36916
     36864     36914     36917     36865     36864     36866     36865     36864     36914
     36866     36864     36914     36867     36870     36871     36867     36870     36872
     36867     36870     36873     36868     36867     36869     36868     36867     36870
     36869     36867     36870     36870     36873     36874     36870     36873     36875
     36870     36873     36876     36871     36870     36872     36871     36870     36873
     36872     36870     36873     36873     36876     36877     36873     36876     36878
     36873     36876     36879     36874     36873     36875     36874     36873     36876
     36875     36873     36876     36876     36879     36880     36876     36879     36881
     36876     36879     36882     36877     36876     36878     36877     36876     36879
     36878     36876     36879     36879     36882     36883     36879     36882     36884
     36879     36882     36885     36880     36879     36881     36880     36879     36882
     36881     36879     36882     36882     36885     36886     36882     36885     36887
     36883     36882     36884     36883     36882     36885     36884     36882     36885
     36885     36887     36888     36885     36887     36889     36886     36885     36887
     36887     36889     36890     36887     36889     36891     36887     36889     36892
     36888     36887     36889     36889     36892     36893     36889     36892     36894
     36889     36892     36895     36890     36889     36891     36890     36889     36892
     36891     36889     36892     36892     36895     36896     36892     36895     36897
     36892     36895     36898     36893     36892     36894     36893     36892     36895
     36894     36892     36895     36895     36898     36899     36895     36898     36900
     36895     36898     36901     36896     36895     36897     36896     36895     36898
     36897     36895     36898     36898     36901     36902     36898     36901     36903
     36898     36901     36904     36899     36898     36900     36899     36898     36901
     36900     36898     36901     36901     36904     36905     36901     36904     36906
     36901     36904     36907     36902     36901     36903     36902     36901     36904
     36903     36901     36904     36904     36907     36908     36904     36907     36909
     36904     36907     36910     36905     36904     36906     36905     36904     36907
     36906     36904     36907     36907     36910     36911     36907     36910     36912
     36907     36910     36913     36908     36907     36909     36908     36907     36910
     36909     36907     36910     36911     36910     36912     36911     36910     36913
     36912     36910     36913     36914     36917     36918     36914     36917     36919
     36914     36917     36920     36915     36914     36916     36915     36914     36917
     36916     36914     36917     36917     36920     36921     36917     36920     36922
     36917     36920     36923     36918     36917     36919     36918     36917     36920
     36919     36917     36920     36920     36923     36924     36920     36923     36925
     36920     36923     36926     36921     36920     36922     36921     36920     36923
     36922     36920     36923     36923     36926     36927     36923     36926     36928
     36923     36926     36929     36924     36923     36925     36924     36923     36926
     36925     36923     36926     36926     36929     36930     36926     36929     36931
     36926     36929     36932     36927     36926     36928     36927     36926     36929
     36928     36926     36929     36929     36932     36933     36929     36932     36934
     36929     36932     36935     36930     36929     36931     36930     36929     36932
     36931     36929     36932     36932     36935     36936     36932     36935     36937
     36932     36935     36938     36933     36932     36934     36933     36932     36935
     36934     36932     36935     36935     36938     36939     36935     36938     36940
     36935     36938     36941     36936     36935     36937     36936     36935     36938
     36937     36935     36938     36938     36941     36942     36938     36941     36943
     36938     36941     36944     36939     36938     36940     36939     36938     36941
     36940     36938     36941     36941     36944     36945     36941     36944     36946
     36941     36944     36947     36942     36941     36943     36942     36941     36944
     36943     36941     36944     36944     36947     36948     36944     36947     36949
     36944     36947     36950     36945     36944     36946     36945     36944     36947
     36946     36944     36947     36947     36950     36951     36947     36950     36952
     36947     36950     36953     36948     36947     36949     36948     36947     36950
     36949     36947     36950     36950     36953     36954     36950     36953     36955
     36950     36953     36956     36951     36950     36952     36951     36950     36953
     36952     36950     36953     36954     36953     36955     36954     36953     36956
     36955     36953     36956     36957     36958     36959     36957     36958     36960
     36957     36958     36973     36957     36961     36962     36957     36961     36963
     36957     36961     36964     36957     36965     36966     36957     36965     36967
     36957     36965     36968     36957     36969     36970     36957     36969     36971
     36957     36969     36972     36958     36957     36961     36958     36957     36965
     36958     36957     36969     36958     36973     36974     36958     36973     36975
     36958     36973     36979     36959     36958     36960     36959     36958     36973
     36960     36958     36973     36961     36957     36965     36961     36957     36969
     36962     36961     36963     36962     36961     36964     36963     36961     36964
     36965     36957     36969     36966     36965     36967     36966     36965     36968
     36967     36965     36968     36970     36969     36971     36970     36969     36972
     36971     36969     36972     36973     36979     36976     36974     36973     36975
     36974     36973     36979     36975     36973     36979     36976     36980     36981
     36977     36976     36978     36977     36976     36979     36977     36976     36980
     36978     36976     36979     36978     36976     36980     36979     36976     36980
     36980     36981     36982     36980     36981     36983     36980     36981     36984
     36981     36984     36985     36981     36984     36986     36981     36984     36992
     36982     36981     36983     36982     36981     36984     36983     36981     36984
     36984     36986     36987     36984     36992     36993     36984     36992     36994
     36984     36992     36995     36985     36984     36986     36985     36984     36992
     36986     36984     36992     36986     36987     36988     36986     36987     36989
     36987     36989     36990     36987     36989     36991     36987     36989     37001
     36988     36987     36989     36989     37001     37002     36989     37001     37003
     36989     37001     37004     36990     36989     36991     36990     36989     37001
     36991     36989     37001     36992     36995     36996     36993     36992     36994
     36993     36992     36995     36994     36992     36995     36995     36996     36997
     36995     36996     36998     36996     36998     36999     36996     36998     37000
     36996     36998     37048     36997     36996     36998     36998     37048     37049
     36998     37048     37050     36998     37048     37051     36999     36998     37000
     36999     36998     37048     37000     36998     37048     37001     37004     37005
     37001     37004     37006     37001     37004     37007     37002     37001     37003
     37002     37001     37004     37003     37001     37004     37004     37007     37008
     37004     37007     37009     37004     37007     37010     37005     37004     37006
     37005     37004     37007     37006     37004     37007     37007     37010     37011
     37007     37010     37012     37007     37010     37013     37008     37007     37009
     37008     37007     37010     37009     37007     37010     37010     37013     37014
     37010     37013     37015     37010     37013     37016     37011     37010     37012
     37011     37010     37013     37012     37010     37013     37013     37016     37017
     37013     37016     37018     37013     37016     37019     37014     37013     37015
     37014     37013     37016     37015     37013     37016     37016     37019     37020
     37016     37019     37021     37017     37016     37018     37017     37016     37019
     37018     37016     37019     37019     37021     37022     37019     37021     37023
     37020     37019     37021     37021     37023     37024     37021     37023     37025
     37021     37023     37026     37022     37021     37023     37023     37026     37027
     37023     37026     37028     37023     37026     37029     37024     37023     37025
     37024     37023     37026     37025     37023     37026     37026     37029     37030
     37026     37029     37031     37026     37029     37032     37027     37026     37028
     37027     37026     37029     37028     37026     37029     37029     37032     37033
     37029     37032     37034     37029     37032     37035     37030     37029     37031
     37030     37029     37032     37031     37029     37032     37032     37035     37036
     37032     37035     37037     37032     37035     37038     37033     37032     37034
     37033     37032     37035     37034     37032     37035     37035     37038     37039
     37035     37038     37040     37035     37038     37041     37036     37035     37037
     37036     37035     37038     37037     37035     37038     37038     37041     37042
     37038     37041     37043     37038     37041     37044     37039     37038     37040
     37039     37038     37041     37040     37038     37041     37041     37044     37045
     37041     37044     37046     37041     37044     37047     37042     37041     37043
     37042     37041     37044     37043     37041     37044     37045     37044     37046
     37045     37044     37047     37046     37044     37047     37048     37051     37052
     37048     37051     37053     37048     37051     37054     37049     37048     37050
     37049     37048     37051     37050     37048     37051     37051     37054     37055
     37051     37054     37056     37051     37054     37057     37052     37051     37053
     37052     37051     37054     37053     37051     37054     37054     37057     37058
     37054     37057     37059     37054     37057     37060     37055     37054     37056
     37055     37054     37057     37056     37054     37057     37057     37060     37061
     37057     37060     37062     37057     37060     37063     37058     37057     37059
     37058     37057     37060     37059     37057     37060     37060     37063     37064
     37060     37063     37065     37060     37063     37066     37061     37060     37062
     37061     37060     37063     37062     37060     37063     37063     37066     37067
     37063     37066     37068     37063     37066     37069     37064     37063     37065
     37064     37063     37066     37065     37063     37066     37066     37069     37070
     37066     37069     37071     37066     37069     37072     37067     37066     37068
     37067     37066     37069     37068     37066     37069     37069     37072     37073
     37069     37072     37074     37069     37072     37075     37070     37069     37071
     37070     37069     37072     37071     37069     37072     37072     37075     37076
     37072     37075     37077     37072     37075     37078     37073     37072     37074
     37073     37072     37075     37074     37072     37075     37075     37078     37079
     37075     37078     37080     37075     37078     37081     37076     37075     37077
     37076     37075     37078     37077     37075     37078     37078     37081     37082
     37078     37081     37083     37078     37081     37084     37079     37078     37080
     37079     37078     37081     37080     37078     37081     37081     37084     37085
     37081     37084     37086     37081     37084     37087     37082     37081     37083
     37082     37081     37084     37083     37081     37084     37084     37087     37088
     37084     37087     37089     37084     37087     37090     37085     37084     37086
     37085     37084     37087     37086     37084     37087     37088     37087     37089
     37088     37087     37090     37089     37087     37090     37091     37092     37093
     37091     37092     37094     37091     37092     37107     37091     37095     37096
     37091     37095     37097     37091     37095     37098     37091     37099     37100
     37091     37099     37101     37091     37099     37102     37091     37103     37104
     37091     37103     37105     37091     37103     37106     37092     37091     37095
     37092     37091     37099     37092     37091     37103     37092     37107     37108
     37092     37107     37109     37092     37107     37113     37093     37092     37094
     37093     37092     37107     37094     37092     37107     37095     37091     37099
     37095     37091     37103     37096     37095     37097     37096     37095     37098
     37097     37095     37098     37099     37091     37103     37100     37099     37101
     37100     37099     37102     37101     37099     37102     37104     37103     37105
     37104     37103     37106     37105     37103     37106     37107     37113     37110
     37108     37107     37109     37108     37107     37113     37109     37107     37113
     37110     37114     37115     37111     37110     37112     37111     37110     37113
     37111     37110     37114     37112     37110     37113     37112     37110     37114
     37113     37110     37114     37114     37115     37116     37114     37115     37117
     37114     37115     37118     37115     37118     37119     37115     37118     37120
     37115     37118     37126     37116     37115     37117     37116     37115     37118
     37117     37115     37118     37118     37120     37121     37118     37126     37127
     37118     37126     37128     37118     37126     37129     37119     37118     37120
     37119     37118     37126     37120     37118     37126     37120     37121     37122
     37120     37121     37123     37121     37123     37124     37121     37123     37125
     37121     37123     37135     37122     37121     37123     37123     37135     37136
     37123     37135     37137     37123     37135     37138     37124     37123     37125
     37124     37123     37135     37125     37123     37135     37126     37129     37130
     37127     37126     37128     37127     37126     37129     37128     37126     37129
     37129     37130     37131     37129     37130     37132     37130     37132     37133
     37130     37132     37134     37130     37132     37182     37131     37130     37132
     37132     37182     37183     37132     37182     37184     37132     37182     37185
     37133     37132     37134     37133     37132     37182     37134     37132     37182
     37135     37138     37139     37135     37138     37140     37135     37138     37141
     37136     37135     37137     37136     37135     37138     37137     37135     37138
     37138     37141     37142     37138     37141     37143     37138     37141     37144
     37139     37138     37140     37139     37138     37141     37140     37138     37141
     37141     37144     37145     37141     37144     37146     37141     37144     37147
     37142     37141     37143     37142     37141     37144     37143     37141     37144
     37144     37147     37148     37144     37147     37149     37144     37147     37150
     37145     37144     37146     37145     37144     37147     37146     37144     37147
     37147     37150     37151     37147     37150     37152     37147     37150     37153
     37148     37147     37149     37148     37147     37150     37149     37147     37150
     37150     37153     37154     37150     37153     37155     37151     37150     37152
     37151     37150     37153     37152     37150     37153     37153     37155     37156
     37153     37155     37157     37154     37153     37155     37155     37157     37158
     37155     37157     37159     37155     37157     37160     37156     37155     37157
     37157     37160     37161     37157     37160     37162     37157     37160     37163
     37158     37157     37159     37158     37157     37160     37159     37157     37160
     37160     37163     37164     37160     37163     37165     37160     37163     37166
     37161     37160     37162     37161     37160     37163     37162     37160     37163
     37163     37166     37167     37163     37166     37168     37163     37166     37169
     37164     37163     37165     37164     37163     37166     37165     37163     37166
     37166     37169     37170     37166     37169     37171     37166     37169     37172
     37167     37166     37168     37167     37166     37169     37168     37166     37169
     37169     37172     37173     37169     37172     37174     37169     37172     37175
     37170     37169     37171     37170     37169     37172     37171     37169     37172
     37172     37175     37176     37172     37175     37177     37172     37175     37178
     37173     37172     37174     37173     37172     37175     37174     37172     37175
     37175     37178     37179     37175     37178     37180     37175     37178     37181
     37176     37175     37177     37176     37175     37178     37177     37175     37178
     37179     37178     37180     37179     37178     37181     37180     37178     37181
     37182     37185     37186     37182     37185     37187     37182     37185     37188
     37183     37182     37184     37183     37182     37185     37184     37182     37185
     37185     37188     37189     37185     37188     37190     37185     37188     37191
     37186     37185     37187     37186     37185     37188     37187     37185     37188
     37188     37191     37192     37188     37191     37193     37188     37191     37194
     37189     37188     37190     37189     37188     37191     37190     37188     37191
     37191     37194     37195     37191     37194     37196     37191     37194     37197
     37192     37191     37193     37192     37191     37194     37193     37191     37194
     37194     37197     37198     37194     37197     37199     37194     37197     37200
     37195     37194     37196     37195     37194     37197     37196     37194     37197
     37197     37200     37201     37197     37200     37202     37197     37200     37203
     37198     37197     37199     37198     37197     37200     37199     37197     37200
     37200     37203     37204     37200     37203     37205     37200     37203     37206
     37201     37200     37202     37201     37200     37203     37202     37200     37203
     37203     37206     37207     37203     37206     37208     37203     37206     37209
     37204     37203     37205     37204     37203     37206     37205     37203     37206
     37206     37209     37210     37206     37209     37211     37206     37209     37212
     37207     37206     37208     37207     37206     37209     37208     37206     37209
     37209     37212     37213     37209     37212     37214     37209     37212     37215
     37210     37209     37211     37210     37209     37212     37211     37209     37212
     37212     37215     37216     37212     37215     37217     37212     37215     37218
     37213     37212     37214     37213     37212     37215     37214     37212     37215
     37215     37218     37219     37215     37218     37220     37215     37218     37221
     37216     37215     37217     37216     37215     37218     37217     37215     37218
     37218     37221     37222     37218     37221     37223     37218     37221     37224
     37219     37218     37220     37219     37218     37221     37220     37218     37221
     37222     37221     37223     37222     37221     37224     37223     37221     37224
     37225     37226     37227     37225     37226     37228     37225     37226     37241
     37225     37229     37230     37225     37229     37231     37225     37229     37232
     37225     37233     37234     37225     37233     37235     37225     37233     37236
     37225     37237     37238     37225     37237     37239     37225     37237     37240
     37226     37225     37229     37226     37225     37233     37226     37225     37237
     37226     37241     37242     37226     37241     37243     37226     37241     37247
     37227     37226     37228     37227     37226     37241     37228     37226     37241
     37229     37225     37233     37229     37225     37237     37230     37229     37231
     37230     37229     37232     37231     37229     37232     37233     37225     37237
     37234     37233     37235     37234     37233     37236     37235     37233     37236
     37238     37237     37239     37238     37237     37240     37239     37237     37240
     37241     37247     37244     37242     37241     37243     37242     37241     37247
     37243     37241     37247     37244     37248     37249     37245     37244     37246
     37245     37244     37247     37245     37244     37248     37246     37244     37247
     37246     37244     37248     37247     37244     37248     37248     37249     37250
     37248     37249     37251     37248     37249     37252     37249     37252     37253
     37249     37252     37254     37249     37252     37260     37250     37249     37251
     37250     37249     37252     37251     37249     37252     37252     37254     37255
     37252     37260     37261     37252     37260     37262     37252     37260     37263
     37253     37252     37254     37253     37252     37260     37254     37252     37260
     37254     37255     37256     37254     37255     37257     37255     37257     37258
     37255     37257     37259     37255     37257     37269     37256     37255     37257
     37257     37269     37270     37257     37269     37271     37257     37269     37272
     37258     37257     37259     37258     37257     37269     37259     37257     37269
     37260     37263     37264     37261     37260     37262     37261     37260     37263
     37262     37260     37263     37263     37264     37265     37263     37264     37266
     37264     37266     37267     37264     37266     37268     37264     37266     37316
     37265     37264     37266     37266     37316     37317     37266     37316     37318
     37266     37316     37319     37267     37266     37268     37267     37266     37316
     37268     37266     37316     37269     37272     37273     37269     37272     37274
     37269     37272     37275     37270     37269     37271     37270     37269     37272
     37271     37269     37272     37272     37275     37276     37272     37275     37277
     37272     37275     37278     37273     37272     37274     37273     37272     37275
     37274     37272     37275     37275     37278     37279     37275     37278     37280
     37275     37278     37281     37276     37275     37277     37276     37275     37278
     37277     37275     37278     37278     37281     37282     37278     37281     37283
     37278     37281     37284     37279     37278     37280     37279     37278     37281
     37280     37278     37281     37281     37284     37285     37281     37284     37286
     37281     37284     37287     37282     37281     37283     37282     37281     37284
     37283     37281     37284     37284     37287     37288     37284     37287     37289
     37285     37284     37286     37285     37284     37287     37286     37284     37287
     37287     37289     37290     37287     37289     37291     37288     37287     37289
     37289     37291     37292     37289     37291     37293     37289     37291     37294
     37290     37289     37291     37291     37294     37295     37291     37294     37296
     37291     37294     37297     37292     37291     37293     37292     37291     37294
     37293     37291     37294     37294     37297     37298     37294     37297     37299
     37294     37297     37300     37295     37294     37296     37295     37294     37297
     37296     37294     37297     37297     37300     37301     37297     37300     37302
     37297     37300     37303     37298     37297     37299     37298     37297     37300
     37299     37297     37300     37300     37303     37304     37300     37303     37305
     37300     37303     37306     37301     37300     37302     37301     37300     37303
     37302     37300     37303     37303     37306     37307     37303     37306     37308
     37303     37306     37309     37304     37303     37305     37304     37303     37306
     37305     37303     37306     37306     37309     37310     37306     37309     37311
     37306     37309     37312     37307     37306     37308     37307     37306     37309
     37308     37306     37309     37309     37312     37313     37309     37312     37314
     37309     37312     37315     37310     37309     37311     37310     37309     37312
     37311     37309     37312     37313     37312     37314     37313     37312     37315
     37314     37312     37315     37316     37319     37320     37316     37319     37321
     37316     37319     37322     37317     37316     37318     37317     37316     37319
     37318     37316     37319     37319     37322     37323     37319     37322     37324
     37319     37322     37325     37320     37319     37321     37320     37319     37322
     37321     37319     37322     37322     37325     37326     37322     37325     37327
     37322     37325     37328     37323     37322     37324     37323     37322     37325
     37324     37322     37325     37325     37328     37329     37325     37328     37330
     37325     37328     37331     37326     37325     37327     37326     37325     37328
     37327     37325     37328     37328     37331     37332     37328     37331     37333
     37328     37331     37334     37329     37328     37330     37329     37328     37331
     37330     37328     37331     37331     37334     37335     37331     37334     37336
     37331     37334     37337     37332     37331     37333     37332     37331     37334
     37333     37331     37334     37334     37337     37338     37334     37337     37339
     37334     37337     37340     37335     37334     37336     37335     37334     37337
     37336     37334     37337     37337     37340     37341     37337     37340     37342
     37337     37340     37343     37338     37337     37339     37338     37337     37340
     37339     37337     37340     37340     37343     37344     37340     37343     37345
     37340     37343     37346     37341     37340     37342     37341     37340     37343
     37342     37340     37343     37343     37346     37347     37343     37346     37348
     37343     37346     37349     37344     37343     37345     37344     37343     37346
     37345     37343     37346     37346     37349     37350     37346     37349     37351
     37346     37349     37352     37347     37346     37348     37347     37346     37349
     37348     37346     37349     37349     37352     37353     37349     37352     37354
     37349     37352     37355     37350     37349     37351     37350     37349     37352
     37351     37349     37352     37352     37355     37356     37352     37355     37357
     37352     37355     37358     37353     37352     37354     37353     37352     37355
     37354     37352     37355     37356     37355     37357     37356     37355     37358
     37357     37355     37358     37359     37360     37361     37359     37360     37362
     37359     37360     37375     37359     37363     37364     37359     37363     37365
     37359     37363     37366     37359     37367     37368     37359     37367     37369
     37359     37367     37370     37359     37371     37372     37359     37371     37373
     37359     37371     37374     37360     37359     37363     37360     37359     37367
     37360     37359     37371     37360     37375     37376     37360     37375     37377
     37360     37375     37381     37361     37360     37362     37361     37360     37375
     37362     37360     37375     37363     37359     37367     37363     37359     37371
     37364     37363     37365     37364     37363     37366     37365     37363     37366
     37367     37359     37371     37368     37367     37369     37368     37367     37370
     37369     37367     37370     37372     37371     37373     37372     37371     37374
     37373     37371     37374     37375     37381     37378     37376     37375     37377
     37376     37375     37381     37377     37375     37381     37378     37382     37383
     37379     37378     37380     37379     37378     37381     37379     37378     37382
     37380     37378     37381     37380     37378     37382     37381     37378     37382
     37382     37383     37384     37382     37383     37385     37382     37383     37386
     37383     37386     37387     37383     37386     37388     37383     37386     37394
     37384     37383     37385     37384     37383     37386     37385     37383     37386
     37386     37388     37389     37386     37394     37395     37386     37394     37396
     37386     37394     37397     37387     37386     37388     37387     37386     37394
     37388     37386     37394     37388     37389     37390     37388     37389     37391
     37389     37391     37392     37389     37391     37393     37389     37391     37403
     37390     37389     37391     37391     37403     37404     37391     37403     37405
     37391     37403     37406     37392     37391     37393     37392     37391     37403
     37393     37391     37403     37394     37397     37398     37395     37394     37396
     37395     37394     37397     37396     37394     37397     37397     37398     37399
     37397     37398     37400     37398     37400     37401     37398     37400     37402
     37398     37400     37450     37399     37398     37400     37400     37450     37451
     37400     37450     37452     37400     37450     37453     37401     37400     37402
     37401     37400     37450     37402     37400     37450     37403     37406     37407
     37403     37406     37408     37403     37406     37409     37404     37403     37405
     37404     37403     37406     37405     37403     37406     37406     37409     37410
     37406     37409     37411     37406     37409     37412     37407     37406     37408
     37407     37406     37409     37408     37406     37409     37409     37412     37413
     37409     37412     37414     37409     37412     37415     37410     37409     37411
     37410     37409     37412     37411     37409     37412     37412     37415     37416
     37412     37415     37417     37412     37415     37418     37413     37412     37414
     37413     37412     37415     37414     37412     37415     37415     37418     37419
     37415     37418     37420     37415     37418     37421     37416     37415     37417
     37416     37415     37418     37417     37415     37418     37418     37421     37422
     37418     37421     37423     37419     37418     37420     37419     37418     37421
     37420     37418     37421     37421     37423     37424     37421     37423     37425
     37422     37421     37423     37423     37425     37426     37423     37425     37427
     37423     37425     37428     37424     37423     37425     37425     37428     37429
     37425     37428     37430     37425     37428     37431     37426     37425     37427
     37426     37425     37428     37427     37425     37428     37428     37431     37432
     37428     37431     37433     37428     37431     37434     37429     37428     37430
     37429     37428     37431     37430     37428     37431     37431     37434     37435
     37431     37434     37436     37431     37434     37437     37432     37431     37433
     37432     37431     37434     37433     37431     37434     37434     37437     37438
     37434     37437     37439     37434     37437     37440     37435     37434     37436
     37435     37434     37437     37436     37434     37437     37437     37440     37441
     37437     37440     37442     37437     37440     37443     37438     37437     37439
     37438     37437     37440     37439     37437     37440     37440     37443     37444
     37440     37443     37445     37440     37443     37446     37441     37440     37442
     37441     37440     37443     37442     37440     37443     37443     37446     37447
     37443     37446     37448     37443     37446     37449     37444     37443     37445
     37444     37443     37446     37445     37443     37446     37447     37446     37448
     37447     37446     37449     37448     37446     37449     37450     37453     37454
     37450     37453     37455     37450     37453     37456     37451     37450     37452
     37451     37450     37453     37452     37450     37453     37453     37456     37457
     37453     37456     37458     37453     37456     37459     37454     37453     37455
     37454     37453     37456     37455     37453     37456     37456     37459     37460
     37456     37459     37461     37456     37459     37462     37457     37456     37458
     37457     37456     37459     37458     37456     37459     37459     37462     37463
     37459     37462     37464     37459     37462     37465     37460     37459     37461
     37460     37459     37462     37461     37459     37462     37462     37465     37466
     37462     37465     37467     37462     37465     37468     37463     37462     37464
     37463     37462     37465     37464     37462     37465     37465     37468     37469
     37465     37468     37470     37465     37468     37471     37466     37465     37467
     37466     37465     37468     37467     37465     37468     37468     37471     37472
     37468     37471     37473     37468     37471     37474     37469     37468     37470
     37469     37468     37471     37470     37468     37471     37471     37474     37475
     37471     37474     37476     37471     37474     37477     37472     37471     37473
     37472     37471     37474     37473     37471     37474     37474     37477     37478
     37474     37477     37479     37474     37477     37480     37475     37474     37476
     37475     37474     37477     37476     37474     37477     37477     37480     37481
     37477     37480     37482     37477     37480     37483     37478     37477     37479
     37478     37477     37480     37479     37477     37480     37480     37483     37484
     37480     37483     37485     37480     37483     37486     37481     37480     37482
     37481     37480     37483     37482     37480     37483     37483     37486     37487
     37483     37486     37488     37483     37486     37489     37484     37483     37485
     37484     37483     37486     37485     37483     37486     37486     37489     37490
     37486     37489     37491     37486     37489     37492     37487     37486     37488
     37487     37486     37489     37488     37486     37489     37490     37489     37491
     37490     37489     37492     37491     37489     37492     37493     37494     37495
     37493     37494     37496     37493     37494     37509     37493     37497     37498
     37493     37497     37499     37493     37497     37500     37493     37501     37502
     37493     37501     37503     37493     37501     37504     37493     37505     37506
     37493     37505     37507     37493     37505     37508     37494     37493     37497
     37494     37493     37501     37494     37493     37505     37494     37509     37510
     37494     37509     37511     37494     37509     37515     37495     37494     37496
     37495     37494     37509     37496     37494     37509     37497     37493     37501
     37497     37493     37505     37498     37497     37499     37498     37497     37500
     37499     37497     37500     37501     37493     37505     37502     37501     37503
     37502     37501     37504     37503     37501     37504     37506     37505     37507
     37506     37505     37508     37507     37505     37508     37509     37515     37512
     37510     37509     37511     37510     37509     37515     37511     37509     37515
     37512     37516     37517     37513     37512     37514     37513     37512     37515
     37513     37512     37516     37514     37512     37515     37514     37512     37516
     37515     37512     37516     37516     37517     37518     37516     37517     37519
     37516     37517     37520     37517     37520     37521     37517     37520     37522
     37517     37520     37528     37518     37517     37519     37518     37517     37520
     37519     37517     37520     37520     37522     37523     37520     37528     37529
     37520     37528     37530     37520     37528     37531     37521     37520     37522
     37521     37520     37528     37522     37520     37528     37522     37523     37524
     37522     37523     37525     37523     37525     37526     37523     37525     37527
     37523     37525     37537     37524     37523     37525     37525     37537     37538
     37525     37537     37539     37525     37537     37540     37526     37525     37527
     37526     37525     37537     37527     37525     37537     37528     37531     37532
     37529     37528     37530     37529     37528     37531     37530     37528     37531
     37531     37532     37533     37531     37532     37534     37532     37534     37535
     37532     37534     37536     37532     37534     37584     37533     37532     37534
     37534     37584     37585     37534     37584     37586     37534     37584     37587
     37535     37534     37536     37535     37534     37584     37536     37534     37584
     37537     37540     37541     37537     37540     37542     37537     37540     37543
     37538     37537     37539     37538     37537     37540     37539     37537     37540
     37540     37543     37544     37540     37543     37545     37540     37543     37546
     37541     37540     37542     37541     37540     37543     37542     37540     37543
     37543     37546     37547     37543     37546     37548     37543     37546     37549
     37544     37543     37545     37544     37543     37546     37545     37543     37546
     37546     37549     37550     37546     37549     37551     37546     37549     37552
     37547     37546     37548     37547     37546     37549     37548     37546     37549
     37549     37552     37553     37549     37552     37554     37549     37552     37555
     37550     37549     37551     37550     37549     37552     37551     37549     37552
     37552     37555     37556     37552     37555     37557     37553     37552     37554
     37553     37552     37555     37554     37552     37555     37555     37557     37558
     37555     37557     37559     37556     37555     37557     37557     37559     37560
     37557     37559     37561     37557     37559     37562     37558     37557     37559
     37559     37562     37563     37559     37562     37564     37559     37562     37565
     37560     37559     37561     37560     37559     37562     37561     37559     37562
     37562     37565     37566     37562     37565     37567     37562     37565     37568
     37563     37562     37564     37563     37562     37565     37564     37562     37565
     37565     37568     37569     37565     37568     37570     37565     37568     37571
     37566     37565     37567     37566     37565     37568     37567     37565     37568
     37568     37571     37572     37568     37571     37573     37568     37571     37574
     37569     37568     37570     37569     37568     37571     37570     37568     37571
     37571     37574     37575     37571     37574     37576     37571     37574     37577
     37572     37571     37573     37572     37571     37574     37573     37571     37574
     37574     37577     37578     37574     37577     37579     37574     37577     37580
     37575     37574     37576     37575     37574     37577     37576     37574     37577
     37577     37580     37581     37577     37580     37582     37577     37580     37583
     37578     37577     37579     37578     37577     37580     37579     37577     37580
     37581     37580     37582     37581     37580     37583     37582     37580     37583
     37584     37587     37588     37584     37587     37589     37584     37587     37590
     37585     37584     37586     37585     37584     37587     37586     37584     37587
     37587     37590     37591     37587     37590     37592     37587     37590     37593
     37588     37587     37589     37588     37587     37590     37589     37587     37590
     37590     37593     37594     37590     37593     37595     37590     37593     37596
     37591     37590     37592     37591     37590     37593     37592     37590     37593
     37593     37596     37597     37593     37596     37598     37593     37596     37599
     37594     37593     37595     37594     37593     37596     37595     37593     37596
     37596     37599     37600     37596     37599     37601     37596     37599     37602
     37597     37596     37598     37597     37596     37599     37598     37596     37599
     37599     37602     37603     37599     37602     37604     37599     37602     37605
     37600     37599     37601     37600     37599     37602     37601     37599     37602
     37602     37605     37606     37602     37605     37607     37602     37605     37608
     37603     37602     37604     37603     37602     37605     37604     37602     37605
     37605     37608     37609     37605     37608     37610     37605     37608     37611
     37606     37605     37607     37606     37605     37608     37607     37605     37608
     37608     37611     37612     37608     37611     37613     37608     37611     37614
     37609     37608     37610     37609     37608     37611     37610     37608     37611
     37611     37614     37615     37611     37614     37616     37611     37614     37617
     37612     37611     37613     37612     37611     37614     37613     37611     37614
     37614     37617     37618     37614     37617     37619     37614     37617     37620
     37615     37614     37616     37615     37614     37617     37616     37614     37617
     37617     37620     37621     37617     37620     37622     37617     37620     37623
     37618     37617     37619     37618     37617     37620     37619     37617     37620
     37620     37623     37624     37620     37623     37625     37620     37623     37626
     37621     37620     37622     37621     37620     37623     37622     37620     37623
     37624     37623     37625     37624     37623     37626     37625     37623     37626
     37627     37628     37629     37627     37628     37630     37627     37628     37643
     37627     37631     37632     37627     37631     37633     37627     37631     37634
     37627     37635     37636     37627     37635     37637     37627     37635     37638
     37627     37639     37640     37627     37639     37641     37627     37639     37642
     37628     37627     37631     37628     37627     37635     37628     37627     37639
     37628     37643     37644     37628     37643     37645     37628     37643     37649
     37629     37628     37630     37629     37628     37643     37630     37628     37643
     37631     37627     37635     37631     37627     37639     37632     37631     37633
     37632     37631     37634     37633     37631     37634     37635     37627     37639
     37636     37635     37637     37636     37635     37638     37637     37635     37638
     37640     37639     37641     37640     37639     37642     37641     37639     37642
     37643     37649     37646     37644     37643     37645     37644     37643     37649
     37645     37643     37649     37646     37650     37651     37647     37646     37648
     37647     37646     37649     37647     37646     37650     37648     37646     37649
     37648     37646     37650     37649     37646     37650     37650     37651     37652
     37650     37651     37653     37650     37651     37654     37651     37654     37655
     37651     37654     37656     37651     37654     37662     37652     37651     37653
     37652     37651     37654     37653     37651     37654     37654     37656     37657
     37654     37662     37663     37654     37662     37664     37654     37662     37665
     37655     37654     37656     37655     37654     37662     37656     37654     37662
     37656     37657     37658     37656     37657     37659     37657     37659     37660
     37657     37659     37661     37657     37659     37671     37658     37657     37659
     37659     37671     37672     37659     37671     37673     37659     37671     37674
     37660     37659     37661     37660     37659     37671     37661     37659     37671
     37662     37665     37666     37663     37662     37664     37663     37662     37665
     37664     37662     37665     37665     37666     37667     37665     37666     37668
     37666     37668     37669     37666     37668     37670     37666     37668     37718
     37667     37666     37668     37668     37718     37719     37668     37718     37720
     37668     37718     37721     37669     37668     37670     37669     37668     37718
     37670     37668     37718     37671     37674     37675     37671     37674     37676
     37671     37674     37677     37672     37671     37673     37672     37671     37674
     37673     37671     37674     37674     37677     37678     37674     37677     37679
     37674     37677     37680     37675     37674     37676     37675     37674     37677
     37676     37674     37677     37677     37680     37681     37677     37680     37682
     37677     37680     37683     37678     37677     37679     37678     37677     37680
     37679     37677     37680     37680     37683     37684     37680     37683     37685
     37680     37683     37686     37681     37680     37682     37681     37680     37683
     37682     37680     37683     37683     37686     37687     37683     37686     37688
     37683     37686     37689     37684     37683     37685     37684     37683     37686
     37685     37683     37686     37686     37689     37690     37686     37689     37691
     37687     37686     37688     37687     37686     37689     37688     37686     37689
     37689     37691     37692     37689     37691     37693     37690     37689     37691
     37691     37693     37694     37691     37693     37695     37691     37693     37696
     37692     37691     37693     37693     37696     37697     37693     37696     37698
     37693     37696     37699     37694     37693     37695     37694     37693     37696
     37695     37693     37696     37696     37699     37700     37696     37699     37701
     37696     37699     37702     37697     37696     37698     37697     37696     37699
     37698     37696     37699     37699     37702     37703     37699     37702     37704
     37699     37702     37705     37700     37699     37701     37700     37699     37702
     37701     37699     37702     37702     37705     37706     37702     37705     37707
     37702     37705     37708     37703     37702     37704     37703     37702     37705
     37704     37702     37705     37705     37708     37709     37705     37708     37710
     37705     37708     37711     37706     37705     37707     37706     37705     37708
     37707     37705     37708     37708     37711     37712     37708     37711     37713
     37708     37711     37714     37709     37708     37710     37709     37708     37711
     37710     37708     37711     37711     37714     37715     37711     37714     37716
     37711     37714     37717     37712     37711     37713     37712     37711     37714
     37713     37711     37714     37715     37714     37716     37715     37714     37717
     37716     37714     37717     37718     37721     37722     37718     37721     37723
     37718     37721     37724     37719     37718     37720     37719     37718     37721
     37720     37718     37721     37721     37724     37725     37721     37724     37726
     37721     37724     37727     37722     37721     37723     37722     37721     37724
     37723     37721     37724     37724     37727     37728     37724     37727     37729
     37724     37727     37730     37725     37724     37726     37725     37724     37727
     37726     37724     37727     37727     37730     37731     37727     37730     37732
     37727     37730     37733     37728     37727     37729     37728     37727     37730
     37729     37727     37730     37730     37733     37734     37730     37733     37735
     37730     37733     37736     37731     37730     37732     37731     37730     37733
     37732     37730     37733     37733     37736     37737     37733     37736     37738
     37733     37736     37739     37734     37733     37735     37734     37733     37736
     37735     37733     37736     37736     37739     37740     37736     37739     37741
     37736     37739     37742     37737     37736     37738     37737     37736     37739
     37738     37736     37739     37739     37742     37743     37739     37742     37744
     37739     37742     37745     37740     37739     37741     37740     37739     37742
     37741     37739     37742     37742     37745     37746     37742     37745     37747
     37742     37745     37748     37743     37742     37744     37743     37742     37745
     37744     37742     37745     37745     37748     37749     37745     37748     37750
     37745     37748     37751     37746     37745     37747     37746     37745     37748
     37747     37745     37748     37748     37751     37752     37748     37751     37753
     37748     37751     37754     37749     37748     37750     37749     37748     37751
     37750     37748     37751     37751     37754     37755     37751     37754     37756
     37751     37754     37757     37752     37751     37753     37752     37751     37754
     37753     37751     37754     37754     37757     37758     37754     37757     37759
     37754     37757     37760     37755     37754     37756     37755     37754     37757
     37756     37754     37757     37758     37757     37759     37758     37757     37760
     37759     37757     37760     37761     37762     37763     37761     37762     37764
     37761     37762     37777     37761     37765     37766     37761     37765     37767
     37761     37765     37768     37761     37769     37770     37761     37769     37771
     37761     37769     37772     37761     37773     37774     37761     37773     37775
     37761     37773     37776     37762     37761     37765     37762     37761     37769
     37762     37761     37773     37762     37777     37778     37762     37777     37779
     37762     37777     37783     37763     37762     37764     37763     37762     37777
     37764     37762     37777     37765     37761     37769     37765     37761     37773
     37766     37765     37767     37766     37765     37768     37767     37765     37768
     37769     37761     37773     37770     37769     37771     37770     37769     37772
     37771     37769     37772     37774     37773     37775     37774     37773     37776
     37775     37773     37776     37777     37783     37780     37778     37777     37779
     37778     37777     37783     37779     37777     37783     37780     37784     37785
     37781     37780     37782     37781     37780     37783     37781     37780     37784
     37782     37780     37783     37782     37780     37784     37783     37780     37784
     37784     37785     37786     37784     37785     37787     37784     37785     37788
     37785     37788     37789     37785     37788     37790     37785     37788     37796
     37786     37785     37787     37786     37785     37788     37787     37785     37788
     37788     37790     37791     37788     37796     37797     37788     37796     37798
     37788     37796     37799     37789     37788     37790     37789     37788     37796
     37790     37788     37796     37790     37791     37792     37790     37791     37793
     37791     37793     37794     37791     37793     37795     37791     37793     37805
     37792     37791     37793     37793     37805     37806     37793     37805     37807
     37793     37805     37808     37794     37793     37795     37794     37793     37805
     37795     37793     37805     37796     37799     37800     37797     37796     37798
     37797     37796     37799     37798     37796     37799     37799     37800     37801
     37799     37800     37802     37800     37802     37803     37800     37802     37804
     37800     37802     37852     37801     37800     37802     37802     37852     37853
     37802     37852     37854     37802     37852     37855     37803     37802     37804
     37803     37802     37852     37804     37802     37852     37805     37808     37809
     37805     37808     37810     37805     37808     37811     37806     37805     37807
     37806     37805     37808     37807     37805     37808     37808     37811     37812
     37808     37811     37813     37808     37811     37814     37809     37808     37810
     37809     37808     37811     37810     37808     37811     37811     37814     37815
     37811     37814     37816     37811     37814     37817     37812     37811     37813
     37812     37811     37814     37813     37811     37814     37814     37817     37818
     37814     37817     37819     37814     37817     37820     37815     37814     37816
     37815     37814     37817     37816     37814     37817     37817     37820     37821
     37817     37820     37822     37817     37820     37823     37818     37817     37819
     37818     37817     37820     37819     37817     37820     37820     37823     37824
     37820     37823     37825     37821     37820     37822     37821     37820     37823
     37822     37820     37823     37823     37825     37826     37823     37825     37827
     37824     37823     37825     37825     37827     37828     37825     37827     37829
     37825     37827     37830     37826     37825     37827     37827     37830     37831
     37827     37830     37832     37827     37830     37833     37828     37827     37829
     37828     37827     37830     37829     37827     37830     37830     37833     37834
     37830     37833     37835     37830     37833     37836     37831     37830     37832
     37831     37830     37833     37832     37830     37833     37833     37836     37837
     37833     37836     37838     37833     37836     37839     37834     37833     37835
     37834     37833     37836     37835     37833     37836     37836     37839     37840
     37836     37839     37841     37836     37839     37842     37837     37836     37838
     37837     37836     37839     37838     37836     37839     37839     37842     37843
     37839     37842     37844     37839     37842     37845     37840     37839     37841
     37840     37839     37842     37841     37839     37842     37842     37845     37846
     37842     37845     37847     37842     37845     37848     37843     37842     37844
     37843     37842     37845     37844     37842     37845     37845     37848     37849
     37845     37848     37850     37845     37848     37851     37846     37845     37847
     37846     37845     37848     37847     37845     37848     37849     37848     37850
     37849     37848     37851     37850     37848     37851     37852     37855     37856
     37852     37855     37857     37852     37855     37858     37853     37852     37854
     37853     37852     37855     37854     37852     37855     37855     37858     37859
     37855     37858     37860     37855     37858     37861     37856     37855     37857
     37856     37855     37858     37857     37855     37858     37858     37861     37862
     37858     37861     37863     37858     37861     37864     37859     37858     37860
     37859     37858     37861     37860     37858     37861     37861     37864     37865
     37861     37864     37866     37861     37864     37867     37862     37861     37863
     37862     37861     37864     37863     37861     37864     37864     37867     37868
     37864     37867     37869     37864     37867     37870     37865     37864     37866
     37865     37864     37867     37866     37864     37867     37867     37870     37871
     37867     37870     37872     37867     37870     37873     37868     37867     37869
     37868     37867     37870     37869     37867     37870     37870     37873     37874
     37870     37873     37875     37870     37873     37876     37871     37870     37872
     37871     37870     37873     37872     37870     37873     37873     37876     37877
     37873     37876     37878     37873     37876     37879     37874     37873     37875
     37874     37873     37876     37875     37873     37876     37876     37879     37880
     37876     37879     37881     37876     37879     37882     37877     37876     37878
     37877     37876     37879     37878     37876     37879     37879     37882     37883
     37879     37882     37884     37879     37882     37885     37880     37879     37881
     37880     37879     37882     37881     37879     37882     37882     37885     37886
     37882     37885     37887     37882     37885     37888     37883     37882     37884
     37883     37882     37885     37884     37882     37885     37885     37888     37889
     37885     37888     37890     37885     37888     37891     37886     37885     37887
     37886     37885     37888     37887     37885     37888     37888     37891     37892
     37888     37891     37893     37888     37891     37894     37889     37888     37890
     37889     37888     37891     37890     37888     37891     37892     37891     37893
     37892     37891     37894     37893     37891     37894     37895     37896     37897
     37895     37896     37898     37895     37896     37911     37895     37899     37900
     37895     37899     37901     37895     37899     37902     37895     37903     37904
     37895     37903     37905     37895     37903     37906     37895     37907     37908
     37895     37907     37909     37895     37907     37910     37896     37895     37899
     37896     37895     37903     37896     37895     37907     37896     37911     37912
     37896     37911     37913     37896     37911     37917     37897     37896     37898
     37897     37896     37911     37898     37896     37911     37899     37895     37903
     37899     37895     37907     37900     37899     37901     37900     37899     37902
     37901     37899     37902     37903     37895     37907     37904     37903     37905
     37904     37903     37906     37905     37903     37906     37908     37907     37909
     37908     37907     37910     37909     37907     37910     37911     37917     37914
     37912     37911     37913     37912     37911     37917     37913     37911     37917
     37914     37918     37919     37915     37914     37916     37915     37914     37917
     37915     37914     37918     37916     37914     37917     37916     37914     37918
     37917     37914     37918     37918     37919     37920     37918     37919     37921
     37918     37919     37922     37919     37922     37923     37919     37922     37924
     37919     37922     37930     37920     37919     37921     37920     37919     37922
     37921     37919     37922     37922     37924     37925     37922     37930     37931
     37922     37930     37932     37922     37930     37933     37923     37922     37924
     37923     37922     37930     37924     37922     37930     37924     37925     37926
     37924     37925     37927     37925     37927     37928     37925     37927     37929
     37925     37927     37939     37926     37925     37927     37927     37939     37940
     37927     37939     37941     37927     37939     37942     37928     37927     37929
     37928     37927     37939     37929     37927     37939     37930     37933     37934
     37931     37930     37932     37931     37930     37933     37932     37930     37933
     37933     37934     37935     37933     37934     37936     37934     37936     37937
     37934     37936     37938     37934     37936     37986     37935     37934     37936
     37936     37986     37987     37936     37986     37988     37936     37986     37989
     37937     37936     37938     37937     37936     37986     37938     37936     37986
     37939     37942     37943     37939     37942     37944     37939     37942     37945
     37940     37939     37941     37940     37939     37942     37941     37939     37942
     37942     37945     37946     37942     37945     37947     37942     37945     37948
     37943     37942     37944     37943     37942     37945     37944     37942     37945
     37945     37948     37949     37945     37948     37950     37945     37948     37951
     37946     37945     37947     37946     37945     37948     37947     37945     37948
     37948     37951     37952     37948     37951     37953     37948     37951     37954
     37949     37948     37950     37949     37948     37951     37950     37948     37951
     37951     37954     37955     37951     37954     37956     37951     37954     37957
     37952     37951     37953     37952     37951     37954     37953     37951     37954
     37954     37957     37958     37954     37957     37959     37955     37954     37956
     37955     37954     37957     37956     37954     37957     37957     37959     37960
     37957     37959     37961     37958     37957     37959     37959     37961     37962
     37959     37961     37963     37959     37961     37964     37960     37959     37961
     37961     37964     37965     37961     37964     37966     37961     37964     37967
     37962     37961     37963     37962     37961     37964     37963     37961     37964
     37964     37967     37968     37964     37967     37969     37964     37967     37970
     37965     37964     37966     37965     37964     37967     37966     37964     37967
     37967     37970     37971     37967     37970     37972     37967     37970     37973
     37968     37967     37969     37968     37967     37970     37969     37967     37970
     37970     37973     37974     37970     37973     37975     37970     37973     37976
     37971     37970     37972     37971     37970     37973     37972     37970     37973
     37973     37976     37977     37973     37976     37978     37973     37976     37979
     37974     37973     37975     37974     37973     37976     37975     37973     37976
     37976     37979     37980     37976     37979     37981     37976     37979     37982
     37977     37976     37978     37977     37976     37979     37978     37976     37979
     37979     37982     37983     37979     37982     37984     37979     37982     37985
     37980     37979     37981     37980     37979     37982     37981     37979     37982
     37983     37982     37984     37983     37982     37985     37984     37982     37985
     37986     37989     37990     37986     37989     37991     37986     37989     37992
     37987     37986     37988     37987     37986     37989     37988     37986     37989
     37989     37992     37993     37989     37992     37994     37989     37992     37995
     37990     37989     37991     37990     37989     37992     37991     37989     37992
     37992     37995     37996     37992     37995     37997     37992     37995     37998
     37993     37992     37994     37993     37992     37995     37994     37992     37995
     37995     37998     37999     37995     37998     38000     37995     37998     38001
     37996     37995     37997     37996     37995     37998     37997     37995     37998
     37998     38001     38002     37998     38001     38003     37998     38001     38004
     37999     37998     38000     37999     37998     38001     38000     37998     38001
     38001     38004     38005     38001     38004     38006     38001     38004     38007
     38002     38001     38003     38002     38001     38004     38003     38001     38004
     38004     38007     38008     38004     38007     38009     38004     38007     38010
     38005     38004     38006     38005     38004     38007     38006     38004     38007
     38007     38010     38011     38007     38010     38012     38007     38010     38013
     38008     38007     38009     38008     38007     38010     38009     38007     38010
     38010     38013     38014     38010     38013     38015     38010     38013     38016
     38011     38010     38012     38011     38010     38013     38012     38010     38013
     38013     38016     38017     38013     38016     38018     38013     38016     38019
     38014     38013     38015     38014     38013     38016     38015     38013     38016
     38016     38019     38020     38016     38019     38021     38016     38019     38022
     38017     38016     38018     38017     38016     38019     38018     38016     38019
     38019     38022     38023     38019     38022     38024     38019     38022     38025
     38020     38019     38021     38020     38019     38022     38021     38019     38022
     38022     38025     38026     38022     38025     38027     38022     38025     38028
     38023     38022     38024     38023     38022     38025     38024     38022     38025
     38026     38025     38027     38026     38025     38028     38027     38025     38028

    104961 !NPHI: dihedrals
         1         5         8         9         1         5         8        39
         1        47        44        39         1        47        44        45
         1        47        44        46         2         1         3         4
         2         1         5         6         2         1         5         7
         2         1         5         8         2         1        47        44
         2         1        47        48         2         1        47        49
         3         1         5         6         3         1         5         7
         3         1         5         8         3         1        47        44
         3         1        47        48         3         1        47        49
         4         3         1         5         4         3         1        47
         5         1        47        44         5         1        47        48
         5         1        47        49         5         8         9        10
         5         8         9        11         5         8        39        37
         5         8        39        40         5         8        39        44
         6         5         1        47         6         5         8         9
         6         5         8        39         7         5         1        47
         7         5         8         9         7         5         8        39
         8         5         1        47         8         9        11        12
         8         9        11        13         8         9        11        14
         8        39        37        14         8        39        37        34
         8        39        37        38         8        39        40        41
         8        39        40        42         8        39        40        43
         8        39        44        45         8        39        44        46
         8        39        44        47         9         8        39        37
         9         8        39        40         9         8        39        44
         9        11        14        15         9        11        14        16
         9        11        14        37        10         9         8        39
        10         9        11        12        10         9        11        13
        10         9        11        14        11         9         8        39
        11        14        16        17        11        14        16        18
        11        14        16        26        11        14        37        34
        11        14        37        38        11        14        37        39
        12        11        14        15        12        11        14        16
        12        11        14        37        13        11        14        15
        13        11        14        16        13        11        14        37
        14        16        18        19        14        16        18        20
        14        16        18        21        14        16        26        24
        14        16        26        27        14        16        26        31
        14        37        34        31        14        37        34        35
        14        37        34        36        14        37        39        40
        14        37        39        44        15        14        16        17
        15        14        16        18        15        14        16        26
        15        14        37        34        15        14        37        38
        15        14        37        39        16        14        37        34
        16        14        37        38        16        14        37        39
        16        18        21        22        16        18        21        23
        16        18        21        24        16        26        24        21
        16        26        24        25        16        26        24        50
        16        26        27        28        16        26        27        29
        16        26        27        30        16        26        31        32
        16        26        31        33        16        26        31        34
        17        16        14        37        17        16        18        19
        17        16        18        20        17        16        18        21
        17        16        26        24        17        16        26        27
        17        16        26        31        18        16        14        37
        18        16        26        24        18        16        26        27
        18        16        26        31        18        21        24        25
        18        21        24        26        18        21        24        50
        19        18        16        26        19        18        21        22
        19        18        21        23        19        18        21        24
        20        18        16        26        20        18        21        22
        20        18        21        23        20        18        21        24
        21        18        16        26        21        24        26        27
        21        24        26        31        21        24        50        51
        21        24        50        52        21        24        50        56
        22        21        24        25        22        21        24        26
        22        21        24        50        23        21        24        25
        23        21        24        26        23        21        24        50
        24        26        27        28        24        26        27        29
        24        26        27        30        24        26        31        32
        24        26        31        33        24        26        31        34
        24        50        52        53        24        50        52        54
        24        50        52        55        24        50        56        57
        24        50        56        58        24        50        56        59
        25        24        26        27        25        24        26        31
        25        24        50        51        25        24        50        52
        25        24        50        56        26        16        14        37
        26        24        50        51        26        24        50        52
        26        24        50        56        26        31        34        35
        26        31        34        36        26        31        34        37
        27        26        24        50        27        26        31        32
        27        26        31        33        27        26        31        34
        28        27        26        31        29        27        26        31
        30        27        26        31        31        26        24        50
        31        34        37        38        31        34        37        39
        32        31        34        35        32        31        34        36
        32        31        34        37        33        31        34        35
        33        31        34        36        33        31        34        37
        34        37        39        40        34        37        39        44
        35        34        37        38        35        34        37        39
        36        34        37        38        36        34        37        39
        37        39        40        41        37        39        40        42
        37        39        40        43        37        39        44        45
        37        39        44        46        37        39        44        47
        38        37        39        40        38        37        39        44
        39        44        47        48        39        44        47        49
        40        39        44        45        40        39        44        46
        40        39        44        47        41        40        39        44
        42        40        39        44        43        40        39        44
        45        44        47        48        45        44        47        49
        46        44        47        48        46        44        47        49
        50        56        59        60        50        56        59        61
        50        56        59        62        51        50        52        53
        51        50        52        54        51        50        52        55
        51        50        56        57        51        50        56        58
        51        50        56        59        52        50        56        57
        52        50        56        58        52        50        56        59
        53        52        50        56        54        52        50        56
        55        52        50        56        56        59        62        63
        56        59        62        64        56        59        62        65
        57        56        59        60        57        56        59        61
        57        56        59        62        58        56        59        60
        58        56        59        61        58        56        59        62
        59        62        65        66        59        62        65        67
        59        62        65        71        60        59        62        63
        60        59        62        64        60        59        62        65
        61        59        62        63        61        59        62        64
        61        59        62        65        62        65        67        68
        62        65        67        69        62        65        67        70
        62        65        71        72        62        65        71        73
        62        65        71        74        63        62        65        66
        63        62        65        67        63        62        65        71
        64        62        65        66        64        62        65        67
        64        62        65        71        66        65        67        68
        66        65        67        69        66        65        67        70
        66        65        71        72        66        65        71        73
        66        65        71        74        67        65        71        72
        67        65        71        73        67        65        71        74
        68        67        65        71        69        67        65        71
        70        67        65        71        75        79        82        83
        75        79        82       113        75       121       118       113
        75       121       118       119        75       121       118       120
        76        75        77        78        76        75        79        80
        76        75        79        81        76        75        79        82
        76        75       121       118        76        75       121       122
        76        75       121       123        77        75        79        80
        77        75        79        81        77        75        79        82
        77        75       121       118        77        75       121       122
        77        75       121       123        78        77        75        79
        78        77        75       121        79        75       121       118
        79        75       121       122        79        75       121       123
        79        82        83        84        79        82        83        85
        79        82       113       111        79        82       113       114
        79        82       113       118        80        79        75       121
        80        79        82        83        80        79        82       113
        81        79        75       121        81        79        82        83
        81        79        82       113        82        79        75       121
        82        83        85        86        82        83        85        87
        82        83        85        88        82       113       111        88
        82       113       111       108        82       113       111       112
        82       113       114       115        82       113       114       116
        82       113       114       117        82       113       118       119
        82       113       118       120        82       113       118       121
        83        82       113       111        83        82       113       114
        83        82       113       118        83        85        88        89
        83        85        88        90        83        85        88       111
        84        83        82       113        84        83        85        86
        84        83        85        87        84        83        85        88
        85        83        82       113        85        88        90        91
        85        88        90        92        85        88        90       100
        85        88       111       108        85        88       111       112
        85        88       111       113        86        85        88        89
        86        85        88        90        86        85        88       111
        87        85        88        89        87        85        88        90
        87        85        88       111        88        90        92        93
        88        90        92        94        88        90        92        95
        88        90       100        98        88        90       100       101
        88        90       100       105        88       111       108       105
        88       111       108       109        88       111       108       110
        88       111       113       114        88       111       113       118
        89        88        90        91        89        88        90        92
        89        88        90       100        89        88       111       108
        89        88       111       112        89        88       111       113
        90        88       111       108        90        88       111       112
        90        88       111       113        90        92        95        96
        90        92        95        97        90        92        95        98
        90       100        98        95        90       100        98        99
        90       100        98       124        90       100       101       102
        90       100       101       103        90       100       101       104
        90       100       105       106        90       100       105       107
        90       100       105       108        91        90        88       111
        91        90        92        93        91        90        92        94
        91        90        92        95        91        90       100        98
        91        90       100       101        91        90       100       105
        92        90        88       111        92        90       100        98
        92        90       100       101        92        90       100       105
        92        95        98        99        92        95        98       100
        92        95        98       124        93        92        90       100
        93        92        95        96        93        92        95        97
        93        92        95        98        94        92        90       100
        94        92        95        96        94        92        95        97
        94        92        95        98        95        92        90       100
        95        98       100       101        95        98       100       105
        95        98       124       125        95        98       124       126
        95        98       124       130        96        95        98        99
        96        95        98       100        96        95        98       124
        97        95        98        99        97        95        98       100
        97        95        98       124        98       100       101       102
        98       100       101       103        98       100       101       104
        98       100       105       106        98       100       105       107
        98       100       105       108        98       124       126       127
        98       124       126       128        98       124       126       129
        98       124       130       131        98       124       130       132
        98       124       130       133        99        98       100       101
        99        98       100       105        99        98       124       125
        99        98       124       126        99        98       124       130
       100        90        88       111       100        98       124       125
       100        98       124       126       100        98       124       130
       100       105       108       109       100       105       108       110
       100       105       108       111       101       100        98       124
       101       100       105       106       101       100       105       107
       101       100       105       108       102       101       100       105
       103       101       100       105       104       101       100       105
       105       100        98       124       105       108       111       112
       105       108       111       113       106       105       108       109
       106       105       108       110       106       105       108       111
       107       105       108       109       107       105       108       110
       107       105       108       111       108       111       113       114
       108       111       113       118       109       108       111       112
       109       108       111       113       110       108       111       112
       110       108       111       113       111       113       114       115
       111       113       114       116       111       113       114       117
       111       113       118       119       111       113       118       120
       111       113       118       121       112       111       113       114
       112       111       113       118       113       118       121       122
       113       118       121       123       114       113       118       119
       114       113       118       120       114       113       118       121
       115       114       113       118       116       114       113       118
       117       114       113       118       119       118       121       122
       119       118       121       123       120       118       121       122
       120       118       121       123       124       130       133       134
       124       130       133       135       124       130       133       136
       125       124       126       127       125       124       126       128
       125       124       126       129       125       124       130       131
       125       124       130       132       125       124       130       133
       126       124       130       131       126       124       130       132
       126       124       130       133       127       126       124       130
       128       126       124       130       129       126       124       130
       130       133       136       137       130       133       136       138
       130       133       136       139       131       130       133       134
       131       130       133       135       131       130       133       136
       132       130       133       134       132       130       133       135
       132       130       133       136       133       136       139       140
       133       136       139       141       133       136       139       145
       134       133       136       137       134       133       136       138
       134       133       136       139       135       133       136       137
       135       133       136       138       135       133       136       139
       136       139       141       142       136       139       141       143
       136       139       141       144       136       139       145       146
       136       139       145       147       136       139       145       148
       137       136       139       140       137       136       139       141
       137       136       139       145       138       136       139       140
       138       136       139       141       138       136       139       145
       140       139       141       142       140       139       141       143
       140       139       141       144       140       139       145       146
       140       139       145       147       140       139       145       148
       141       139       145       146       141       139       145       147
       141       139       145       148       142       141       139       145
       143       141       139       145       144       141       139       145
       149       153       156       157       149       153       156       187
       149       195       192       187       149       195       192       193
       149       195       192       194       150       149       151       152
       150       149       153       154       150       149       153       155
       150       149       153       156       150       149       195       192
       150       149       195       196       150       149       195       197
       151       149       153       154       151       149       153       155
       151       149       153       156       151       149       195       192
       151       149       195       196       151       149       195       197
       152       151       149       153       152       151       149       195
       153       149       195       192       153       149       195       196
       153       149       195       197       153       156       157       158
       153       156       157       159       153       156       187       185
       153       156       187       188       153       156       187       192
       154       153       149       195       154       153       156       157
       154       153       156       187       155       153       149       195
       155       153       156       157       155       153       156       187
       156       153       149       195       156       157       159       160
       156       157       159       161       156       157       159       162
       156       187       185       162       156       187       185       182
       156       187       185       186       156       187       188       189
       156       187       188       190       156       187       188       191
       156       187       192       193       156       187       192       194
       156       187       192       195       157       156       187       185
       157       156       187       188       157       156       187       192
       157       159       162       163       157       159       162       164
       157       159       162       185       158       157       156       187
       158       157       159       160       158       157       159       161
       158       157       159       162       159       157       156       187
       159       162       164       165       159       162       164       166
       159       162       164       174       159       162       185       182
       159       162       185       186       159       162       185       187
       160       159       162       163       160       159       162       164
       160       159       162       185       161       159       162       163
       161       159       162       164       161       159       162       185
       162       164       166       167       162       164       166       168
       162       164       166       169       162       164       174       172
       162       164       174       175       162       164       174       179
       162       185       182       179       162       185       182       183
       162       185       182       184       162       185       187       188
       162       185       187       192       163       162       164       165
       163       162       164       166       163       162       164       174
       163       162       185       182       163       162       185       186
       163       162       185       187       164       162       185       182
       164       162       185       186       164       162       185       187
       164       166       169       170       164       166       169       171
       164       166       169       172       164       174       172       169
       164       174       172       173       164       174       172       198
       164       174       175       176       164       174       175       177
       164       174       175       178       164       174       179       180
       164       174       179       181       164       174       179       182
       165       164       162       185       165       164       166       167
       165       164       166       168       165       164       166       169
       165       164       174       172       165       164       174       175
       165       164       174       179       166       164       162       185
       166       164       174       172       166       164       174       175
       166       164       174       179       166       169       172       173
       166       169       172       174       166       169       172       198
       167       166       164       174       167       166       169       170
       167       166       169       171       167       166       169       172
       168       166       164       174       168       166       169       170
       168       166       169       171       168       166       169       172
       169       166       164       174       169       172       174       175
       169       172       174       179       169       172       198       199
       169       172       198       200       169       172       198       204
       170       169       172       173       170       169       172       174
       170       169       172       198       171       169       172       173
       171       169       172       174       171       169       172       198
       172       174       175       176       172       174       175       177
       172       174       175       178       172       174       179       180
       172       174       179       181       172       174       179       182
       172       198       200       201       172       198       200       202
       172       198       200       203       172       198       204       205
       172       198       204       206       172       198       204       207
       173       172       174       175       173       172       174       179
       173       172       198       199       173       172       198       200
       173       172       198       204       174       164       162       185
       174       172       198       199       174       172       198       200
       174       172       198       204       174       179       182       183
       174       179       182       184       174       179       182       185
       175       174       172       198       175       174       179       180
       175       174       179       181       175       174       179       182
       176       175       174       179       177       175       174       179
       178       175       174       179       179       174       172       198
       179       182       185       186       179       182       185       187
       180       179       182       183       180       179       182       184
       180       179       182       185       181       179       182       183
       181       179       182       184       181       179       182       185
       182       185       187       188       182       185       187       192
       183       182       185       186       183       182       185       187
       184       182       185       186       184       182       185       187
       185       187       188       189       185       187       188       190
       185       187       188       191       185       187       192       193
       185       187       192       194       185       187       192       195
       186       185       187       188       186       185       187       192
       187       192       195       196       187       192       195       197
       188       187       192       193       188       187       192       194
       188       187       192       195       189       188       187       192
       190       188       187       192       191       188       187       192
       193       192       195       196       193       192       195       197
       194       192       195       196       194       192       195       197
       198       204       207       208       198       204       207       209
       198       204       207       210       199       198       200       201
       199       198       200       202       199       198       200       203
       199       198       204       205       199       198       204       206
       199       198       204       207       200       198       204       205
       200       198       204       206       200       198       204       207
       201       200       198       204       202       200       198       204
       203       200       198       204       204       207       210       211
       204       207       210       212       204       207       210       213
       205       204       207       208       205       204       207       209
       205       204       207       210       206       204       207       208
       206       204       207       209       206       204       207       210
       207       210       213       214       207       210       213       215
       207       210       213       219       208       207       210       211
       208       207       210       212       208       207       210       213
       209       207       210       211       209       207       210       212
       209       207       210       213       210       213       215       216
       210       213       215       217       210       213       215       218
       210       213       219       220       210       213       219       221
       210       213       219       222       211       210       213       214
       211       210       213       215       211       210       213       219
       212       210       213       214       212       210       213       215
       212       210       213       219       214       213       215       216
       214       213       215       217       214       213       215       218
       214       213       219       220       214       213       219       221
       214       213       219       222       215       213       219       220
       215       213       219       221       215       213       219       222
       216       215       213       219       217       215       213       219
       218       215       213       219       223       227       230       231
       223       227       230       261       223       269       266       261
       223       269       266       267       223       269       266       268
       224       223       225       226       224       223       227       228
       224       223       227       229       224       223       227       230
       224       223       269       266       224       223       269       270
       224       223       269       271       225       223       227       228
       225       223       227       229       225       223       227       230
       225       223       269       266       225       223       269       270
       225       223       269       271       226       225       223       227
       226       225       223       269       227       223       269       266
       227       223       269       270       227       223       269       271
       227       230       231       232       227       230       231       233
       227       230       261       259       227       230       261       262
       227       230       261       266       228       227       223       269
       228       227       230       231       228       227       230       261
       229       227       223       269       229       227       230       231
       229       227       230       261       230       227       223       269
       230       231       233       234       230       231       233       235
       230       231       233       236       230       261       259       236
       230       261       259       256       230       261       259       260
       230       261       262       263       230       261       262       264
       230       261       262       265       230       261       266       267
       230       261       266       268       230       261       266       269
       231       230       261       259       231       230       261       262
       231       230       261       266       231       233       236       237
       231       233       236       238       231       233       236       259
       232       231       230       261       232       231       233       234
       232       231       233       235       232       231       233       236
       233       231       230       261       233       236       238       239
       233       236       238       240       233       236       238       248
       233       236       259       256       233       236       259       260
       233       236       259       261       234       233       236       237
       234       233       236       238       234       233       236       259
       235       233       236       237       235       233       236       238
       235       233       236       259       236       238       240       241
       236       238       240       242       236       238       240       243
       236       238       248       246       236       238       248       249
       236       238       248       253       236       259       256       253
       236       259       256       257       236       259       256       258
       236       259       261       262       236       259       261       266
       237       236       238       239       237       236       238       240
       237       236       238       248       237       236       259       256
       237       236       259       260       237       236       259       261
       238       236       259       256       238       236       259       260
       238       236       259       261       238       240       243       244
       238       240       243       245       238       240       243       246
       238       248       246       243       238       248       246       247
       238       248       246       272       238       248       249       250
       238       248       249       251       238       248       249       252
       238       248       253       254       238       248       253       255
       238       248       253       256       239       238       236       259
       239       238       240       241       239       238       240       242
       239       238       240       243       239       238       248       246
       239       238       248       249       239       238       248       253
       240       238       236       259       240       238       248       246
       240       238       248       249       240       238       248       253
       240       243       246       247       240       243       246       248
       240       243       246       272       241       240       238       248
       241       240       243       244       241       240       243       245
       241       240       243       246       242       240       238       248
       242       240       243       244       242       240       243       245
       242       240       243       246       243       240       238       248
       243       246       248       249       243       246       248       253
       243       246       272       273       243       246       272       274
       243       246       272       278       244       243       246       247
       244       243       246       248       244       243       246       272
       245       243       246       247       245       243       246       248
       245       243       246       272       246       248       249       250
       246       248       249       251       246       248       249       252
       246       248       253       254       246       248       253       255
       246       248       253       256       246       272       274       275
       246       272       274       276       246       272       274       277
       246       272       278       279       246       272       278       280
       246       272       278       281       247       246       248       249
       247       246       248       253       247       246       272       273
       247       246       272       274       247       246       272       278
       248       238       236       259       248       246       272       273
       248       246       272       274       248       246       272       278
       248       253       256       257       248       253       256       258
       248       253       256       259       249       248       246       272
       249       248       253       254       249       248       253       255
       249       248       253       256       250       249       248       253
       251       249       248       253       252       249       248       253
       253       248       246       272       253       256       259       260
       253       256       259       261       254       253       256       257
       254       253       256       258       254       253       256       259
       255       253       256       257       255       253       256       258
       255       253       256       259       256       259       261       262
       256       259       261       266       257       256       259       260
       257       256       259       261       258       256       259       260
       258       256       259       261       259       261       262       263
       259       261       262       264       259       261       262       265
       259       261       266       267       259       261       266       268
       259       261       266       269       260       259       261       262
       260       259       261       266       261       266       269       270
       261       266       269       271       262       261       266       267
       262       261       266       268       262       261       266       269
       263       262       261       266       264       262       261       266
       265       262       261       266       267       266       269       270
       267       266       269       271       268       266       269       270
       268       266       269       271       272       278       281       282
       272       278       281       283       272       278       281       284
       273       272       274       275       273       272       274       276
       273       272       274       277       273       272       278       279
       273       272       278       280       273       272       278       281
       274       272       278       279       274       272       278       280
       274       272       278       281       275       274       272       278
       276       274       272       278       277       274       272       278
       278       281       284       285       278       281       284       286
       278       281       284       287       279       278       281       282
       279       278       281       283       279       278       281       284
       280       278       281       282       280       278       281       283
       280       278       281       284       281       284       287       288
       281       284       287       289       281       284       287       293
       282       281       284       285       282       281       284       286
       282       281       284       287       283       281       284       285
       283       281       284       286       283       281       284       287
       284       287       289       290       284       287       289       291
       284       287       289       292       284       287       293       294
       284       287       293       295       284       287       293       296
       285       284       287       288       285       284       287       289
       285       284       287       293       286       284       287       288
       286       284       287       289       286       284       287       293
       288       287       289       290       288       287       289       291
       288       287       289       292       288       287       293       294
       288       287       293       295       288       287       293       296
       289       287       293       294       289       287       293       295
       289       287       293       296       290       289       287       293
       291       289       287       293       292       289       287       293
       297       301       304       305       297       301       304       335
       297       343       340       335       297       343       340       341
       297       343       340       342       298       297       299       300
       298       297       301       302       298       297       301       303
       298       297       301       304       298       297       343       340
       298       297       343       344       298       297       343       345
       299       297       301       302       299       297       301       303
       299       297       301       304       299       297       343       340
       299       297       343       344       299       297       343       345
       300       299       297       301       300       299       297       343
       301       297       343       340       301       297       343       344
       301       297       343       345       301       304       305       306
       301       304       305       307       301       304       335       333
       301       304       335       336       301       304       335       340
       302       301       297       343       302       301       304       305
       302       301       304       335       303       301       297       343
       303       301       304       305       303       301       304       335
       304       301       297       343       304       305       307       308
       304       305       307       309       304       305       307       310
       304       335       333       310       304       335       333       330
       304       335       333       334       304       335       336       337
       304       335       336       338       304       335       336       339
       304       335       340       341       304       335       340       342
       304       335       340       343       305       304       335       333
       305       304       335       336       305       304       335       340
       305       307       310       311       305       307       310       312
       305       307       310       333       306       305       304       335
       306       305       307       308       306       305       307       309
       306       305       307       310       307       305       304       335
       307       310       312       313       307       310       312       314
       307       310       312       322       307       310       333       330
       307       310       333       334       307       310       333       335
       308       307       310       311       308       307       310       312
       308       307       310       333       309       307       310       311
       309       307       310       312       309       307       310       333
       310       312       314       315       310       312       314       316
       310       312       314       317       310       312       322       320
       310       312       322       323       310       312       322       327
       310       333       330       327       310       333       330       331
       310       333       330       332       310       333       335       336
       310       333       335       340       311       310       312       313
       311       310       312       314       311       310       312       322
       311       310       333       330       311       310       333       334
       311       310       333       335       312       310       333       330
       312       310       333       334       312       310       333       335
       312       314       317       318       312       314       317       319
       312       314       317       320       312       322       320       317
       312       322       320       321       312       322       320       346
       312       322       323       324       312       322       323       325
       312       322       323       326       312       322       327       328
       312       322       327       329       312       322       327       330
       313       312       310       333       313       312       314       315
       313       312       314       316       313       312       314       317
       313       312       322       320       313       312       322       323
       313       312       322       327       314       312       310       333
       314       312       322       320       314       312       322       323
       314       312       322       327       314       317       320       321
       314       317       320       322       314       317       320       346
       315       314       312       322       315       314       317       318
       315       314       317       319       315       314       317       320
       316       314       312       322       316       314       317       318
       316       314       317       319       316       314       317       320
       317       314       312       322       317       320       322       323
       317       320       322       327       317       320       346       347
       317       320       346       348       317       320       346       352
       318       317       320       321       318       317       320       322
       318       317       320       346       319       317       320       321
       319       317       320       322       319       317       320       346
       320       322       323       324       320       322       323       325
       320       322       323       326       320       322       327       328
       320       322       327       329       320       322       327       330
       320       346       348       349       320       346       348       350
       320       346       348       351       320       346       352       353
       320       346       352       354       320       346       352       355
       321       320       322       323       321       320       322       327
       321       320       346       347       321       320       346       348
       321       320       346       352       322       312       310       333
       322       320       346       347       322       320       346       348
       322       320       346       352       322       327       330       331
       322       327       330       332       322       327       330       333
       323       322       320       346       323       322       327       328
       323       322       327       329       323       322       327       330
       324       323       322       327       325       323       322       327
       326       323       322       327       327       322       320       346
       327       330       333       334       327       330       333       335
       328       327       330       331       328       327       330       332
       328       327       330       333       329       327       330       331
       329       327       330       332       329       327       330       333
       330       333       335       336       330       333       335       340
       331       330       333       334       331       330       333       335
       332       330       333       334       332       330       333       335
       333       335       336       337       333       335       336       338
       333       335       336       339       333       335       340       341
       333       335       340       342       333       335       340       343
       334       333       335       336       334       333       335       340
       335       340       343       344       335       340       343       345
       336       335       340       341       336       335       340       342
       336       335       340       343       337       336       335       340
       338       336       335       340       339       336       335       340
       341       340       343       344       341       340       343       345
       342       340       343       344       342       340       343       345
       346       352       355       356       346       352       355       357
       346       352       355       358       347       346       348       349
       347       346       348       350       347       346       348       351
       347       346       352       353       347       346       352       354
       347       346       352       355       348       346       352       353
       348       346       352       354       348       346       352       355
       349       348       346       352       350       348       346       352
       351       348       346       352       352       355       358       359
       352       355       358       360       352       355       358       361
       353       352       355       356       353       352       355       357
       353       352       355       358       354       352       355       356
       354       352       355       357       354       352       355       358
       355       358       361       362       355       358       361       363
       355       358       361       367       356       355       358       359
       356       355       358       360       356       355       358       361
       357       355       358       359       357       355       358       360
       357       355       358       361       358       361       363       364
       358       361       363       365       358       361       363       366
       358       361       367       368       358       361       367       369
       358       361       367       370       359       358       361       362
       359       358       361       363       359       358       361       367
       360       358       361       362       360       358       361       363
       360       358       361       367       362       361       363       364
       362       361       363       365       362       361       363       366
       362       361       367       368       362       361       367       369
       362       361       367       370       363       361       367       368
       363       361       367       369       363       361       367       370
       364       363       361       367       365       363       361       367
       366       363       361       367       371       375       378       379
       371       375       378       409       371       417       414       409
       371       417       414       415       371       417       414       416
       372       371       373       374       372       371       375       376
       372       371       375       377       372       371       375       378
       372       371       417       414       372       371       417       418
       372       371       417       419       373       371       375       376
       373       371       375       377       373       371       375       378
       373       371       417       414       373       371       417       418
       373       371       417       419       374       373       371       375
       374       373       371       417       375       371       417       414
       375       371       417       418       375       371       417       419
       375       378       379       380       375       378       379       381
       375       378       409       407       375       378       409       410
       375       378       409       414       376       375       371       417
       376       375       378       379       376       375       378       409
       377       375       371       417       377       375       378       379
       377       375       378       409       378       375       371       417
       378       379       381       382       378       379       381       383
       378       379       381       384       378       409       407       384
       378       409       407       404       378       409       407       408
       378       409       410       411       378       409       410       412
       378       409       410       413       378       409       414       415
       378       409       414       416       378       409       414       417
       379       378       409       407       379       378       409       410
       379       378       409       414       379       381       384       385
       379       381       384       386       379       381       384       407
       380       379       378       409       380       379       381       382
       380       379       381       383       380       379       381       384
       381       379       378       409       381       384       386       387
       381       384       386       388       381       384       386       396
       381       384       407       404       381       384       407       408
       381       384       407       409       382       381       384       385
       382       381       384       386       382       381       384       407
       383       381       384       385       383       381       384       386
       383       381       384       407       384       386       388       389
       384       386       388       390       384       386       388       391
       384       386       396       394       384       386       396       397
       384       386       396       401       384       407       404       401
       384       407       404       405       384       407       404       406
       384       407       409       410       384       407       409       414
       385       384       386       387       385       384       386       388
       385       384       386       396       385       384       407       404
       385       384       407       408       385       384       407       409
       386       384       407       404       386       384       407       408
       386       384       407       409       386       388       391       392
       386       388       391       393       386       388       391       394
       386       396       394       391       386       396       394       395
       386       396       394       420       386       396       397       398
       386       396       397       399       386       396       397       400
       386       396       401       402       386       396       401       403
       386       396       401       404       387       386       384       407
       387       386       388       389       387       386       388       390
       387       386       388       391       387       386       396       394
       387       386       396       397       387       386       396       401
       388       386       384       407       388       386       396       394
       388       386       396       397       388       386       396       401
       388       391       394       395       388       391       394       396
       388       391       394       420       389       388       386       396
       389       388       391       392       389       388       391       393
       389       388       391       394       390       388       386       396
       390       388       391       392       390       388       391       393
       390       388       391       394       391       388       386       396
       391       394       396       397       391       394       396       401
       391       394       420       421       391       394       420       422
       391       394       420       426       392       391       394       395
       392       391       394       396       392       391       394       420
       393       391       394       395       393       391       394       396
       393       391       394       420       394       396       397       398
       394       396       397       399       394       396       397       400
       394       396       401       402       394       396       401       403
       394       396       401       404       394       420       422       423
       394       420       422       424       394       420       422       425
       394       420       426       427       394       420       426       428
       394       420       426       429       395       394       396       397
       395       394       396       401       395       394       420       421
       395       394       420       422       395       394       420       426
       396       386       384       407       396       394       420       421
       396       394       420       422       396       394       420       426
       396       401       404       405       396       401       404       406
       396       401       404       407       397       396       394       420
       397       396       401       402       397       396       401       403
       397       396       401       404       398       397       396       401
       399       397       396       401       400       397       396       401
       401       396       394       420       401       404       407       408
       401       404       407       409       402       401       404       405
       402       401       404       406       402       401       404       407
       403       401       404       405       403       401       404       406
       403       401       404       407       404       407       409       410
       404       407       409       414       405       404       407       408
       405       404       407       409       406       404       407       408
       406       404       407       409       407       409       410       411
       407       409       410       412       407       409       410       413
       407       409       414       415       407       409       414       416
       407       409       414       417       408       407       409       410
       408       407       409       414       409       414       417       418
       409       414       417       419       410       409       414       415
       410       409       414       416       410       409       414       417
       411       410       409       414       412       410       409       414
       413       410       409       414       415       414       417       418
       415       414       417       419       416       414       417       418
       416       414       417       419       420       426       429       430
       420       426       429       431       420       426       429       432
       421       420       422       423       421       420       422       424
       421       420       422       425       421       420       426       427
       421       420       426       428       421       420       426       429
       422       420       426       427       422       420       426       428
       422       420       426       429       423       422       420       426
       424       422       420       426       425       422       420       426
       426       429       432       433       426       429       432       434
       426       429       432       435       427       426       429       430
       427       426       429       431       427       426       429       432
       428       426       429       430       428       426       429       431
       428       426       429       432       429       432       435       436
       429       432       435       437       429       432       435       441
       430       429       432       433       430       429       432       434
       430       429       432       435       431       429       432       433
       431       429       432       434       431       429       432       435
       432       435       437       438       432       435       437       439
       432       435       437       440       432       435       441       442
       432       435       441       443       432       435       441       444
       433       432       435       436       433       432       435       437
       433       432       435       441       434       432       435       436
       434       432       435       437       434       432       435       441
       436       435       437       438       436       435       437       439
       436       435       437       440       436       435       441       442
       436       435       441       443       436       435       441       444
       437       435       441       442       437       435       441       443
       437       435       441       444       438       437       435       441
       439       437       435       441       440       437       435       441
       445       449       452       453       445       449       452       483
       445       491       488       483       445       491       488       489
       445       491       488       490       446       445       447       448
       446       445       449       450       446       445       449       451
       446       445       449       452       446       445       491       488
       446       445       491       492       446       445       491       493
       447       445       449       450       447       445       449       451
       447       445       449       452       447       445       491       488
       447       445       491       492       447       445       491       493
       448       447       445       449       448       447       445       491
       449       445       491       488       449       445       491       492
       449       445       491       493       449       452       453       454
       449       452       453       455       449       452       483       481
       449       452       483       484       449       452       483       488
       450       449       445       491       450       449       452       453
       450       449       452       483       451       449       445       491
       451       449       452       453       451       449       452       483
       452       449       445       491       452       453       455       456
       452       453       455       457       452       453       455       458
       452       483       481       458       452       483       481       478
       452       483       481       482       452       483       484       485
       452       483       484       486       452       483       484       487
       452       483       488       489       452       483       488       490
       452       483       488       491       453       452       483       481
       453       452       483       484       453       452       483       488
       453       455       458       459       453       455       458       460
       453       455       458       481       454       453       452       483
       454       453       455       456       454       453       455       457
       454       453       455       458       455       453       452       483
       455       458       460       461       455       458       460       462
       455       458       460       470       455       458       481       478
       455       458       481       482       455       458       481       483
       456       455       458       459       456       455       458       460
       456       455       458       481       457       455       458       459
       457       455       458       460       457       455       458       481
       458       460       462       463       458       460       462       464
       458       460       462       465       458       460       470       468
       458       460       470       471       458       460       470       475
       458       481       478       475       458       481       478       479
       458       481       478       480       458       481       483       484
       458       481       483       488       459       458       460       461
       459       458       460       462       459       458       460       470
       459       458       481       478       459       458       481       482
       459       458       481       483       460       458       481       478
       460       458       481       482       460       458       481       483
       460       462       465       466       460       462       465       467
       460       462       465       468       460       470       468       465
       460       470       468       469       460       470       468       494
       460       470       471       472       460       470       471       473
       460       470       471       474       460       470       475       476
       460       470       475       477       460       470       475       478
       461       460       458       481       461       460       462       463
       461       460       462       464       461       460       462       465
       461       460       470       468       461       460       470       471
       461       460       470       475       462       460       458       481
       462       460       470       468       462       460       470       471
       462       460       470       475       462       465       468       469
       462       465       468       470       462       465       468       494
       463       462       460       470       463       462       465       466
       463       462       465       467       463       462       465       468
       464       462       460       470       464       462       465       466
       464       462       465       467       464       462       465       468
       465       462       460       470       465       468       470       471
       465       468       470       475       465       468       494       495
       465       468       494       496       465       468       494       500
       466       465       468       469       466       465       468       470
       466       465       468       494       467       465       468       469
       467       465       468       470       467       465       468       494
       468       470       471       472       468       470       471       473
       468       470       471       474       468       470       475       476
       468       470       475       477       468       470       475       478
       468       494       496       497       468       494       496       498
       468       494       496       499       468       494       500       501
       468       494       500       502       468       494       500       503
       469       468       470       471       469       468       470       475
       469       468       494       495       469       468       494       496
       469       468       494       500       470       460       458       481
       470       468       494       495       470       468       494       496
       470       468       494       500       470       475       478       479
       470       475       478       480       470       475       478       481
       471       470       468       494       471       470       475       476
       471       470       475       477       471       470       475       478
       472       471       470       475       473       471       470       475
       474       471       470       475       475       470       468       494
       475       478       481       482       475       478       481       483
       476       475       478       479       476       475       478       480
       476       475       478       481       477       475       478       479
       477       475       478       480       477       475       478       481
       478       481       483       484       478       481       483       488
       479       478       481       482       479       478       481       483
       480       478       481       482       480       478       481       483
       481       483       484       485       481       483       484       486
       481       483       484       487       481       483       488       489
       481       483       488       490       481       483       488       491
       482       481       483       484       482       481       483       488
       483       488       491       492       483       488       491       493
       484       483       488       489       484       483       488       490
       484       483       488       491       485       484       483       488
       486       484       483       488       487       484       483       488
       489       488       491       492       489       488       491       493
       490       488       491       492       490       488       491       493
       494       500       503       504       494       500       503       505
       494       500       503       506       495       494       496       497
       495       494       496       498       495       494       496       499
       495       494       500       501       495       494       500       502
       495       494       500       503       496       494       500       501
       496       494       500       502       496       494       500       503
       497       496       494       500       498       496       494       500
       499       496       494       500       500       503       506       507
       500       503       506       508       500       503       506       509
       501       500       503       504       501       500       503       505
       501       500       503       506       502       500       503       504
       502       500       503       505       502       500       503       506
       503       506       509       510       503       506       509       511
       503       506       509       515       504       503       506       507
       504       503       506       508       504       503       506       509
       505       503       506       507       505       503       506       508
       505       503       506       509       506       509       511       512
       506       509       511       513       506       509       511       514
       506       509       515       516       506       509       515       517
       506       509       515       518       507       506       509       510
       507       506       509       511       507       506       509       515
       508       506       509       510       508       506       509       511
       508       506       509       515       510       509       511       512
       510       509       511       513       510       509       511       514
       510       509       515       516       510       509       515       517
       510       509       515       518       511       509       515       516
       511       509       515       517       511       509       515       518
       512       511       509       515       513       511       509       515
       514       511       509       515       519       523       526       527
       519       523       526       557       519       565       562       557
       519       565       562       563       519       565       562       564
       520       519       521       522       520       519       523       524
       520       519       523       525       520       519       523       526
       520       519       565       562       520       519       565       566
       520       519       565       567       521       519       523       524
       521       519       523       525       521       519       523       526
       521       519       565       562       521       519       565       566
       521       519       565       567       522       521       519       523
       522       521       519       565       523       519       565       562
       523       519       565       566       523       519       565       567
       523       526       527       528       523       526       527       529
       523       526       557       555       523       526       557       558
       523       526       557       562       524       523       519       565
       524       523       526       527       524       523       526       557
       525       523       519       565       525       523       526       527
       525       523       526       557       526       523       519       565
       526       527       529       530       526       527       529       531
       526       527       529       532       526       557       555       532
       526       557       555       552       526       557       555       556
       526       557       558       559       526       557       558       560
       526       557       558       561       526       557       562       563
       526       557       562       564       526       557       562       565
       527       526       557       555       527       526       557       558
       527       526       557       562       527       529       532       533
       527       529       532       534       527       529       532       555
       528       527       526       557       528       527       529       530
       528       527       529       531       528       527       529       532
       529       527       526       557       529       532       534       535
       529       532       534       536       529       532       534       544
       529       532       555       552       529       532       555       556
       529       532       555       557       530       529       532       533
       530       529       532       534       530       529       532       555
       531       529       532       533       531       529       532       534
       531       529       532       555       532       534       536       537
       532       534       536       538       532       534       536       539
       532       534       544       542       532       534       544       545
       532       534       544       549       532       555       552       549
       532       555       552       553       532       555       552       554
       532       555       557       558       532       555       557       562
       533       532       534       535       533       532       534       536
       533       532       534       544       533       532       555       552
       533       532       555       556       533       532       555       557
       534       532       555       552       534       532       555       556
       534       532       555       557       534       536       539       540
       534       536       539       541       534       536       539       542
       534       544       542       539       534       544       542       543
       534       544       542       568       534       544       545       546
       534       544       545       547       534       544       545       548
       534       544       549       550       534       544       549       551
       534       544       549       552       535       534       532       555
       535       534       536       537       535       534       536       538
       535       534       536       539       535       534       544       542
       535       534       544       545       535       534       544       549
       536       534       532       555       536       534       544       542
       536       534       544       545       536       534       544       549
       536       539       542       543       536       539       542       544
       536       539       542       568       537       536       534       544
       537       536       539       540       537       536       539       541
       537       536       539       542       538       536       534       544
       538       536       539       540       538       536       539       541
       538       536       539       542       539       536       534       544
       539       542       544       545       539       542       544       549
       539       542       568       569       539       542       568       570
       539       542       568       574       540       539       542       543
       540       539       542       544       540       539       542       568
       541       539       542       543       541       539       542       544
       541       539       542       568       542       544       545       546
       542       544       545       547       542       544       545       548
       542       544       549       550       542       544       549       551
       542       544       549       552       542       568       570       571
       542       568       570       572       542       568       570       573
       542       568       574       575       542       568       574       576
       542       568       574       577       543       542       544       545
       543       542       544       549       543       542       568       569
       543       542       568       570       543       542       568       574
       544       534       532       555       544       542       568       569
       544       542       568       570       544       542       568       574
       544       549       552       553       544       549       552       554
       544       549       552       555       545       544       542       568
       545       544       549       550       545       544       549       551
       545       544       549       552       546       545       544       549
       547       545       544       549       548       545       544       549
       549       544       542       568       549       552       555       556
       549       552       555       557       550       549       552       553
       550       549       552       554       550       549       552       555
       551       549       552       553       551       549       552       554
       551       549       552       555       552       555       557       558
       552       555       557       562       553       552       555       556
       553       552       555       557       554       552       555       556
       554       552       555       557       555       557       558       559
       555       557       558       560       555       557       558       561
       555       557       562       563       555       557       562       564
       555       557       562       565       556       555       557       558
       556       555       557       562       557       562       565       566
       557       562       565       567       558       557       562       563
       558       557       562       564       558       557       562       565
       559       558       557       562       560       558       557       562
       561       558       557       562       563       562       565       566
       563       562       565       567       564       562       565       566
       564       562       565       567       568       574       577       578
       568       574       577       579       568       574       577       580
       569       568       570       571       569       568       570       572
       569       568       570       573       569       568       574       575
       569       568       574       576       569       568       574       577
       570       568       574       575       570       568       574       576
       570       568       574       577       571       570       568       574
       572       570       568       574       573       570       568       574
       574       577       580       581       574       577       580       582
       574       577       580       583       575       574       577       578
       575       574       577       579       575       574       577       580
       576       574       577       578       576       574       577       579
       576       574       577       580       577       580       583       584
       577       580       583       585       577       580       583       589
       578       577       580       581       578       577       580       582
       578       577       580       583       579       577       580       581
       579       577       580       582       579       577       580       583
       580       583       585       586       580       583       585       587
       580       583       585       588       580       583       589       590
       580       583       589       591       580       583       589       592
       581       580       583       584       581       580       583       585
       581       580       583       589       582       580       583       584
       582       580       583       585       582       580       583       589
       584       583       585       586       584       583       585       587
       584       583       585       588       584       583       589       590
       584       583       589       591       584       583       589       592
       585       583       589       590       585       583       589       591
       585       583       589       592       586       585       583       589
       587       585       583       589       588       585       583       589
       593       597       600       601       593       597       600       631
       593       639       636       631       593       639       636       637
       593       639       636       638       594       593       595       596
       594       593       597       598       594       593       597       599
       594       593       597       600       594       593       639       636
       594       593       639       640       594       593       639       641
       595       593       597       598       595       593       597       599
       595       593       597       600       595       593       639       636
       595       593       639       640       595       593       639       641
       596       595       593       597       596       595       593       639
       597       593       639       636       597       593       639       640
       597       593       639       641       597       600       601       602
       597       600       601       603       597       600       631       629
       597       600       631       632       597       600       631       636
       598       597       593       639       598       597       600       601
       598       597       600       631       599       597       593       639
       599       597       600       601       599       597       600       631
       600       597       593       639       600       601       603       604
       600       601       603       605       600       601       603       606
       600       631       629       606       600       631       629       626
       600       631       629       630       600       631       632       633
       600       631       632       634       600       631       632       635
       600       631       636       637       600       631       636       638
       600       631       636       639       601       600       631       629
       601       600       631       632       601       600       631       636
       601       603       606       607       601       603       606       608
       601       603       606       629       602       601       600       631
       602       601       603       604       602       601       603       605
       602       601       603       606       603       601       600       631
       603       606       608       609       603       606       608       610
       603       606       608       618       603       606       629       626
       603       606       629       630       603       606       629       631
       604       603       606       607       604       603       606       608
       604       603       606       629       605       603       606       607
       605       603       606       608       605       603       606       629
       606       608       610       611       606       608       610       612
       606       608       610       613       606       608       618       616
       606       608       618       619       606       608       618       623
       606       629       626       623       606       629       626       627
       606       629       626       628       606       629       631       632
       606       629       631       636       607       606       608       609
       607       606       608       610       607       606       608       618
       607       606       629       626       607       606       629       630
       607       606       629       631       608       606       629       626
       608       606       629       630       608       606       629       631
       608       610       613       614       608       610       613       615
       608       610       613       616       608       618       616       613
       608       618       616       617       608       618       616       642
       608       618       619       620       608       618       619       621
       608       618       619       622       608       618       623       624
       608       618       623       625       608       618       623       626
       609       608       606       629       609       608       610       611
       609       608       610       612       609       608       610       613
       609       608       618       616       609       608       618       619
       609       608       618       623       610       608       606       629
       610       608       618       616       610       608       618       619
       610       608       618       623       610       613       616       617
       610       613       616       618       610       613       616       642
       611       610       608       618       611       610       613       614
       611       610       613       615       611       610       613       616
       612       610       608       618       612       610       613       614
       612       610       613       615       612       610       613       616
       613       610       608       618       613       616       618       619
       613       616       618       623       613       616       642       643
       613       616       642       644       613       616       642       648
       614       613       616       617       614       613       616       618
       614       613       616       642       615       613       616       617
       615       613       616       618       615       613       616       642
       616       618       619       620       616       618       619       621
       616       618       619       622       616       618       623       624
       616       618       623       625       616       618       623       626
       616       642       644       645       616       642       644       646
       616       642       644       647       616       642       648       649
       616       642       648       650       616       642       648       651
       617       616       618       619       617       616       618       623
       617       616       642       643       617       616       642       644
       617       616       642       648       618       608       606       629
       618       616       642       643       618       616       642       644
       618       616       642       648       618       623       626       627
       618       623       626       628       618       623       626       629
       619       618       616       642       619       618       623       624
       619       618       623       625       619       618       623       626
       620       619       618       623       621       619       618       623
       622       619       618       623       623       618       616       642
       623       626       629       630       623       626       629       631
       624       623       626       627       624       623       626       628
       624       623       626       629       625       623       626       627
       625       623       626       628       625       623       626       629
       626       629       631       632       626       629       631       636
       627       626       629       630       627       626       629       631
       628       626       629       630       628       626       629       631
       629       631       632       633       629       631       632       634
       629       631       632       635       629       631       636       637
       629       631       636       638       629       631       636       639
       630       629       631       632       630       629       631       636
       631       636       639       640       631       636       639       641
       632       631       636       637       632       631       636       638
       632       631       636       639       633       632       631       636
       634       632       631       636       635       632       631       636
       637       636       639       640       637       636       639       641
       638       636       639       640       638       636       639       641
       642       648       651       652       642       648       651       653
       642       648       651       654       643       642       644       645
       643       642       644       646       643       642       644       647
       643       642       648       649       643       642       648       650
       643       642       648       651       644       642       648       649
       644       642       648       650       644       642       648       651
       645       644       642       648       646       644       642       648
       647       644       642       648       648       651       654       655
       648       651       654       656       648       651       654       657
       649       648       651       652       649       648       651       653
       649       648       651       654       650       648       651       652
       650       648       651       653       650       648       651       654
       651       654       657       658       651       654       657       659
       651       654       657       663       652       651       654       655
       652       651       654       656       652       651       654       657
       653       651       654       655       653       651       654       656
       653       651       654       657       654       657       659       660
       654       657       659       661       654       657       659       662
       654       657       663       664       654       657       663       665
       654       657       663       666       655       654       657       658
       655       654       657       659       655       654       657       663
       656       654       657       658       656       654       657       659
       656       654       657       663       658       657       659       660
       658       657       659       661       658       657       659       662
       658       657       663       664       658       657       663       665
       658       657       663       666       659       657       663       664
       659       657       663       665       659       657       663       666
       660       659       657       663       661       659       657       663
       662       659       657       663       667       671       674       675
       667       671       674       705       667       713       710       705
       667       713       710       711       667       713       710       712
       668       667       669       670       668       667       671       672
       668       667       671       673       668       667       671       674
       668       667       713       710       668       667       713       714
       668       667       713       715       669       667       671       672
       669       667       671       673       669       667       671       674
       669       667       713       710       669       667       713       714
       669       667       713       715       670       669       667       671
       670       669       667       713       671       667       713       710
       671       667       713       714       671       667       713       715
       671       674       675       676       671       674       675       677
       671       674       705       703       671       674       705       706
       671       674       705       710       672       671       667       713
       672       671       674       675       672       671       674       705
       673       671       667       713       673       671       674       675
       673       671       674       705       674       671       667       713
       674       675       677       678       674       675       677       679
       674       675       677       680       674       705       703       680
       674       705       703       700       674       705       703       704
       674       705       706       707       674       705       706       708
       674       705       706       709       674       705       710       711
       674       705       710       712       674       705       710       713
       675       674       705       703       675       674       705       706
       675       674       705       710       675       677       680       681
       675       677       680       682       675       677       680       703
       676       675       674       705       676       675       677       678
       676       675       677       679       676       675       677       680
       677       675       674       705       677       680       682       683
       677       680       682       684       677       680       682       692
       677       680       703       700       677       680       703       704
       677       680       703       705       678       677       680       681
       678       677       680       682       678       677       680       703
       679       677       680       681       679       677       680       682
       679       677       680       703       680       682       684       685
       680       682       684       686       680       682       684       687
       680       682       692       690       680       682       692       693
       680       682       692       697       680       703       700       697
       680       703       700       701       680       703       700       702
       680       703       705       706       680       703       705       710
       681       680       682       683       681       680       682       684
       681       680       682       692       681       680       703       700
       681       680       703       704       681       680       703       705
       682       680       703       700       682       680       703       704
       682       680       703       705       682       684       687       688
       682       684       687       689       682       684       687       690
       682       692       690       687       682       692       690       691
       682       692       690       716       682       692       693       694
       682       692       693       695       682       692       693       696
       682       692       697       698       682       692       697       699
       682       692       697       700       683       682       680       703
       683       682       684       685       683       682       684       686
       683       682       684       687       683       682       692       690
       683       682       692       693       683       682       692       697
       684       682       680       703       684       682       692       690
       684       682       692       693       684       682       692       697
       684       687       690       691       684       687       690       692
       684       687       690       716       685       684       682       692
       685       684       687       688       685       684       687       689
       685       684       687       690       686       684       682       692
       686       684       687       688       686       684       687       689
       686       684       687       690       687       684       682       692
       687       690       692       693       687       690       692       697
       687       690       716       717       687       690       716       718
       687       690       716       722       688       687       690       691
       688       687       690       692       688       687       690       716
       689       687       690       691       689       687       690       692
       689       687       690       716       690       692       693       694
       690       692       693       695       690       692       693       696
       690       692       697       698       690       692       697       699
       690       692       697       700       690       716       718       719
       690       716       718       720       690       716       718       721
       690       716       722       723       690       716       722       724
       690       716       722       725       691       690       692       693
       691       690       692       697       691       690       716       717
       691       690       716       718       691       690       716       722
       692       682       680       703       692       690       716       717
       692       690       716       718       692       690       716       722
       692       697       700       701       692       697       700       702
       692       697       700       703       693       692       690       716
       693       692       697       698       693       692       697       699
       693       692       697       700       694       693       692       697
       695       693       692       697       696       693       692       697
       697       692       690       716       697       700       703       704
       697       700       703       705       698       697       700       701
       698       697       700       702       698       697       700       703
       699       697       700       701       699       697       700       702
       699       697       700       703       700       703       705       706
       700       703       705       710       701       700       703       704
       701       700       703       705       702       700       703       704
       702       700       703       705       703       705       706       707
       703       705       706       708       703       705       706       709
       703       705       710       711       703       705       710       712
       703       705       710       713       704       703       705       706
       704       703       705       710       705       710       713       714
       705       710       713       715       706       705       710       711
       706       705       710       712       706       705       710       713
       707       706       705       710       708       706       705       710
       709       706       705       710       711       710       713       714
       711       710       713       715       712       710       713       714
       712       710       713       715       716       722       725       726
       716       722       725       727       716       722       725       728
       717       716       718       719       717       716       718       720
       717       716       718       721       717       716       722       723
       717       716       722       724       717       716       722       725
       718       716       722       723       718       716       722       724
       718       716       722       725       719       718       716       722
       720       718       716       722       721       718       716       722
       722       725       728       729       722       725       728       730
       722       725       728       731       723       722       725       726
       723       722       725       727       723       722       725       728
       724       722       725       726       724       722       725       727
       724       722       725       728       725       728       731       732
       725       728       731       733       725       728       731       737
       726       725       728       729       726       725       728       730
       726       725       728       731       727       725       728       729
       727       725       728       730       727       725       728       731
       728       731       733       734       728       731       733       735
       728       731       733       736       728       731       737       738
       728       731       737       739       728       731       737       740
       729       728       731       732       729       728       731       733
       729       728       731       737       730       728       731       732
       730       728       731       733       730       728       731       737
       732       731       733       734       732       731       733       735
       732       731       733       736       732       731       737       738
       732       731       737       739       732       731       737       740
       733       731       737       738       733       731       737       739
       733       731       737       740       734       733       731       737
       735       733       731       737       736       733       731       737
       741       745       748       749       741       745       748       779
       741       787       784       779       741       787       784       785
       741       787       784       786       742       741       743       744
       742       741       745       746       742       741       745       747
       742       741       745       748       742       741       787       784
       742       741       787       788       742       741       787       789
       743       741       745       746       743       741       745       747
       743       741       745       748       743       741       787       784
       743       741       787       788       743       741       787       789
       744       743       741       745       744       743       741       787
       745       741       787       784       745       741       787       788
       745       741       787       789       745       748       749       750
       745       748       749       751       745       748       779       777
       745       748       779       780       745       748       779       784
       746       745       741       787       746       745       748       749
       746       745       748       779       747       745       741       787
       747       745       748       749       747       745       748       779
       748       745       741       787       748       749       751       752
       748       749       751       753       748       749       751       754
       748       779       777       754       748       779       777       774
       748       779       777       778       748       779       780       781
       748       779       780       782       748       779       780       783
       748       779       784       785       748       779       784       786
       748       779       784       787       749       748       779       777
       749       748       779       780       749       748       779       784
       749       751       754       755       749       751       754       756
       749       751       754       777       750       749       748       779
       750       749       751       752       750       749       751       753
       750       749       751       754       751       749       748       779
       751       754       756       757       751       754       756       758
       751       754       756       766       751       754       777       774
       751       754       777       778       751       754       777       779
       752       751       754       755       752       751       754       756
       752       751       754       777       753       751       754       755
       753       751       754       756       753       751       754       777
       754       756       758       759       754       756       758       760
       754       756       758       761       754       756       766       764
       754       756       766       767       754       756       766       771
       754       777       774       771       754       777       774       775
       754       777       774       776       754       777       779       780
       754       777       779       784       755       754       756       757
       755       754       756       758       755       754       756       766
       755       754       777       774       755       754       777       778
       755       754       777       779       756       754       777       774
       756       754       777       778       756       754       777       779
       756       758       761       762       756       758       761       763
       756       758       761       764       756       766       764       761
       756       766       764       765       756       766       764       790
       756       766       767       768       756       766       767       769
       756       766       767       770       756       766       771       772
       756       766       771       773       756       766       771       774
       757       756       754       777       757       756       758       759
       757       756       758       760       757       756       758       761
       757       756       766       764       757       756       766       767
       757       756       766       771       758       756       754       777
       758       756       766       764       758       756       766       767
       758       756       766       771       758       761       764       765
       758       761       764       766       758       761       764       790
       759       758       756       766       759       758       761       762
       759       758       761       763       759       758       761       764
       760       758       756       766       760       758       761       762
       760       758       761       763       760       758       761       764
       761       758       756       766       761       764       766       767
       761       764       766       771       761       764       790       791
       761       764       790       792       761       764       790       796
       762       761       764       765       762       761       764       766
       762       761       764       790       763       761       764       765
       763       761       764       766       763       761       764       790
       764       766       767       768       764       766       767       769
       764       766       767       770       764       766       771       772
       764       766       771       773       764       766       771       774
       764       790       792       793       764       790       792       794
       764       790       792       795       764       790       796       797
       764       790       796       798       764       790       796       799
       765       764       766       767       765       764       766       771
       765       764       790       791       765       764       790       792
       765       764       790       796       766       756       754       777
       766       764       790       791       766       764       790       792
       766       764       790       796       766       771       774       775
       766       771       774       776       766       771       774       777
       767       766       764       790       767       766       771       772
       767       766       771       773       767       766       771       774
       768       767       766       771       769       767       766       771
       770       767       766       771       771       766       764       790
       771       774       777       778       771       774       777       779
       772       771       774       775       772       771       774       776
       772       771       774       777       773       771       774       775
       773       771       774       776       773       771       774       777
       774       777       779       780       774       777       779       784
       775       774       777       778       775       774       777       779
       776       774       777       778       776       774       777       779
       777       779       780       781       777       779       780       782
       777       779       780       783       777       779       784       785
       777       779       784       786       777       779       784       787
       778       777       779       780       778       777       779       784
       779       784       787       788       779       784       787       789
       780       779       784       785       780       779       784       786
       780       779       784       787       781       780       779       784
       782       780       779       784       783       780       779       784
       785       784       787       788       785       784       787       789
       786       784       787       788       786       784       787       789
       790       796       799       800       790       796       799       801
       790       796       799       802       791       790       792       793
       791       790       792       794       791       790       792       795
       791       790       796       797       791       790       796       798
       791       790       796       799       792       790       796       797
       792       790       796       798       792       790       796       799
       793       792       790       796       794       792       790       796
       795       792       790       796       796       799       802       803
       796       799       802       804       796       799       802       805
       797       796       799       800       797       796       799       801
       797       796       799       802       798       796       799       800
       798       796       799       801       798       796       799       802
       799       802       805       806       799       802       805       807
       799       802       805       811       800       799       802       803
       800       799       802       804       800       799       802       805
       801       799       802       803       801       799       802       804
       801       799       802       805       802       805       807       808
       802       805       807       809       802       805       807       810
       802       805       811       812       802       805       811       813
       802       805       811       814       803       802       805       806
       803       802       805       807       803       802       805       811
       804       802       805       806       804       802       805       807
       804       802       805       811       806       805       807       808
       806       805       807       809       806       805       807       810
       806       805       811       812       806       805       811       813
       806       805       811       814       807       805       811       812
       807       805       811       813       807       805       811       814
       808       807       805       811       809       807       805       811
       810       807       805       811       815       819       822       823
       815       819       822       853       815       861       858       853
       815       861       858       859       815       861       858       860
       816       815       817       818       816       815       819       820
       816       815       819       821       816       815       819       822
       816       815       861       858       816       815       861       862
       816       815       861       863       817       815       819       820
       817       815       819       821       817       815       819       822
       817       815       861       858       817       815       861       862
       817       815       861       863       818       817       815       819
       818       817       815       861       819       815       861       858
       819       815       861       862       819       815       861       863
       819       822       823       824       819       822       823       825
       819       822       853       851       819       822       853       854
       819       822       853       858       820       819       815       861
       820       819       822       823       820       819       822       853
       821       819       815       861       821       819       822       823
       821       819       822       853       822       819       815       861
       822       823       825       826       822       823       825       827
       822       823       825       828       822       853       851       828
       822       853       851       848       822       853       851       852
       822       853       854       855       822       853       854       856
       822       853       854       857       822       853       858       859
       822       853       858       860       822       853       858       861
       823       822       853       851       823       822       853       854
       823       822       853       858       823       825       828       829
       823       825       828       830       823       825       828       851
       824       823       822       853       824       823       825       826
       824       823       825       827       824       823       825       828
       825       823       822       853       825       828       830       831
       825       828       830       832       825       828       830       840
       825       828       851       848       825       828       851       852
       825       828       851       853       826       825       828       829
       826       825       828       830       826       825       828       851
       827       825       828       829       827       825       828       830
       827       825       828       851       828       830       832       833
       828       830       832       834       828       830       832       835
       828       830       840       838       828       830       840       841
       828       830       840       845       828       851       848       845
       828       851       848       849       828       851       848       850
       828       851       853       854       828       851       853       858
       829       828       830       831       829       828       830       832
       829       828       830       840       829       828       851       848
       829       828       851       852       829       828       851       853
       830       828       851       848       830       828       851       852
       830       828       851       853       830       832       835       836
       830       832       835       837       830       832       835       838
       830       840       838       835       830       840       838       839
       830       840       838       864       830       840       841       842
       830       840       841       843       830       840       841       844
       830       840       845       846       830       840       845       847
       830       840       845       848       831       830       828       851
       831       830       832       833       831       830       832       834
       831       830       832       835       831       830       840       838
       831       830       840       841       831       830       840       845
       832       830       828       851       832       830       840       838
       832       830       840       841       832       830       840       845
       832       835       838       839       832       835       838       840
       832       835       838       864       833       832       830       840
       833       832       835       836       833       832       835       837
       833       832       835       838       834       832       830       840
       834       832       835       836       834       832       835       837
       834       832       835       838       835       832       830       840
       835       838       840       841       835       838       840       845
       835       838       864       865       835       838       864       866
       835       838       864       870       836       835       838       839
       836       835       838       840       836       835       838       864
       837       835       838       839       837       835       838       840
       837       835       838       864       838       840       841       842
       838       840       841       843       838       840       841       844
       838       840       845       846       838       840       845       847
       838       840       845       848       838       864       866       867
       838       864       866       868       838       864       866       869
       838       864       870       871       838       864       870       872
       838       864       870       873       839       838       840       841
       839       838       840       845       839       838       864       865
       839       838       864       866       839       838       864       870
       840       830       828       851       840       838       864       865
       840       838       864       866       840       838       864       870
       840       845       848       849       840       845       848       850
       840       845       848       851       841       840       838       864
       841       840       845       846       841       840       845       847
       841       840       845       848       842       841       840       845
       843       841       840       845       844       841       840       845
       845       840       838       864       845       848       851       852
       845       848       851       853       846       845       848       849
       846       845       848       850       846       845       848       851
       847       845       848       849       847       845       848       850
       847       845       848       851       848       851       853       854
       848       851       853       858       849       848       851       852
       849       848       851       853       850       848       851       852
       850       848       851       853       851       853       854       855
       851       853       854       856       851       853       854       857
       851       853       858       859       851       853       858       860
       851       853       858       861       852       851       853       854
       852       851       853       858       853       858       861       862
       853       858       861       863       854       853       858       859
       854       853       858       860       854       853       858       861
       855       854       853       858       856       854       853       858
       857       854       853       858       859       858       861       862
       859       858       861       863       860       858       861       862
       860       858       861       863       864       870       873       874
       864       870       873       875       864       870       873       876
       865       864       866       867       865       864       866       868
       865       864       866       869       865       864       870       871
       865       864       870       872       865       864       870       873
       866       864       870       871       866       864       870       872
       866       864       870       873       867       866       864       870
       868       866       864       870       869       866       864       870
       870       873       876       877       870       873       876       878
       870       873       876       879       871       870       873       874
       871       870       873       875       871       870       873       876
       872       870       873       874       872       870       873       875
       872       870       873       876       873       876       879       880
       873       876       879       881       873       876       879       885
       874       873       876       877       874       873       876       878
       874       873       876       879       875       873       876       877
       875       873       876       878       875       873       876       879
       876       879       881       882       876       879       881       883
       876       879       881       884       876       879       885       886
       876       879       885       887       876       879       885       888
       877       876       879       880       877       876       879       881
       877       876       879       885       878       876       879       880
       878       876       879       881       878       876       879       885
       880       879       881       882       880       879       881       883
       880       879       881       884       880       879       885       886
       880       879       885       887       880       879       885       888
       881       879       885       886       881       879       885       887
       881       879       885       888       882       881       879       885
       883       881       879       885       884       881       879       885
       889       893       896       897       889       893       896       927
       889       935       932       927       889       935       932       933
       889       935       932       934       890       889       891       892
       890       889       893       894       890       889       893       895
       890       889       893       896       890       889       935       932
       890       889       935       936       890       889       935       937
       891       889       893       894       891       889       893       895
       891       889       893       896       891       889       935       932
       891       889       935       936       891       889       935       937
       892       891       889       893       892       891       889       935
       893       889       935       932       893       889       935       936
       893       889       935       937       893       896       897       898
       893       896       897       899       893       896       927       925
       893       896       927       928       893       896       927       932
       894       893       889       935       894       893       896       897
       894       893       896       927       895       893       889       935
       895       893       896       897       895       893       896       927
       896       893       889       935       896       897       899       900
       896       897       899       901       896       897       899       902
       896       927       925       902       896       927       925       922
       896       927       925       926       896       927       928       929
       896       927       928       930       896       927       928       931
       896       927       932       933       896       927       932       934
       896       927       932       935       897       896       927       925
       897       896       927       928       897       896       927       932
       897       899       902       903       897       899       902       904
       897       899       902       925       898       897       896       927
       898       897       899       900       898       897       899       901
       898       897       899       902       899       897       896       927
       899       902       904       905       899       902       904       906
       899       902       904       914       899       902       925       922
       899       902       925       926       899       902       925       927
       900       899       902       903       900       899       902       904
       900       899       902       925       901       899       902       903
       901       899       902       904       901       899       902       925
       902       904       906       907       902       904       906       908
       902       904       906       909       902       904       914       912
       902       904       914       915       902       904       914       919
       902       925       922       919       902       925       922       923
       902       925       922       924       902       925       927       928
       902       925       927       932       903       902       904       905
       903       902       904       906       903       902       904       914
       903       902       925       922       903       902       925       926
       903       902       925       927       904       902       925       922
       904       902       925       926       904       902       925       927
       904       906       909       910       904       906       909       911
       904       906       909       912       904       914       912       909
       904       914       912       913       904       914       912       938
       904       914       915       916       904       914       915       917
       904       914       915       918       904       914       919       920
       904       914       919       921       904       914       919       922
       905       904       902       925       905       904       906       907
       905       904       906       908       905       904       906       909
       905       904       914       912       905       904       914       915
       905       904       914       919       906       904       902       925
       906       904       914       912       906       904       914       915
       906       904       914       919       906       909       912       913
       906       909       912       914       906       909       912       938
       907       906       904       914       907       906       909       910
       907       906       909       911       907       906       909       912
       908       906       904       914       908       906       909       910
       908       906       909       911       908       906       909       912
       909       906       904       914       909       912       914       915
       909       912       914       919       909       912       938       939
       909       912       938       940       909       912       938       944
       910       909       912       913       910       909       912       914
       910       909       912       938       911       909       912       913
       911       909       912       914       911       909       912       938
       912       914       915       916       912       914       915       917
       912       914       915       918       912       914       919       920
       912       914       919       921       912       914       919       922
       912       938       940       941       912       938       940       942
       912       938       940       943       912       938       944       945
       912       938       944       946       912       938       944       947
       913       912       914       915       913       912       914       919
       913       912       938       939       913       912       938       940
       913       912       938       944       914       904       902       925
       914       912       938       939       914       912       938       940
       914       912       938       944       914       919       922       923
       914       919       922       924       914       919       922       925
       915       914       912       938       915       914       919       920
       915       914       919       921       915       914       919       922
       916       915       914       919       917       915       914       919
       918       915       914       919       919       914       912       938
       919       922       925       926       919       922       925       927
       920       919       922       923       920       919       922       924
       920       919       922       925       921       919       922       923
       921       919       922       924       921       919       922       925
       922       925       927       928       922       925       927       932
       923       922       925       926       923       922       925       927
       924       922       925       926       924       922       925       927
       925       927       928       929       925       927       928       930
       925       927       928       931       925       927       932       933
       925       927       932       934       925       927       932       935
       926       925       927       928       926       925       927       932
       927       932       935       936       927       932       935       937
       928       927       932       933       928       927       932       934
       928       927       932       935       929       928       927       932
       930       928       927       932       931       928       927       932
       933       932       935       936       933       932       935       937
       934       932       935       936       934       932       935       937
       938       944       947       948       938       944       947       949
       938       944       947       950       939       938       940       941
       939       938       940       942       939       938       940       943
       939       938       944       945       939       938       944       946
       939       938       944       947       940       938       944       945
       940       938       944       946       940       938       944       947
       941       940       938       944       942       940       938       944
       943       940       938       944       944       947       950       951
       944       947       950       952       944       947       950       953
       945       944       947       948       945       944       947       949
       945       944       947       950       946       944       947       948
       946       944       947       949       946       944       947       950
       947       950       953       954       947       950       953       955
       947       950       953       959       948       947       950       951
       948       947       950       952       948       947       950       953
       949       947       950       951       949       947       950       952
       949       947       950       953       950       953       955       956
       950       953       955       957       950       953       955       958
       950       953       959       960       950       953       959       961
       950       953       959       962       951       950       953       954
       951       950       953       955       951       950       953       959
       952       950       953       954       952       950       953       955
       952       950       953       959       954       953       955       956
       954       953       955       957       954       953       955       958
       954       953       959       960       954       953       959       961
       954       953       959       962       955       953       959       960
       955       953       959       961       955       953       959       962
       956       955       953       959       957       955       953       959
       958       955       953       959       963       967       970       971
       963       967       970      1001       963      1009      1006      1001
       963      1009      1006      1007       963      1009      1006      1008
       964       963       965       966       964       963       967       968
       964       963       967       969       964       963       967       970
       964       963      1009      1006       964       963      1009      1010
       964       963      1009      1011       965       963       967       968
       965       963       967       969       965       963       967       970
       965       963      1009      1006       965       963      1009      1010
       965       963      1009      1011       966       965       963       967
       966       965       963      1009       967       963      1009      1006
       967       963      1009      1010       967       963      1009      1011
       967       970       971       972       967       970       971       973
       967       970      1001       999       967       970      1001      1002
       967       970      1001      1006       968       967       963      1009
       968       967       970       971       968       967       970      1001
       969       967       963      1009       969       967       970       971
       969       967       970      1001       970       967       963      1009
       970       971       973       974       970       971       973       975
       970       971       973       976       970      1001       999       976
       970      1001       999       996       970      1001       999      1000
       970      1001      1002      1003       970      1001      1002      1004
       970      1001      1002      1005       970      1001      1006      1007
       970      1001      1006      1008       970      1001      1006      1009
       971       970      1001       999       971       970      1001      1002
       971       970      1001      1006       971       973       976       977
       971       973       976       978       971       973       976       999
       972       971       970      1001       972       971       973       974
       972       971       973       975       972       971       973       976
       973       971       970      1001       973       976       978       979
       973       976       978       980       973       976       978       988
       973       976       999       996       973       976       999      1000
       973       976       999      1001       974       973       976       977
       974       973       976       978       974       973       976       999
       975       973       976       977       975       973       976       978
       975       973       976       999       976       978       980       981
       976       978       980       982       976       978       980       983
       976       978       988       986       976       978       988       989
       976       978       988       993       976       999       996       993
       976       999       996       997       976       999       996       998
       976       999      1001      1002       976       999      1001      1006
       977       976       978       979       977       976       978       980
       977       976       978       988       977       976       999       996
       977       976       999      1000       977       976       999      1001
       978       976       999       996       978       976       999      1000
       978       976       999      1001       978       980       983       984
       978       980       983       985       978       980       983       986
       978       988       986       983       978       988       986       987
       978       988       986      1012       978       988       989       990
       978       988       989       991       978       988       989       992
       978       988       993       994       978       988       993       995
       978       988       993       996       979       978       976       999
       979       978       980       981       979       978       980       982
       979       978       980       983       979       978       988       986
       979       978       988       989       979       978       988       993
       980       978       976       999       980       978       988       986
       980       978       988       989       980       978       988       993
       980       983       986       987       980       983       986       988
       980       983       986      1012       981       980       978       988
       981       980       983       984       981       980       983       985
       981       980       983       986       982       980       978       988
       982       980       983       984       982       980       983       985
       982       980       983       986       983       980       978       988
       983       986       988       989       983       986       988       993
       983       986      1012      1013       983       986      1012      1014
       983       986      1012      1018       984       983       986       987
       984       983       986       988       984       983       986      1012
       985       983       986       987       985       983       986       988
       985       983       986      1012       986       988       989       990
       986       988       989       991       986       988       989       992
       986       988       993       994       986       988       993       995
       986       988       993       996       986      1012      1014      1015
       986      1012      1014      1016       986      1012      1014      1017
       986      1012      1018      1019       986      1012      1018      1020
       986      1012      1018      1021       987       986       988       989
       987       986       988       993       987       986      1012      1013
       987       986      1012      1014       987       986      1012      1018
       988       978       976       999       988       986      1012      1013
       988       986      1012      1014       988       986      1012      1018
       988       993       996       997       988       993       996       998
       988       993       996       999       989       988       986      1012
       989       988       993       994       989       988       993       995
       989       988       993       996       990       989       988       993
       991       989       988       993       992       989       988       993
       993       988       986      1012       993       996       999      1000
       993       996       999      1001       994       993       996       997
       994       993       996       998       994       993       996       999
       995       993       996       997       995       993       996       998
       995       993       996       999       996       999      1001      1002
       996       999      1001      1006       997       996       999      1000
       997       996       999      1001       998       996       999      1000
       998       996       999      1001       999      1001      1002      1003
       999      1001      1002      1004       999      1001      1002      1005
       999      1001      1006      1007       999      1001      1006      1008
       999      1001      1006      1009      1000       999      1001      1002
      1000       999      1001      1006      1001      1006      1009      1010
      1001      1006      1009      1011      1002      1001      1006      1007
      1002      1001      1006      1008      1002      1001      1006      1009
      1003      1002      1001      1006      1004      1002      1001      1006
      1005      1002      1001      1006      1007      1006      1009      1010
      1007      1006      1009      1011      1008      1006      1009      1010
      1008      1006      1009      1011      1012      1018      1021      1022
      1012      1018      1021      1023      1012      1018      1021      1024
      1013      1012      1014      1015      1013      1012      1014      1016
      1013      1012      1014      1017      1013      1012      1018      1019
      1013      1012      1018      1020      1013      1012      1018      1021
      1014      1012      1018      1019      1014      1012      1018      1020
      1014      1012      1018      1021      1015      1014      1012      1018
      1016      1014      1012      1018      1017      1014      1012      1018
      1018      1021      1024      1025      1018      1021      1024      1026
      1018      1021      1024      1027      1019      1018      1021      1022
      1019      1018      1021      1023      1019      1018      1021      1024
      1020      1018      1021      1022      1020      1018      1021      1023
      1020      1018      1021      1024      1021      1024      1027      1028
      1021      1024      1027      1029      1021      1024      1027      1033
      1022      1021      1024      1025      1022      1021      1024      1026
      1022      1021      1024      1027      1023      1021      1024      1025
      1023      1021      1024      1026      1023      1021      1024      1027
      1024      1027      1029      1030      1024      1027      1029      1031
      1024      1027      1029      1032      1024      1027      1033      1034
      1024      1027      1033      1035      1024      1027      1033      1036
      1025      1024      1027      1028      1025      1024      1027      1029
      1025      1024      1027      1033      1026      1024      1027      1028
      1026      1024      1027      1029      1026      1024      1027      1033
      1028      1027      1029      1030      1028      1027      1029      1031
      1028      1027      1029      1032      1028      1027      1033      1034
      1028      1027      1033      1035      1028      1027      1033      1036
      1029      1027      1033      1034      1029      1027      1033      1035
      1029      1027      1033      1036      1030      1029      1027      1033
      1031      1029      1027      1033      1032      1029      1027      1033
      1037      1041      1044      1045      1037      1041      1044      1075
      1037      1083      1080      1075      1037      1083      1080      1081
      1037      1083      1080      1082      1038      1037      1039      1040
      1038      1037      1041      1042      1038      1037      1041      1043
      1038      1037      1041      1044      1038      1037      1083      1080
      1038      1037      1083      1084      1038      1037      1083      1085
      1039      1037      1041      1042      1039      1037      1041      1043
      1039      1037      1041      1044      1039      1037      1083      1080
      1039      1037      1083      1084      1039      1037      1083      1085
      1040      1039      1037      1041      1040      1039      1037      1083
      1041      1037      1083      1080      1041      1037      1083      1084
      1041      1037      1083      1085      1041      1044      1045      1046
      1041      1044      1045      1047      1041      1044      1075      1073
      1041      1044      1075      1076      1041      1044      1075      1080
      1042      1041      1037      1083      1042      1041      1044      1045
      1042      1041      1044      1075      1043      1041      1037      1083
      1043      1041      1044      1045      1043      1041      1044      1075
      1044      1041      1037      1083      1044      1045      1047      1048
      1044      1045      1047      1049      1044      1045      1047      1050
      1044      1075      1073      1050      1044      1075      1073      1070
      1044      1075      1073      1074      1044      1075      1076      1077
      1044      1075      1076      1078      1044      1075      1076      1079
      1044      1075      1080      1081      1044      1075      1080      1082
      1044      1075      1080      1083      1045      1044      1075      1073
      1045      1044      1075      1076      1045      1044      1075      1080
      1045      1047      1050      1051      1045      1047      1050      1052
      1045      1047      1050      1073      1046      1045      1044      1075
      1046      1045      1047      1048      1046      1045      1047      1049
      1046      1045      1047      1050      1047      1045      1044      1075
      1047      1050      1052      1053      1047      1050      1052      1054
      1047      1050      1052      1062      1047      1050      1073      1070
      1047      1050      1073      1074      1047      1050      1073      1075
      1048      1047      1050      1051      1048      1047      1050      1052
      1048      1047      1050      1073      1049      1047      1050      1051
      1049      1047      1050      1052      1049      1047      1050      1073
      1050      1052      1054      1055      1050      1052      1054      1056
      1050      1052      1054      1057      1050      1052      1062      1060
      1050      1052      1062      1063      1050      1052      1062      1067
      1050      1073      1070      1067      1050      1073      1070      1071
      1050      1073      1070      1072      1050      1073      1075      1076
      1050      1073      1075      1080      1051      1050      1052      1053
      1051      1050      1052      1054      1051      1050      1052      1062
      1051      1050      1073      1070      1051      1050      1073      1074
      1051      1050      1073      1075      1052      1050      1073      1070
      1052      1050      1073      1074      1052      1050      1073      1075
      1052      1054      1057      1058      1052      1054      1057      1059
      1052      1054      1057      1060      1052      1062      1060      1057
      1052      1062      1060      1061      1052      1062      1060      1086
      1052      1062      1063      1064      1052      1062      1063      1065
      1052      1062      1063      1066      1052      1062      1067      1068
      1052      1062      1067      1069      1052      1062      1067      1070
      1053      1052      1050      1073      1053      1052      1054      1055
      1053      1052      1054      1056      1053      1052      1054      1057
      1053      1052      1062      1060      1053      1052      1062      1063
      1053      1052      1062      1067      1054      1052      1050      1073
      1054      1052      1062      1060      1054      1052      1062      1063
      1054      1052      1062      1067      1054      1057      1060      1061
      1054      1057      1060      1062      1054      1057      1060      1086
      1055      1054      1052      1062      1055      1054      1057      1058
      1055      1054      1057      1059      1055      1054      1057      1060
      1056      1054      1052      1062      1056      1054      1057      1058
      1056      1054      1057      1059      1056      1054      1057      1060
      1057      1054      1052      1062      1057      1060      1062      1063
      1057      1060      1062      1067      1057      1060      1086      1087
      1057      1060      1086      1088      1057      1060      1086      1092
      1058      1057      1060      1061      1058      1057      1060      1062
      1058      1057      1060      1086      1059      1057      1060      1061
      1059      1057      1060      1062      1059      1057      1060      1086
      1060      1062      1063      1064      1060      1062      1063      1065
      1060      1062      1063      1066      1060      1062      1067      1068
      1060      1062      1067      1069      1060      1062      1067      1070
      1060      1086      1088      1089      1060      1086      1088      1090
      1060      1086      1088      1091      1060      1086      1092      1093
      1060      1086      1092      1094      1060      1086      1092      1095
      1061      1060      1062      1063      1061      1060      1062      1067
      1061      1060      1086      1087      1061      1060      1086      1088
      1061      1060      1086      1092      1062      1052      1050      1073
      1062      1060      1086      1087      1062      1060      1086      1088
      1062      1060      1086      1092      1062      1067      1070      1071
      1062      1067      1070      1072      1062      1067      1070      1073
      1063      1062      1060      1086      1063      1062      1067      1068
      1063      1062      1067      1069      1063      1062      1067      1070
      1064      1063      1062      1067      1065      1063      1062      1067
      1066      1063      1062      1067      1067      1062      1060      1086
      1067      1070      1073      1074      1067      1070      1073      1075
      1068      1067      1070      1071      1068      1067      1070      1072
      1068      1067      1070      1073      1069      1067      1070      1071
      1069      1067      1070      1072      1069      1067      1070      1073
      1070      1073      1075      1076      1070      1073      1075      1080
      1071      1070      1073      1074      1071      1070      1073      1075
      1072      1070      1073      1074      1072      1070      1073      1075
      1073      1075      1076      1077      1073      1075      1076      1078
      1073      1075      1076      1079      1073      1075      1080      1081
      1073      1075      1080      1082      1073      1075      1080      1083
      1074      1073      1075      1076      1074      1073      1075      1080
      1075      1080      1083      1084      1075      1080      1083      1085
      1076      1075      1080      1081      1076      1075      1080      1082
      1076      1075      1080      1083      1077      1076      1075      1080
      1078      1076      1075      1080      1079      1076      1075      1080
      1081      1080      1083      1084      1081      1080      1083      1085
      1082      1080      1083      1084      1082      1080      1083      1085
      1086      1092      1095      1096      1086      1092      1095      1097
      1086      1092      1095      1098      1087      1086      1088      1089
      1087      1086      1088      1090      1087      1086      1088      1091
      1087      1086      1092      1093      1087      1086      1092      1094
      1087      1086      1092      1095      1088      1086      1092      1093
      1088      1086      1092      1094      1088      1086      1092      1095
      1089      1088      1086      1092      1090      1088      1086      1092
      1091      1088      1086      1092      1092      1095      1098      1099
      1092      1095      1098      1100      1092      1095      1098      1101
      1093      1092      1095      1096      1093      1092      1095      1097
      1093      1092      1095      1098      1094      1092      1095      1096
      1094      1092      1095      1097      1094      1092      1095      1098
      1095      1098      1101      1102      1095      1098      1101      1103
      1095      1098      1101      1107      1096      1095      1098      1099
      1096      1095      1098      1100      1096      1095      1098      1101
      1097      1095      1098      1099      1097      1095      1098      1100
      1097      1095      1098      1101      1098      1101      1103      1104
      1098      1101      1103      1105      1098      1101      1103      1106
      1098      1101      1107      1108      1098      1101      1107      1109
      1098      1101      1107      1110      1099      1098      1101      1102
      1099      1098      1101      1103      1099      1098      1101      1107
      1100      1098      1101      1102      1100      1098      1101      1103
      1100      1098      1101      1107      1102      1101      1103      1104
      1102      1101      1103      1105      1102      1101      1103      1106
      1102      1101      1107      1108      1102      1101      1107      1109
      1102      1101      1107      1110      1103      1101      1107      1108
      1103      1101      1107      1109      1103      1101      1107      1110
      1104      1103      1101      1107      1105      1103      1101      1107
      1106      1103      1101      1107      1111      1115      1118      1119
      1111      1115      1118      1149      1111      1157      1154      1149
      1111      1157      1154      1155      1111      1157      1154      1156
      1112      1111      1113      1114      1112      1111      1115      1116
      1112      1111      1115      1117      1112      1111      1115      1118
      1112      1111      1157      1154      1112      1111      1157      1158
      1112      1111      1157      1159      1113      1111      1115      1116
      1113      1111      1115      1117      1113      1111      1115      1118
      1113      1111      1157      1154      1113      1111      1157      1158
      1113      1111      1157      1159      1114      1113      1111      1115
      1114      1113      1111      1157      1115      1111      1157      1154
      1115      1111      1157      1158      1115      1111      1157      1159
      1115      1118      1119      1120      1115      1118      1119      1121
      1115      1118      1149      1147      1115      1118      1149      1150
      1115      1118      1149      1154      1116      1115      1111      1157
      1116      1115      1118      1119      1116      1115      1118      1149
      1117      1115      1111      1157      1117      1115      1118      1119
      1117      1115      1118      1149      1118      1115      1111      1157
      1118      1119      1121      1122      1118      1119      1121      1123
      1118      1119      1121      1124      1118      1149      1147      1124
      1118      1149      1147      1144      1118      1149      1147      1148
      1118      1149      1150      1151      1118      1149      1150      1152
      1118      1149      1150      1153      1118      1149      1154      1155
      1118      1149      1154      1156      1118      1149      1154      1157
      1119      1118      1149      1147      1119      1118      1149      1150
      1119      1118      1149      1154      1119      1121      1124      1125
      1119      1121      1124      1126      1119      1121      1124      1147
      1120      1119      1118      1149      1120      1119      1121      1122
      1120      1119      1121      1123      1120      1119      1121      1124
      1121      1119      1118      1149      1121      1124      1126      1127
      1121      1124      1126      1128      1121      1124      1126      1136
      1121      1124      1147      1144      1121      1124      1147      1148
      1121      1124      1147      1149      1122      1121      1124      1125
      1122      1121      1124      1126      1122      1121      1124      1147
      1123      1121      1124      1125      1123      1121      1124      1126
      1123      1121      1124      1147      1124      1126      1128      1129
      1124      1126      1128      1130      1124      1126      1128      1131
      1124      1126      1136      1134      1124      1126      1136      1137
      1124      1126      1136      1141      1124      1147      1144      1141
      1124      1147      1144      1145      1124      1147      1144      1146
      1124      1147      1149      1150      1124      1147      1149      1154
      1125      1124      1126      1127      1125      1124      1126      1128
      1125      1124      1126      1136      1125      1124      1147      1144
      1125      1124      1147      1148      1125      1124      1147      1149
      1126      1124      1147      1144      1126      1124      1147      1148
      1126      1124      1147      1149      1126      1128      1131      1132
      1126      1128      1131      1133      1126      1128      1131      1134
      1126      1136      1134      1131      1126      1136      1134      1135
      1126      1136      1134      1160      1126      1136      1137      1138
      1126      1136      1137      1139      1126      1136      1137      1140
      1126      1136      1141      1142      1126      1136      1141      1143
      1126      1136      1141      1144      1127      1126      1124      1147
      1127      1126      1128      1129      1127      1126      1128      1130
      1127      1126      1128      1131      1127      1126      1136      1134
      1127      1126      1136      1137      1127      1126      1136      1141
      1128      1126      1124      1147      1128      1126      1136      1134
      1128      1126      1136      1137      1128      1126      1136      1141
      1128      1131      1134      1135      1128      1131      1134      1136
      1128      1131      1134      1160      1129      1128      1126      1136
      1129      1128      1131      1132      1129      1128      1131      1133
      1129      1128      1131      1134      1130      1128      1126      1136
      1130      1128      1131      1132      1130      1128      1131      1133
      1130      1128      1131      1134      1131      1128      1126      1136
      1131      1134      1136      1137      1131      1134      1136      1141
      1131      1134      1160      1161      1131      1134      1160      1162
      1131      1134      1160      1166      1132      1131      1134      1135
      1132      1131      1134      1136      1132      1131      1134      1160
      1133      1131      1134      1135      1133      1131      1134      1136
      1133      1131      1134      1160      1134      1136      1137      1138
      1134      1136      1137      1139      1134      1136      1137      1140
      1134      1136      1141      1142      1134      1136      1141      1143
      1134      1136      1141      1144      1134      1160      1162      1163
      1134      1160      1162      1164      1134      1160      1162      1165
      1134      1160      1166      1167      1134      1160      1166      1168
      1134      1160      1166      1169      1135      1134      1136      1137
      1135      1134      1136      1141      1135      1134      1160      1161
      1135      1134      1160      1162      1135      1134      1160      1166
      1136      1126      1124      1147      1136      1134      1160      1161
      1136      1134      1160      1162      1136      1134      1160      1166
      1136      1141      1144      1145      1136      1141      1144      1146
      1136      1141      1144      1147      1137      1136      1134      1160
      1137      1136      1141      1142      1137      1136      1141      1143
      1137      1136      1141      1144      1138      1137      1136      1141
      1139      1137      1136      1141      1140      1137      1136      1141
      1141      1136      1134      1160      1141      1144      1147      1148
      1141      1144      1147      1149      1142      1141      1144      1145
      1142      1141      1144      1146      1142      1141      1144      1147
      1143      1141      1144      1145      1143      1141      1144      1146
      1143      1141      1144      1147      1144      1147      1149      1150
      1144      1147      1149      1154      1145      1144      1147      1148
      1145      1144      1147      1149      1146      1144      1147      1148
      1146      1144      1147      1149      1147      1149      1150      1151
      1147      1149      1150      1152      1147      1149      1150      1153
      1147      1149      1154      1155      1147      1149      1154      1156
      1147      1149      1154      1157      1148      1147      1149      1150
      1148      1147      1149      1154      1149      1154      1157      1158
      1149      1154      1157      1159      1150      1149      1154      1155
      1150      1149      1154      1156      1150      1149      1154      1157
      1151      1150      1149      1154      1152      1150      1149      1154
      1153      1150      1149      1154      1155      1154      1157      1158
      1155      1154      1157      1159      1156      1154      1157      1158
      1156      1154      1157      1159      1160      1166      1169      1170
      1160      1166      1169      1171      1160      1166      1169      1172
      1161      1160      1162      1163      1161      1160      1162      1164
      1161      1160      1162      1165      1161      1160      1166      1167
      1161      1160      1166      1168      1161      1160      1166      1169
      1162      1160      1166      1167      1162      1160      1166      1168
      1162      1160      1166      1169      1163      1162      1160      1166
      1164      1162      1160      1166      1165      1162      1160      1166
      1166      1169      1172      1173      1166      1169      1172      1174
      1166      1169      1172      1175      1167      1166      1169      1170
      1167      1166      1169      1171      1167      1166      1169      1172
      1168      1166      1169      1170      1168      1166      1169      1171
      1168      1166      1169      1172      1169      1172      1175      1176
      1169      1172      1175      1177      1169      1172      1175      1181
      1170      1169      1172      1173      1170      1169      1172      1174
      1170      1169      1172      1175      1171      1169      1172      1173
      1171      1169      1172      1174      1171      1169      1172      1175
      1172      1175      1177      1178      1172      1175      1177      1179
      1172      1175      1177      1180      1172      1175      1181      1182
      1172      1175      1181      1183      1172      1175      1181      1184
      1173      1172      1175      1176      1173      1172      1175      1177
      1173      1172      1175      1181      1174      1172      1175      1176
      1174      1172      1175      1177      1174      1172      1175      1181
      1176      1175      1177      1178      1176      1175      1177      1179
      1176      1175      1177      1180      1176      1175      1181      1182
      1176      1175      1181      1183      1176      1175      1181      1184
      1177      1175      1181      1182      1177      1175      1181      1183
      1177      1175      1181      1184      1178      1177      1175      1181
      1179      1177      1175      1181      1180      1177      1175      1181
      1185      1189      1192      1193      1185      1189      1192      1223
      1185      1231      1228      1223      1185      1231      1228      1229
      1185      1231      1228      1230      1186      1185      1187      1188
      1186      1185      1189      1190      1186      1185      1189      1191
      1186      1185      1189      1192      1186      1185      1231      1228
      1186      1185      1231      1232      1186      1185      1231      1233
      1187      1185      1189      1190      1187      1185      1189      1191
      1187      1185      1189      1192      1187      1185      1231      1228
      1187      1185      1231      1232      1187      1185      1231      1233
      1188      1187      1185      1189      1188      1187      1185      1231
      1189      1185      1231      1228      1189      1185      1231      1232
      1189      1185      1231      1233      1189      1192      1193      1194
      1189      1192      1193      1195      1189      1192      1223      1221
      1189      1192      1223      1224      1189      1192      1223      1228
      1190      1189      1185      1231      1190      1189      1192      1193
      1190      1189      1192      1223      1191      1189      1185      1231
      1191      1189      1192      1193      1191      1189      1192      1223
      1192      1189      1185      1231      1192      1193      1195      1196
      1192      1193      1195      1197      1192      1193      1195      1198
      1192      1223      1221      1198      1192      1223      1221      1218
      1192      1223      1221      1222      1192      1223      1224      1225
      1192      1223      1224      1226      1192      1223      1224      1227
      1192      1223      1228      1229      1192      1223      1228      1230
      1192      1223      1228      1231      1193      1192      1223      1221
      1193      1192      1223      1224      1193      1192      1223      1228
      1193      1195      1198      1199      1193      1195      1198      1200
      1193      1195      1198      1221      1194      1193      1192      1223
      1194      1193      1195      1196      1194      1193      1195      1197
      1194      1193      1195      1198      1195      1193      1192      1223
      1195      1198      1200      1201      1195      1198      1200      1202
      1195      1198      1200      1210      1195      1198      1221      1218
      1195      1198      1221      1222      1195      1198      1221      1223
      1196      1195      1198      1199      1196      1195      1198      1200
      1196      1195      1198      1221      1197      1195      1198      1199
      1197      1195      1198      1200      1197      1195      1198      1221
      1198      1200      1202      1203      1198      1200      1202      1204
      1198      1200      1202      1205      1198      1200      1210      1208
      1198      1200      1210      1211      1198      1200      1210      1215
      1198      1221      1218      1215      1198      1221      1218      1219
      1198      1221      1218      1220      1198      1221      1223      1224
      1198      1221      1223      1228      1199      1198      1200      1201
      1199      1198      1200      1202      1199      1198      1200      1210
      1199      1198      1221      1218      1199      1198      1221      1222
      1199      1198      1221      1223      1200      1198      1221      1218
      1200      1198      1221      1222      1200      1198      1221      1223
      1200      1202      1205      1206      1200      1202      1205      1207
      1200      1202      1205      1208      1200      1210      1208      1205
      1200      1210      1208      1209      1200      1210      1208      1234
      1200      1210      1211      1212      1200      1210      1211      1213
      1200      1210      1211      1214      1200      1210      1215      1216
      1200      1210      1215      1217      1200      1210      1215      1218
      1201      1200      1198      1221      1201      1200      1202      1203
      1201      1200      1202      1204      1201      1200      1202      1205
      1201      1200      1210      1208      1201      1200      1210      1211
      1201      1200      1210      1215      1202      1200      1198      1221
      1202      1200      1210      1208      1202      1200      1210      1211
      1202      1200      1210      1215      1202      1205      1208      1209
      1202      1205      1208      1210      1202      1205      1208      1234
      1203      1202      1200      1210      1203      1202      1205      1206
      1203      1202      1205      1207      1203      1202      1205      1208
      1204      1202      1200      1210      1204      1202      1205      1206
      1204      1202      1205      1207      1204      1202      1205      1208
      1205      1202      1200      1210      1205      1208      1210      1211
      1205      1208      1210      1215      1205      1208      1234      1235
      1205      1208      1234      1236      1205      1208      1234      1240
      1206      1205      1208      1209      1206      1205      1208      1210
      1206      1205      1208      1234      1207      1205      1208      1209
      1207      1205      1208      1210      1207      1205      1208      1234
      1208      1210      1211      1212      1208      1210      1211      1213
      1208      1210      1211      1214      1208      1210      1215      1216
      1208      1210      1215      1217      1208      1210      1215      1218
      1208      1234      1236      1237      1208      1234      1236      1238
      1208      1234      1236      1239      1208      1234      1240      1241
      1208      1234      1240      1242      1208      1234      1240      1243
      1209      1208      1210      1211      1209      1208      1210      1215
      1209      1208      1234      1235      1209      1208      1234      1236
      1209      1208      1234      1240      1210      1200      1198      1221
      1210      1208      1234      1235      1210      1208      1234      1236
      1210      1208      1234      1240      1210      1215      1218      1219
      1210      1215      1218      1220      1210      1215      1218      1221
      1211      1210      1208      1234      1211      1210      1215      1216
      1211      1210      1215      1217      1211      1210      1215      1218
      1212      1211      1210      1215      1213      1211      1210      1215
      1214      1211      1210      1215      1215      1210      1208      1234
      1215      1218      1221      1222      1215      1218      1221      1223
      1216      1215      1218      1219      1216      1215      1218      1220
      1216      1215      1218      1221      1217      1215      1218      1219
      1217      1215      1218      1220      1217      1215      1218      1221
      1218      1221      1223      1224      1218      1221      1223      1228
      1219      1218      1221      1222      1219      1218      1221      1223
      1220      1218      1221      1222      1220      1218      1221      1223
      1221      1223      1224      1225      1221      1223      1224      1226
      1221      1223      1224      1227      1221      1223      1228      1229
      1221      1223      1228      1230      1221      1223      1228      1231
      1222      1221      1223      1224      1222      1221      1223      1228
      1223      1228      1231      1232      1223      1228      1231      1233
      1224      1223      1228      1229      1224      1223      1228      1230
      1224      1223      1228      1231      1225      1224      1223      1228
      1226      1224      1223      1228      1227      1224      1223      1228
      1229      1228      1231      1232      1229      1228      1231      1233
      1230      1228      1231      1232      1230      1228      1231      1233
      1234      1240      1243      1244      1234      1240      1243      1245
      1234      1240      1243      1246      1235      1234      1236      1237
      1235      1234      1236      1238      1235      1234      1236      1239
      1235      1234      1240      1241      1235      1234      1240      1242
      1235      1234      1240      1243      1236      1234      1240      1241
      1236      1234      1240      1242      1236      1234      1240      1243
      1237      1236      1234      1240      1238      1236      1234      1240
      1239      1236      1234      1240      1240      1243      1246      1247
      1240      1243      1246      1248      1240      1243      1246      1249
      1241      1240      1243      1244      1241      1240      1243      1245
      1241      1240      1243      1246      1242      1240      1243      1244
      1242      1240      1243      1245      1242      1240      1243      1246
      1243      1246      1249      1250      1243      1246      1249      1251
      1243      1246      1249      1255      1244      1243      1246      1247
      1244      1243      1246      1248      1244      1243      1246      1249
      1245      1243      1246      1247      1245      1243      1246      1248
      1245      1243      1246      1249      1246      1249      1251      1252
      1246      1249      1251      1253      1246      1249      1251      1254
      1246      1249      1255      1256      1246      1249      1255      1257
      1246      1249      1255      1258      1247      1246      1249      1250
      1247      1246      1249      1251      1247      1246      1249      1255
      1248      1246      1249      1250      1248      1246      1249      1251
      1248      1246      1249      1255      1250      1249      1251      1252
      1250      1249      1251      1253      1250      1249      1251      1254
      1250      1249      1255      1256      1250      1249      1255      1257
      1250      1249      1255      1258      1251      1249      1255      1256
      1251      1249      1255      1257      1251      1249      1255      1258
      1252      1251      1249      1255      1253      1251      1249      1255
      1254      1251      1249      1255      1259      1263      1266      1267
      1259      1263      1266      1297      1259      1305      1302      1297
      1259      1305      1302      1303      1259      1305      1302      1304
      1260      1259      1261      1262      1260      1259      1263      1264
      1260      1259      1263      1265      1260      1259      1263      1266
      1260      1259      1305      1302      1260      1259      1305      1306
      1260      1259      1305      1307      1261      1259      1263      1264
      1261      1259      1263      1265      1261      1259      1263      1266
      1261      1259      1305      1302      1261      1259      1305      1306
      1261      1259      1305      1307      1262      1261      1259      1263
      1262      1261      1259      1305      1263      1259      1305      1302
      1263      1259      1305      1306      1263      1259      1305      1307
      1263      1266      1267      1268      1263      1266      1267      1269
      1263      1266      1297      1295      1263      1266      1297      1298
      1263      1266      1297      1302      1264      1263      1259      1305
      1264      1263      1266      1267      1264      1263      1266      1297
      1265      1263      1259      1305      1265      1263      1266      1267
      1265      1263      1266      1297      1266      1263      1259      1305
      1266      1267      1269      1270      1266      1267      1269      1271
      1266      1267      1269      1272      1266      1297      1295      1272
      1266      1297      1295      1292      1266      1297      1295      1296
      1266      1297      1298      1299      1266      1297      1298      1300
      1266      1297      1298      1301      1266      1297      1302      1303
      1266      1297      1302      1304      1266      1297      1302      1305
      1267      1266      1297      1295      1267      1266      1297      1298
      1267      1266      1297      1302      1267      1269      1272      1273
      1267      1269      1272      1274      1267      1269      1272      1295
      1268      1267      1266      1297      1268      1267      1269      1270
      1268      1267      1269      1271      1268      1267      1269      1272
      1269      1267      1266      1297      1269      1272      1274      1275
      1269      1272      1274      1276      1269      1272      1274      1284
      1269      1272      1295      1292      1269      1272      1295      1296
      1269      1272      1295      1297      1270      1269      1272      1273
      1270      1269      1272      1274      1270      1269      1272      1295
      1271      1269      1272      1273      1271      1269      1272      1274
      1271      1269      1272      1295      1272      1274      1276      1277
      1272      1274      1276      1278      1272      1274      1276      1279
      1272      1274      1284      1282      1272      1274      1284      1285
      1272      1274      1284      1289      1272      1295      1292      1289
      1272      1295      1292      1293      1272      1295      1292      1294
      1272      1295      1297      1298      1272      1295      1297      1302
      1273      1272      1274      1275      1273      1272      1274      1276
      1273      1272      1274      1284      1273      1272      1295      1292
      1273      1272      1295      1296      1273      1272      1295      1297
      1274      1272      1295      1292      1274      1272      1295      1296
      1274      1272      1295      1297      1274      1276      1279      1280
      1274      1276      1279      1281      1274      1276      1279      1282
      1274      1284      1282      1279      1274      1284      1282      1283
      1274      1284      1282      1308      1274      1284      1285      1286
      1274      1284      1285      1287      1274      1284      1285      1288
      1274      1284      1289      1290      1274      1284      1289      1291
      1274      1284      1289      1292      1275      1274      1272      1295
      1275      1274      1276      1277      1275      1274      1276      1278
      1275      1274      1276      1279      1275      1274      1284      1282
      1275      1274      1284      1285      1275      1274      1284      1289
      1276      1274      1272      1295      1276      1274      1284      1282
      1276      1274      1284      1285      1276      1274      1284      1289
      1276      1279      1282      1283      1276      1279      1282      1284
      1276      1279      1282      1308      1277      1276      1274      1284
      1277      1276      1279      1280      1277      1276      1279      1281
      1277      1276      1279      1282      1278      1276      1274      1284
      1278      1276      1279      1280      1278      1276      1279      1281
      1278      1276      1279      1282      1279      1276      1274      1284
      1279      1282      1284      1285      1279      1282      1284      1289
      1279      1282      1308      1309      1279      1282      1308      1310
      1279      1282      1308      1314      1280      1279      1282      1283
      1280      1279      1282      1284      1280      1279      1282      1308
      1281      1279      1282      1283      1281      1279      1282      1284
      1281      1279      1282      1308      1282      1284      1285      1286
      1282      1284      1285      1287      1282      1284      1285      1288
      1282      1284      1289      1290      1282      1284      1289      1291
      1282      1284      1289      1292      1282      1308      1310      1311
      1282      1308      1310      1312      1282      1308      1310      1313
      1282      1308      1314      1315      1282      1308      1314      1316
      1282      1308      1314      1317      1283      1282      1284      1285
      1283      1282      1284      1289      1283      1282      1308      1309
      1283      1282      1308      1310      1283      1282      1308      1314
      1284      1274      1272      1295      1284      1282      1308      1309
      1284      1282      1308      1310      1284      1282      1308      1314
      1284      1289      1292      1293      1284      1289      1292      1294
      1284      1289      1292      1295      1285      1284      1282      1308
      1285      1284      1289      1290      1285      1284      1289      1291
      1285      1284      1289      1292      1286      1285      1284      1289
      1287      1285      1284      1289      1288      1285      1284      1289
      1289      1284      1282      1308      1289      1292      1295      1296
      1289      1292      1295      1297      1290      1289      1292      1293
      1290      1289      1292      1294      1290      1289      1292      1295
      1291      1289      1292      1293      1291      1289      1292      1294
      1291      1289      1292      1295      1292      1295      1297      1298
      1292      1295      1297      1302      1293      1292      1295      1296
      1293      1292      1295      1297      1294      1292      1295      1296
      1294      1292      1295      1297      1295      1297      1298      1299
      1295      1297      1298      1300      1295      1297      1298      1301
      1295      1297      1302      1303      1295      1297      1302      1304
      1295      1297      1302      1305      1296      1295      1297      1298
      1296      1295      1297      1302      1297      1302      1305      1306
      1297      1302      1305      1307      1298      1297      1302      1303
      1298      1297      1302      1304      1298      1297      1302      1305
      1299      1298      1297      1302      1300      1298      1297      1302
      1301      1298      1297      1302      1303      1302      1305      1306
      1303      1302      1305      1307      1304      1302      1305      1306
      1304      1302      1305      1307      1308      1314      1317      1318
      1308      1314      1317      1319      1308      1314      1317      1320
      1309      1308      1310      1311      1309      1308      1310      1312
      1309      1308      1310      1313      1309      1308      1314      1315
      1309      1308      1314      1316      1309      1308      1314      1317
      1310      1308      1314      1315      1310      1308      1314      1316
      1310      1308      1314      1317      1311      1310      1308      1314
      1312      1310      1308      1314      1313      1310      1308      1314
      1314      1317      1320      1321      1314      1317      1320      1322
      1314      1317      1320      1323      1315      1314      1317      1318
      1315      1314      1317      1319      1315      1314      1317      1320
      1316      1314      1317      1318      1316      1314      1317      1319
      1316      1314      1317      1320      1317      1320      1323      1324
      1317      1320      1323      1325      1317      1320      1323      1329
      1318      1317      1320      1321      1318      1317      1320      1322
      1318      1317      1320      1323      1319      1317      1320      1321
      1319      1317      1320      1322      1319      1317      1320      1323
      1320      1323      1325      1326      1320      1323      1325      1327
      1320      1323      1325      1328      1320      1323      1329      1330
      1320      1323      1329      1331      1320      1323      1329      1332
      1321      1320      1323      1324      1321      1320      1323      1325
      1321      1320      1323      1329      1322      1320      1323      1324
      1322      1320      1323      1325      1322      1320      1323      1329
      1324      1323      1325      1326      1324      1323      1325      1327
      1324      1323      1325      1328      1324      1323      1329      1330
      1324      1323      1329      1331      1324      1323      1329      1332
      1325      1323      1329      1330      1325      1323      1329      1331
      1325      1323      1329      1332      1326      1325      1323      1329
      1327      1325      1323      1329      1328      1325      1323      1329
      1333      1337      1340      1341      1333      1337      1340      1371
      1333      1379      1376      1371      1333      1379      1376      1377
      1333      1379      1376      1378      1334      1333      1335      1336
      1334      1333      1337      1338      1334      1333      1337      1339
      1334      1333      1337      1340      1334      1333      1379      1376
      1334      1333      1379      1380      1334      1333      1379      1381
      1335      1333      1337      1338      1335      1333      1337      1339
      1335      1333      1337      1340      1335      1333      1379      1376
      1335      1333      1379      1380      1335      1333      1379      1381
      1336      1335      1333      1337      1336      1335      1333      1379
      1337      1333      1379      1376      1337      1333      1379      1380
      1337      1333      1379      1381      1337      1340      1341      1342
      1337      1340      1341      1343      1337      1340      1371      1369
      1337      1340      1371      1372      1337      1340      1371      1376
      1338      1337      1333      1379      1338      1337      1340      1341
      1338      1337      1340      1371      1339      1337      1333      1379
      1339      1337      1340      1341      1339      1337      1340      1371
      1340      1337      1333      1379      1340      1341      1343      1344
      1340      1341      1343      1345      1340      1341      1343      1346
      1340      1371      1369      1346      1340      1371      1369      1366
      1340      1371      1369      1370      1340      1371      1372      1373
      1340      1371      1372      1374      1340      1371      1372      1375
      1340      1371      1376      1377      1340      1371      1376      1378
      1340      1371      1376      1379      1341      1340      1371      1369
      1341      1340      1371      1372      1341      1340      1371      1376
      1341      1343      1346      1347      1341      1343      1346      1348
      1341      1343      1346      1369      1342      1341      1340      1371
      1342      1341      1343      1344      1342      1341      1343      1345
      1342      1341      1343      1346      1343      1341      1340      1371
      1343      1346      1348      1349      1343      1346      1348      1350
      1343      1346      1348      1358      1343      1346      1369      1366
      1343      1346      1369      1370      1343      1346      1369      1371
      1344      1343      1346      1347      1344      1343      1346      1348
      1344      1343      1346      1369      1345      1343      1346      1347
      1345      1343      1346      1348      1345      1343      1346      1369
      1346      1348      1350      1351      1346      1348      1350      1352
      1346      1348      1350      1353      1346      1348      1358      1356
      1346      1348      1358      1359      1346      1348      1358      1363
      1346      1369      1366      1363      1346      1369      1366      1367
      1346      1369      1366      1368      1346      1369      1371      1372
      1346      1369      1371      1376      1347      1346      1348      1349
      1347      1346      1348      1350      1347      1346      1348      1358
      1347      1346      1369      1366      1347      1346      1369      1370
      1347      1346      1369      1371      1348      1346      1369      1366
      1348      1346      1369      1370      1348      1346      1369      1371
      1348      1350      1353      1354      1348      1350      1353      1355
      1348      1350      1353      1356      1348      1358      1356      1353
      1348      1358      1356      1357      1348      1358      1356      1382
      1348      1358      1359      1360      1348      1358      1359      1361
      1348      1358      1359      1362      1348      1358      1363      1364
      1348      1358      1363      1365      1348      1358      1363      1366
      1349      1348      1346      1369      1349      1348      1350      1351
      1349      1348      1350      1352      1349      1348      1350      1353
      1349      1348      1358      1356      1349      1348      1358      1359
      1349      1348      1358      1363      1350      1348      1346      1369
      1350      1348      1358      1356      1350      1348      1358      1359
      1350      1348      1358      1363      1350      1353      1356      1357
      1350      1353      1356      1358      1350      1353      1356      1382
      1351      1350      1348      1358      1351      1350      1353      1354
      1351      1350      1353      1355      1351      1350      1353      1356
      1352      1350      1348      1358      1352      1350      1353      1354
      1352      1350      1353      1355      1352      1350      1353      1356
      1353      1350      1348      1358      1353      1356      1358      1359
      1353      1356      1358      1363      1353      1356      1382      1383
      1353      1356      1382      1384      1353      1356      1382      1388
      1354      1353      1356      1357      1354      1353      1356      1358
      1354      1353      1356      1382      1355      1353      1356      1357
      1355      1353      1356      1358      1355      1353      1356      1382
      1356      1358      1359      1360      1356      1358      1359      1361
      1356      1358      1359      1362      1356      1358      1363      1364
      1356      1358      1363      1365      1356      1358      1363      1366
      1356      1382      1384      1385      1356      1382      1384      1386
      1356      1382      1384      1387      1356      1382      1388      1389
      1356      1382      1388      1390      1356      1382      1388      1391
      1357      1356      1358      1359      1357      1356      1358      1363
      1357      1356      1382      1383      1357      1356      1382      1384
      1357      1356      1382      1388      1358      1348      1346      1369
      1358      1356      1382      1383      1358      1356      1382      1384
      1358      1356      1382      1388      1358      1363      1366      1367
      1358      1363      1366      1368      1358      1363      1366      1369
      1359      1358      1356      1382      1359      1358      1363      1364
      1359      1358      1363      1365      1359      1358      1363      1366
      1360      1359      1358      1363      1361      1359      1358      1363
      1362      1359      1358      1363      1363      1358      1356      1382
      1363      1366      1369      1370      1363      1366      1369      1371
      1364      1363      1366      1367      1364      1363      1366      1368
      1364      1363      1366      1369      1365      1363      1366      1367
      1365      1363      1366      1368      1365      1363      1366      1369
      1366      1369      1371      1372      1366      1369      1371      1376
      1367      1366      1369      1370      1367      1366      1369      1371
      1368      1366      1369      1370      1368      1366      1369      1371
      1369      1371      1372      1373      1369      1371      1372      1374
      1369      1371      1372      1375      1369      1371      1376      1377
      1369      1371      1376      1378      1369      1371      1376      1379
      1370      1369      1371      1372      1370      1369      1371      1376
      1371      1376      1379      1380      1371      1376      1379      1381
      1372      1371      1376      1377      1372      1371      1376      1378
      1372      1371      1376      1379      1373      1372      1371      1376
      1374      1372      1371      1376      1375      1372      1371      1376
      1377      1376      1379      1380      1377      1376      1379      1381
      1378      1376      1379      1380      1378      1376      1379      1381
      1382      1388      1391      1392      1382      1388      1391      1393
      1382      1388      1391      1394      1383      1382      1384      1385
      1383      1382      1384      1386      1383      1382      1384      1387
      1383      1382      1388      1389      1383      1382      1388      1390
      1383      1382      1388      1391      1384      1382      1388      1389
      1384      1382      1388      1390      1384      1382      1388      1391
      1385      1384      1382      1388      1386      1384      1382      1388
      1387      1384      1382      1388      1388      1391      1394      1395
      1388      1391      1394      1396      1388      1391      1394      1397
      1389      1388      1391      1392      1389      1388      1391      1393
      1389      1388      1391      1394      1390      1388      1391      1392
      1390      1388      1391      1393      1390      1388      1391      1394
      1391      1394      1397      1398      1391      1394      1397      1399
      1391      1394      1397      1403      1392      1391      1394      1395
      1392      1391      1394      1396      1392      1391      1394      1397
      1393      1391      1394      1395      1393      1391      1394      1396
      1393      1391      1394      1397      1394      1397      1399      1400
      1394      1397      1399      1401      1394      1397      1399      1402
      1394      1397      1403      1404      1394      1397      1403      1405
      1394      1397      1403      1406      1395      1394      1397      1398
      1395      1394      1397      1399      1395      1394      1397      1403
      1396      1394      1397      1398      1396      1394      1397      1399
      1396      1394      1397      1403      1398      1397      1399      1400
      1398      1397      1399      1401      1398      1397      1399      1402
      1398      1397      1403      1404      1398      1397      1403      1405
      1398      1397      1403      1406      1399      1397      1403      1404
      1399      1397      1403      1405      1399      1397      1403      1406
      1400      1399      1397      1403      1401      1399      1397      1403
      1402      1399      1397      1403      1407      1411      1414      1415
      1407      1411      1414      1445      1407      1453      1450      1445
      1407      1453      1450      1451      1407      1453      1450      1452
      1408      1407      1409      1410      1408      1407      1411      1412
      1408      1407      1411      1413      1408      1407      1411      1414
      1408      1407      1453      1450      1408      1407      1453      1454
      1408      1407      1453      1455      1409      1407      1411      1412
      1409      1407      1411      1413      1409      1407      1411      1414
      1409      1407      1453      1450      1409      1407      1453      1454
      1409      1407      1453      1455      1410      1409      1407      1411
      1410      1409      1407      1453      1411      1407      1453      1450
      1411      1407      1453      1454      1411      1407      1453      1455
      1411      1414      1415      1416      1411      1414      1415      1417
      1411      1414      1445      1443      1411      1414      1445      1446
      1411      1414      1445      1450      1412      1411      1407      1453
      1412      1411      1414      1415      1412      1411      1414      1445
      1413      1411      1407      1453      1413      1411      1414      1415
      1413      1411      1414      1445      1414      1411      1407      1453
      1414      1415      1417      1418      1414      1415      1417      1419
      1414      1415      1417      1420      1414      1445      1443      1420
      1414      1445      1443      1440      1414      1445      1443      1444
      1414      1445      1446      1447      1414      1445      1446      1448
      1414      1445      1446      1449      1414      1445      1450      1451
      1414      1445      1450      1452      1414      1445      1450      1453
      1415      1414      1445      1443      1415      1414      1445      1446
      1415      1414      1445      1450      1415      1417      1420      1421
      1415      1417      1420      1422      1415      1417      1420      1443
      1416      1415      1414      1445      1416      1415      1417      1418
      1416      1415      1417      1419      1416      1415      1417      1420
      1417      1415      1414      1445      1417      1420      1422      1423
      1417      1420      1422      1424      1417      1420      1422      1432
      1417      1420      1443      1440      1417      1420      1443      1444
      1417      1420      1443      1445      1418      1417      1420      1421
      1418      1417      1420      1422      1418      1417      1420      1443
      1419      1417      1420      1421      1419      1417      1420      1422
      1419      1417      1420      1443      1420      1422      1424      1425
      1420      1422      1424      1426      1420      1422      1424      1427
      1420      1422      1432      1430      1420      1422      1432      1433
      1420      1422      1432      1437      1420      1443      1440      1437
      1420      1443      1440      1441      1420      1443      1440      1442
      1420      1443      1445      1446      1420      1443      1445      1450
      1421      1420      1422      1423      1421      1420      1422      1424
      1421      1420      1422      1432      1421      1420      1443      1440
      1421      1420      1443      1444      1421      1420      1443      1445
      1422      1420      1443      1440      1422      1420      1443      1444
      1422      1420      1443      1445      1422      1424      1427      1428
      1422      1424      1427      1429      1422      1424      1427      1430
      1422      1432      1430      1427      1422      1432      1430      1431
      1422      1432      1430      1456      1422      1432      1433      1434
      1422      1432      1433      1435      1422      1432      1433      1436
      1422      1432      1437      1438      1422      1432      1437      1439
      1422      1432      1437      1440      1423      1422      1420      1443
      1423      1422      1424      1425      1423      1422      1424      1426
      1423      1422      1424      1427      1423      1422      1432      1430
      1423      1422      1432      1433      1423      1422      1432      1437
      1424      1422      1420      1443      1424      1422      1432      1430
      1424      1422      1432      1433      1424      1422      1432      1437
      1424      1427      1430      1431      1424      1427      1430      1432
      1424      1427      1430      1456      1425      1424      1422      1432
      1425      1424      1427      1428      1425      1424      1427      1429
      1425      1424      1427      1430      1426      1424      1422      1432
      1426      1424      1427      1428      1426      1424      1427      1429
      1426      1424      1427      1430      1427      1424      1422      1432
      1427      1430      1432      1433      1427      1430      1432      1437
      1427      1430      1456      1457      1427      1430      1456      1458
      1427      1430      1456      1462      1428      1427      1430      1431
      1428      1427      1430      1432      1428      1427      1430      1456
      1429      1427      1430      1431      1429      1427      1430      1432
      1429      1427      1430      1456      1430      1432      1433      1434
      1430      1432      1433      1435      1430      1432      1433      1436
      1430      1432      1437      1438      1430      1432      1437      1439
      1430      1432      1437      1440      1430      1456      1458      1459
      1430      1456      1458      1460      1430      1456      1458      1461
      1430      1456      1462      1463      1430      1456      1462      1464
      1430      1456      1462      1465      1431      1430      1432      1433
      1431      1430      1432      1437      1431      1430      1456      1457
      1431      1430      1456      1458      1431      1430      1456      1462
      1432      1422      1420      1443      1432      1430      1456      1457
      1432      1430      1456      1458      1432      1430      1456      1462
      1432      1437      1440      1441      1432      1437      1440      1442
      1432      1437      1440      1443      1433      1432      1430      1456
      1433      1432      1437      1438      1433      1432      1437      1439
      1433      1432      1437      1440      1434      1433      1432      1437
      1435      1433      1432      1437      1436      1433      1432      1437
      1437      1432      1430      1456      1437      1440      1443      1444
      1437      1440      1443      1445      1438      1437      1440      1441
      1438      1437      1440      1442      1438      1437      1440      1443
      1439      1437      1440      1441      1439      1437      1440      1442
      1439      1437      1440      1443      1440      1443      1445      1446
      1440      1443      1445      1450      1441      1440      1443      1444
      1441      1440      1443      1445      1442      1440      1443      1444
      1442      1440      1443      1445      1443      1445      1446      1447
      1443      1445      1446      1448      1443      1445      1446      1449
      1443      1445      1450      1451      1443      1445      1450      1452
      1443      1445      1450      1453      1444      1443      1445      1446
      1444      1443      1445      1450      1445      1450      1453      1454
      1445      1450      1453      1455      1446      1445      1450      1451
      1446      1445      1450      1452      1446      1445      1450      1453
      1447      1446      1445      1450      1448      1446      1445      1450
      1449      1446      1445      1450      1451      1450      1453      1454
      1451      1450      1453      1455      1452      1450      1453      1454
      1452      1450      1453      1455      1456      1462      1465      1466
      1456      1462      1465      1467      1456      1462      1465      1468
      1457      1456      1458      1459      1457      1456      1458      1460
      1457      1456      1458      1461      1457      1456      1462      1463
      1457      1456      1462      1464      1457      1456      1462      1465
      1458      1456      1462      1463      1458      1456      1462      1464
      1458      1456      1462      1465      1459      1458      1456      1462
      1460      1458      1456      1462      1461      1458      1456      1462
      1462      1465      1468      1469      1462      1465      1468      1470
      1462      1465      1468      1471      1463      1462      1465      1466
      1463      1462      1465      1467      1463      1462      1465      1468
      1464      1462      1465      1466      1464      1462      1465      1467
      1464      1462      1465      1468      1465      1468      1471      1472
      1465      1468      1471      1473      1465      1468      1471      1477
      1466      1465      1468      1469      1466      1465      1468      1470
      1466      1465      1468      1471      1467      1465      1468      1469
      1467      1465      1468      1470      1467      1465      1468      1471
      1468      1471      1473      1474      1468      1471      1473      1475
      1468      1471      1473      1476      1468      1471      1477      1478
      1468      1471      1477      1479      1468      1471      1477      1480
      1469      1468      1471      1472      1469      1468      1471      1473
      1469      1468      1471      1477      1470      1468      1471      1472
      1470      1468      1471      1473      1470      1468      1471      1477
      1472      1471      1473      1474      1472      1471      1473      1475
      1472      1471      1473      1476      1472      1471      1477      1478
      1472      1471      1477      1479      1472      1471      1477      1480
      1473      1471      1477      1478      1473      1471      1477      1479
      1473      1471      1477      1480      1474      1473      1471      1477
      1475      1473      1471      1477      1476      1473      1471      1477
      1481      1485      1488      1489      1481      1485      1488      1519
      1481      1527      1524      1519      1481      1527      1524      1525
      1481      1527      1524      1526      1482      1481      1483      1484
      1482      1481      1485      1486      1482      1481      1485      1487
      1482      1481      1485      1488      1482      1481      1527      1524
      1482      1481      1527      1528      1482      1481      1527      1529
      1483      1481      1485      1486      1483      1481      1485      1487
      1483      1481      1485      1488      1483      1481      1527      1524
      1483      1481      1527      1528      1483      1481      1527      1529
      1484      1483      1481      1485      1484      1483      1481      1527
      1485      1481      1527      1524      1485      1481      1527      1528
      1485      1481      1527      1529      1485      1488      1489      1490
      1485      1488      1489      1491      1485      1488      1519      1517
      1485      1488      1519      1520      1485      1488      1519      1524
      1486      1485      1481      1527      1486      1485      1488      1489
      1486      1485      1488      1519      1487      1485      1481      1527
      1487      1485      1488      1489      1487      1485      1488      1519
      1488      1485      1481      1527      1488      1489      1491      1492
      1488      1489      1491      1493      1488      1489      1491      1494
      1488      1519      1517      1494      1488      1519      1517      1514
      1488      1519      1517      1518      1488      1519      1520      1521
      1488      1519      1520      1522      1488      1519      1520      1523
      1488      1519      1524      1525      1488      1519      1524      1526
      1488      1519      1524      1527      1489      1488      1519      1517
      1489      1488      1519      1520      1489      1488      1519      1524
      1489      1491      1494      1495      1489      1491      1494      1496
      1489      1491      1494      1517      1490      1489      1488      1519
      1490      1489      1491      1492      1490      1489      1491      1493
      1490      1489      1491      1494      1491      1489      1488      1519
      1491      1494      1496      1497      1491      1494      1496      1498
      1491      1494      1496      1506      1491      1494      1517      1514
      1491      1494      1517      1518      1491      1494      1517      1519
      1492      1491      1494      1495      1492      1491      1494      1496
      1492      1491      1494      1517      1493      1491      1494      1495
      1493      1491      1494      1496      1493      1491      1494      1517
      1494      1496      1498      1499      1494      1496      1498      1500
      1494      1496      1498      1501      1494      1496      1506      1504
      1494      1496      1506      1507      1494      1496      1506      1511
      1494      1517      1514      1511      1494      1517      1514      1515
      1494      1517      1514      1516      1494      1517      1519      1520
      1494      1517      1519      1524      1495      1494      1496      1497
      1495      1494      1496      1498      1495      1494      1496      1506
      1495      1494      1517      1514      1495      1494      1517      1518
      1495      1494      1517      1519      1496      1494      1517      1514
      1496      1494      1517      1518      1496      1494      1517      1519
      1496      1498      1501      1502      1496      1498      1501      1503
      1496      1498      1501      1504      1496      1506      1504      1501
      1496      1506      1504      1505      1496      1506      1504      1530
      1496      1506      1507      1508      1496      1506      1507      1509
      1496      1506      1507      1510      1496      1506      1511      1512
      1496      1506      1511      1513      1496      1506      1511      1514
      1497      1496      1494      1517      1497      1496      1498      1499
      1497      1496      1498      1500      1497      1496      1498      1501
      1497      1496      1506      1504      1497      1496      1506      1507
      1497      1496      1506      1511      1498      1496      1494      1517
      1498      1496      1506      1504      1498      1496      1506      1507
      1498      1496      1506      1511      1498      1501      1504      1505
      1498      1501      1504      1506      1498      1501      1504      1530
      1499      1498      1496      1506      1499      1498      1501      1502
      1499      1498      1501      1503      1499      1498      1501      1504
      1500      1498      1496      1506      1500      1498      1501      1502
      1500      1498      1501      1503      1500      1498      1501      1504
      1501      1498      1496      1506      1501      1504      1506      1507
      1501      1504      1506      1511      1501      1504      1530      1531
      1501      1504      1530      1532      1501      1504      1530      1536
      1502      1501      1504      1505      1502      1501      1504      1506
      1502      1501      1504      1530      1503      1501      1504      1505
      1503      1501      1504      1506      1503      1501      1504      1530
      1504      1506      1507      1508      1504      1506      1507      1509
      1504      1506      1507      1510      1504      1506      1511      1512
      1504      1506      1511      1513      1504      1506      1511      1514
      1504      1530      1532      1533      1504      1530      1532      1534
      1504      1530      1532      1535      1504      1530      1536      1537
      1504      1530      1536      1538      1504      1530      1536      1539
      1505      1504      1506      1507      1505      1504      1506      1511
      1505      1504      1530      1531      1505      1504      1530      1532
      1505      1504      1530      1536      1506      1496      1494      1517
      1506      1504      1530      1531      1506      1504      1530      1532
      1506      1504      1530      1536      1506      1511      1514      1515
      1506      1511      1514      1516      1506      1511      1514      1517
      1507      1506      1504      1530      1507      1506      1511      1512
      1507      1506      1511      1513      1507      1506      1511      1514
      1508      1507      1506      1511      1509      1507      1506      1511
      1510      1507      1506      1511      1511      1506      1504      1530
      1511      1514      1517      1518      1511      1514      1517      1519
      1512      1511      1514      1515      1512      1511      1514      1516
      1512      1511      1514      1517      1513      1511      1514      1515
      1513      1511      1514      1516      1513      1511      1514      1517
      1514      1517      1519      1520      1514      1517      1519      1524
      1515      1514      1517      1518      1515      1514      1517      1519
      1516      1514      1517      1518      1516      1514      1517      1519
      1517      1519      1520      1521      1517      1519      1520      1522
      1517      1519      1520      1523      1517      1519      1524      1525
      1517      1519      1524      1526      1517      1519      1524      1527
      1518      1517      1519      1520      1518      1517      1519      1524
      1519      1524      1527      1528      1519      1524      1527      1529
      1520      1519      1524      1525      1520      1519      1524      1526
      1520      1519      1524      1527      1521      1520      1519      1524
      1522      1520      1519      1524      1523      1520      1519      1524
      1525      1524      1527      1528      1525      1524      1527      1529
      1526      1524      1527      1528      1526      1524      1527      1529
      1530      1536      1539      1540      1530      1536      1539      1541
      1530      1536      1539      1542      1531      1530      1532      1533
      1531      1530      1532      1534      1531      1530      1532      1535
      1531      1530      1536      1537      1531      1530      1536      1538
      1531      1530      1536      1539      1532      1530      1536      1537
      1532      1530      1536      1538      1532      1530      1536      1539
      1533      1532      1530      1536      1534      1532      1530      1536
      1535      1532      1530      1536      1536      1539      1542      1543
      1536      1539      1542      1544      1536      1539      1542      1545
      1537      1536      1539      1540      1537      1536      1539      1541
      1537      1536      1539      1542      1538      1536      1539      1540
      1538      1536      1539      1541      1538      1536      1539      1542
      1539      1542      1545      1546      1539      1542      1545      1547
      1539      1542      1545      1551      1540      1539      1542      1543
      1540      1539      1542      1544      1540      1539      1542      1545
      1541      1539      1542      1543      1541      1539      1542      1544
      1541      1539      1542      1545      1542      1545      1547      1548
      1542      1545      1547      1549      1542      1545      1547      1550
      1542      1545      1551      1552      1542      1545      1551      1553
      1542      1545      1551      1554      1543      1542      1545      1546
      1543      1542      1545      1547      1543      1542      1545      1551
      1544      1542      1545      1546      1544      1542      1545      1547
      1544      1542      1545      1551      1546      1545      1547      1548
      1546      1545      1547      1549      1546      1545      1547      1550
      1546      1545      1551      1552      1546      1545      1551      1553
      1546      1545      1551      1554      1547      1545      1551      1552
      1547      1545      1551      1553      1547      1545      1551      1554
      1548      1547      1545      1551      1549      1547      1545      1551
      1550      1547      1545      1551      1555      1559      1562      1563
      1555      1559      1562      1593      1555      1601      1598      1593
      1555      1601      1598      1599      1555      1601      1598      1600
      1556      1555      1557      1558      1556      1555      1559      1560
      1556      1555      1559      1561      1556      1555      1559      1562
      1556      1555      1601      1598      1556      1555      1601      1602
      1556      1555      1601      1603      1557      1555      1559      1560
      1557      1555      1559      1561      1557      1555      1559      1562
      1557      1555      1601      1598      1557      1555      1601      1602
      1557      1555      1601      1603      1558      1557      1555      1559
      1558      1557      1555      1601      1559      1555      1601      1598
      1559      1555      1601      1602      1559      1555      1601      1603
      1559      1562      1563      1564      1559      1562      1563      1565
      1559      1562      1593      1591      1559      1562      1593      1594
      1559      1562      1593      1598      1560      1559      1555      1601
      1560      1559      1562      1563      1560      1559      1562      1593
      1561      1559      1555      1601      1561      1559      1562      1563
      1561      1559      1562      1593      1562      1559      1555      1601
      1562      1563      1565      1566      1562      1563      1565      1567
      1562      1563      1565      1568      1562      1593      1591      1568
      1562      1593      1591      1588      1562      1593      1591      1592
      1562      1593      1594      1595      1562      1593      1594      1596
      1562      1593      1594      1597      1562      1593      1598      1599
      1562      1593      1598      1600      1562      1593      1598      1601
      1563      1562      1593      1591      1563      1562      1593      1594
      1563      1562      1593      1598      1563      1565      1568      1569
      1563      1565      1568      1570      1563      1565      1568      1591
      1564      1563      1562      1593      1564      1563      1565      1566
      1564      1563      1565      1567      1564      1563      1565      1568
      1565      1563      1562      1593      1565      1568      1570      1571
      1565      1568      1570      1572      1565      1568      1570      1580
      1565      1568      1591      1588      1565      1568      1591      1592
      1565      1568      1591      1593      1566      1565      1568      1569
      1566      1565      1568      1570      1566      1565      1568      1591
      1567      1565      1568      1569      1567      1565      1568      1570
      1567      1565      1568      1591      1568      1570      1572      1573
      1568      1570      1572      1574      1568      1570      1572      1575
      1568      1570      1580      1578      1568      1570      1580      1581
      1568      1570      1580      1585      1568      1591      1588      1585
      1568      1591      1588      1589      1568      1591      1588      1590
      1568      1591      1593      1594      1568      1591      1593      1598
      1569      1568      1570      1571      1569      1568      1570      1572
      1569      1568      1570      1580      1569      1568      1591      1588
      1569      1568      1591      1592      1569      1568      1591      1593
      1570      1568      1591      1588      1570      1568      1591      1592
      1570      1568      1591      1593      1570      1572      1575      1576
      1570      1572      1575      1577      1570      1572      1575      1578
      1570      1580      1578      1575      1570      1580      1578      1579
      1570      1580      1578      1604      1570      1580      1581      1582
      1570      1580      1581      1583      1570      1580      1581      1584
      1570      1580      1585      1586      1570      1580      1585      1587
      1570      1580      1585      1588      1571      1570      1568      1591
      1571      1570      1572      1573      1571      1570      1572      1574
      1571      1570      1572      1575      1571      1570      1580      1578
      1571      1570      1580      1581      1571      1570      1580      1585
      1572      1570      1568      1591      1572      1570      1580      1578
      1572      1570      1580      1581      1572      1570      1580      1585
      1572      1575      1578      1579      1572      1575      1578      1580
      1572      1575      1578      1604      1573      1572      1570      1580
      1573      1572      1575      1576      1573      1572      1575      1577
      1573      1572      1575      1578      1574      1572      1570      1580
      1574      1572      1575      1576      1574      1572      1575      1577
      1574      1572      1575      1578      1575      1572      1570      1580
      1575      1578      1580      1581      1575      1578      1580      1585
      1575      1578      1604      1605      1575      1578      1604      1606
      1575      1578      1604      1610      1576      1575      1578      1579
      1576      1575      1578      1580      1576      1575      1578      1604
      1577      1575      1578      1579      1577      1575      1578      1580
      1577      1575      1578      1604      1578      1580      1581      1582
      1578      1580      1581      1583      1578      1580      1581      1584
      1578      1580      1585      1586      1578      1580      1585      1587
      1578      1580      1585      1588      1578      1604      1606      1607
      1578      1604      1606      1608      1578      1604      1606      1609
      1578      1604      1610      1611      1578      1604      1610      1612
      1578      1604      1610      1613      1579      1578      1580      1581
      1579      1578      1580      1585      1579      1578      1604      1605
      1579      1578      1604      1606      1579      1578      1604      1610
      1580      1570      1568      1591      1580      1578      1604      1605
      1580      1578      1604      1606      1580      1578      1604      1610
      1580      1585      1588      1589      1580      1585      1588      1590
      1580      1585      1588      1591      1581      1580      1578      1604
      1581      1580      1585      1586      1581      1580      1585      1587
      1581      1580      1585      1588      1582      1581      1580      1585
      1583      1581      1580      1585      1584      1581      1580      1585
      1585      1580      1578      1604      1585      1588      1591      1592
      1585      1588      1591      1593      1586      1585      1588      1589
      1586      1585      1588      1590      1586      1585      1588      1591
      1587      1585      1588      1589      1587      1585      1588      1590
      1587      1585      1588      1591      1588      1591      1593      1594
      1588      1591      1593      1598      1589      1588      1591      1592
      1589      1588      1591      1593      1590      1588      1591      1592
      1590      1588      1591      1593      1591      1593      1594      1595
      1591      1593      1594      1596      1591      1593      1594      1597
      1591      1593      1598      1599      1591      1593      1598      1600
      1591      1593      1598      1601      1592      1591      1593      1594
      1592      1591      1593      1598      1593      1598      1601      1602
      1593      1598      1601      1603      1594      1593      1598      1599
      1594      1593      1598      1600      1594      1593      1598      1601
      1595      1594      1593      1598      1596      1594      1593      1598
      1597      1594      1593      1598      1599      1598      1601      1602
      1599      1598      1601      1603      1600      1598      1601      1602
      1600      1598      1601      1603      1604      1610      1613      1614
      1604      1610      1613      1615      1604      1610      1613      1616
      1605      1604      1606      1607      1605      1604      1606      1608
      1605      1604      1606      1609      1605      1604      1610      1611
      1605      1604      1610      1612      1605      1604      1610      1613
      1606      1604      1610      1611      1606      1604      1610      1612
      1606      1604      1610      1613      1607      1606      1604      1610
      1608      1606      1604      1610      1609      1606      1604      1610
      1610      1613      1616      1617      1610      1613      1616      1618
      1610      1613      1616      1619      1611      1610      1613      1614
      1611      1610      1613      1615      1611      1610      1613      1616
      1612      1610      1613      1614      1612      1610      1613      1615
      1612      1610      1613      1616      1613      1616      1619      1620
      1613      1616      1619      1621      1613      1616      1619      1625
      1614      1613      1616      1617      1614      1613      1616      1618
      1614      1613      1616      1619      1615      1613      1616      1617
      1615      1613      1616      1618      1615      1613      1616      1619
      1616      1619      1621      1622      1616      1619      1621      1623
      1616      1619      1621      1624      1616      1619      1625      1626
      1616      1619      1625      1627      1616      1619      1625      1628
      1617      1616      1619      1620      1617      1616      1619      1621
      1617      1616      1619      1625      1618      1616      1619      1620
      1618      1616      1619      1621      1618      1616      1619      1625
      1620      1619      1621      1622      1620      1619      1621      1623
      1620      1619      1621      1624      1620      1619      1625      1626
      1620      1619      1625      1627      1620      1619      1625      1628
      1621      1619      1625      1626      1621      1619      1625      1627
      1621      1619      1625      1628      1622      1621      1619      1625
      1623      1621      1619      1625      1624      1621      1619      1625
      1629      1633      1636      1637      1629      1633      1636      1667
      1629      1675      1672      1667      1629      1675      1672      1673
      1629      1675      1672      1674      1630      1629      1631      1632
      1630      1629      1633      1634      1630      1629      1633      1635
      1630      1629      1633      1636      1630      1629      1675      1672
      1630      1629      1675      1676      1630      1629      1675      1677
      1631      1629      1633      1634      1631      1629      1633      1635
      1631      1629      1633      1636      1631      1629      1675      1672
      1631      1629      1675      1676      1631      1629      1675      1677
      1632      1631      1629      1633      1632      1631      1629      1675
      1633      1629      1675      1672      1633      1629      1675      1676
      1633      1629      1675      1677      1633      1636      1637      1638
      1633      1636      1637      1639      1633      1636      1667      1665
      1633      1636      1667      1668      1633      1636      1667      1672
      1634      1633      1629      1675      1634      1633      1636      1637
      1634      1633      1636      1667      1635      1633      1629      1675
      1635      1633      1636      1637      1635      1633      1636      1667
      1636      1633      1629      1675      1636      1637      1639      1640
      1636      1637      1639      1641      1636      1637      1639      1642
      1636      1667      1665      1642      1636      1667      1665      1662
      1636      1667      1665      1666      1636      1667      1668      1669
      1636      1667      1668      1670      1636      1667      1668      1671
      1636      1667      1672      1673      1636      1667      1672      1674
      1636      1667      1672      1675      1637      1636      1667      1665
      1637      1636      1667      1668      1637      1636      1667      1672
      1637      1639      1642      1643      1637      1639      1642      1644
      1637      1639      1642      1665      1638      1637      1636      1667
      1638      1637      1639      1640      1638      1637      1639      1641
      1638      1637      1639      1642      1639      1637      1636      1667
      1639      1642      1644      1645      1639      1642      1644      1646
      1639      1642      1644      1654      1639      1642      1665      1662
      1639      1642      1665      1666      1639      1642      1665      1667
      1640      1639      1642      1643      1640      1639      1642      1644
      1640      1639      1642      1665      1641      1639      1642      1643
      1641      1639      1642      1644      1641      1639      1642      1665
      1642      1644      1646      1647      1642      1644      1646      1648
      1642      1644      1646      1649      1642      1644      1654      1652
      1642      1644      1654      1655      1642      1644      1654      1659
      1642      1665      1662      1659      1642      1665      1662      1663
      1642      1665      1662      1664      1642      1665      1667      1668
      1642      1665      1667      1672      1643      1642      1644      1645
      1643      1642      1644      1646      1643      1642      1644      1654
      1643      1642      1665      1662      1643      1642      1665      1666
      1643      1642      1665      1667      1644      1642      1665      1662
      1644      1642      1665      1666      1644      1642      1665      1667
      1644      1646      1649      1650      1644      1646      1649      1651
      1644      1646      1649      1652      1644      1654      1652      1649
      1644      1654      1652      1653      1644      1654      1652      1678
      1644      1654      1655      1656      1644      1654      1655      1657
      1644      1654      1655      1658      1644      1654      1659      1660
      1644      1654      1659      1661      1644      1654      1659      1662
      1645      1644      1642      1665      1645      1644      1646      1647
      1645      1644      1646      1648      1645      1644      1646      1649
      1645      1644      1654      1652      1645      1644      1654      1655
      1645      1644      1654      1659      1646      1644      1642      1665
      1646      1644      1654      1652      1646      1644      1654      1655
      1646      1644      1654      1659      1646      1649      1652      1653
      1646      1649      1652      1654      1646      1649      1652      1678
      1647      1646      1644      1654      1647      1646      1649      1650
      1647      1646      1649      1651      1647      1646      1649      1652
      1648      1646      1644      1654      1648      1646      1649      1650
      1648      1646      1649      1651      1648      1646      1649      1652
      1649      1646      1644      1654      1649      1652      1654      1655
      1649      1652      1654      1659      1649      1652      1678      1679
      1649      1652      1678      1680      1649      1652      1678      1684
      1650      1649      1652      1653      1650      1649      1652      1654
      1650      1649      1652      1678      1651      1649      1652      1653
      1651      1649      1652      1654      1651      1649      1652      1678
      1652      1654      1655      1656      1652      1654      1655      1657
      1652      1654      1655      1658      1652      1654      1659      1660
      1652      1654      1659      1661      1652      1654      1659      1662
      1652      1678      1680      1681      1652      1678      1680      1682
      1652      1678      1680      1683      1652      1678      1684      1685
      1652      1678      1684      1686      1652      1678      1684      1687
      1653      1652      1654      1655      1653      1652      1654      1659
      1653      1652      1678      1679      1653      1652      1678      1680
      1653      1652      1678      1684      1654      1644      1642      1665
      1654      1652      1678      1679      1654      1652      1678      1680
      1654      1652      1678      1684      1654      1659      1662      1663
      1654      1659      1662      1664      1654      1659      1662      1665
      1655      1654      1652      1678      1655      1654      1659      1660
      1655      1654      1659      1661      1655      1654      1659      1662
      1656      1655      1654      1659      1657      1655      1654      1659
      1658      1655      1654      1659      1659      1654      1652      1678
      1659      1662      1665      1666      1659      1662      1665      1667
      1660      1659      1662      1663      1660      1659      1662      1664
      1660      1659      1662      1665      1661      1659      1662      1663
      1661      1659      1662      1664      1661      1659      1662      1665
      1662      1665      1667      1668      1662      1665      1667      1672
      1663      1662      1665      1666      1663      1662      1665      1667
      1664      1662      1665      1666      1664      1662      1665      1667
      1665      1667      1668      1669      1665      1667      1668      1670
      1665      1667      1668      1671      1665      1667      1672      1673
      1665      1667      1672      1674      1665      1667      1672      1675
      1666      1665      1667      1668      1666      1665      1667      1672
      1667      1672      1675      1676      1667      1672      1675      1677
      1668      1667      1672      1673      1668      1667      1672      1674
      1668      1667      1672      1675      1669      1668      1667      1672
      1670      1668      1667      1672      1671      1668      1667      1672
      1673      1672      1675      1676      1673      1672      1675      1677
      1674      1672      1675      1676      1674      1672      1675      1677
      1678      1684      1687      1688      1678      1684      1687      1689
      1678      1684      1687      1690      1679      1678      1680      1681
      1679      1678      1680      1682      1679      1678      1680      1683
      1679      1678      1684      1685      1679      1678      1684      1686
      1679      1678      1684      1687      1680      1678      1684      1685
      1680      1678      1684      1686      1680      1678      1684      1687
      1681      1680      1678      1684      1682      1680      1678      1684
      1683      1680      1678      1684      1684      1687      1690      1691
      1684      1687      1690      1692      1684      1687      1690      1693
      1685      1684      1687      1688      1685      1684      1687      1689
      1685      1684      1687      1690      1686      1684      1687      1688
      1686      1684      1687      1689      1686      1684      1687      1690
      1687      1690      1693      1694      1687      1690      1693      1695
      1687      1690      1693      1699      1688      1687      1690      1691
      1688      1687      1690      1692      1688      1687      1690      1693
      1689      1687      1690      1691      1689      1687      1690      1692
      1689      1687      1690      1693      1690      1693      1695      1696
      1690      1693      1695      1697      1690      1693      1695      1698
      1690      1693      1699      1700      1690      1693      1699      1701
      1690      1693      1699      1702      1691      1690      1693      1694
      1691      1690      1693      1695      1691      1690      1693      1699
      1692      1690      1693      1694      1692      1690      1693      1695
      1692      1690      1693      1699      1694      1693      1695      1696
      1694      1693      1695      1697      1694      1693      1695      1698
      1694      1693      1699      1700      1694      1693      1699      1701
      1694      1693      1699      1702      1695      1693      1699      1700
      1695      1693      1699      1701      1695      1693      1699      1702
      1696      1695      1693      1699      1697      1695      1693      1699
      1698      1695      1693      1699      1703      1707      1710      1711
      1703      1707      1710      1741      1703      1749      1746      1741
      1703      1749      1746      1747      1703      1749      1746      1748
      1704      1703      1705      1706      1704      1703      1707      1708
      1704      1703      1707      1709      1704      1703      1707      1710
      1704      1703      1749      1746      1704      1703      1749      1750
      1704      1703      1749      1751      1705      1703      1707      1708
      1705      1703      1707      1709      1705      1703      1707      1710
      1705      1703      1749      1746      1705      1703      1749      1750
      1705      1703      1749      1751      1706      1705      1703      1707
      1706      1705      1703      1749      1707      1703      1749      1746
      1707      1703      1749      1750      1707      1703      1749      1751
      1707      1710      1711      1712      1707      1710      1711      1713
      1707      1710      1741      1739      1707      1710      1741      1742
      1707      1710      1741      1746      1708      1707      1703      1749
      1708      1707      1710      1711      1708      1707      1710      1741
      1709      1707      1703      1749      1709      1707      1710      1711
      1709      1707      1710      1741      1710      1707      1703      1749
      1710      1711      1713      1714      1710      1711      1713      1715
      1710      1711      1713      1716      1710      1741      1739      1716
      1710      1741      1739      1736      1710      1741      1739      1740
      1710      1741      1742      1743      1710      1741      1742      1744
      1710      1741      1742      1745      1710      1741      1746      1747
      1710      1741      1746      1748      1710      1741      1746      1749
      1711      1710      1741      1739      1711      1710      1741      1742
      1711      1710      1741      1746      1711      1713      1716      1717
      1711      1713      1716      1718      1711      1713      1716      1739
      1712      1711      1710      1741      1712      1711      1713      1714
      1712      1711      1713      1715      1712      1711      1713      1716
      1713      1711      1710      1741      1713      1716      1718      1719
      1713      1716      1718      1720      1713      1716      1718      1728
      1713      1716      1739      1736      1713      1716      1739      1740
      1713      1716      1739      1741      1714      1713      1716      1717
      1714      1713      1716      1718      1714      1713      1716      1739
      1715      1713      1716      1717      1715      1713      1716      1718
      1715      1713      1716      1739      1716      1718      1720      1721
      1716      1718      1720      1722      1716      1718      1720      1723
      1716      1718      1728      1726      1716      1718      1728      1729
      1716      1718      1728      1733      1716      1739      1736      1733
      1716      1739      1736      1737      1716      1739      1736      1738
      1716      1739      1741      1742      1716      1739      1741      1746
      1717      1716      1718      1719      1717      1716      1718      1720
      1717      1716      1718      1728      1717      1716      1739      1736
      1717      1716      1739      1740      1717      1716      1739      1741
      1718      1716      1739      1736      1718      1716      1739      1740
      1718      1716      1739      1741      1718      1720      1723      1724
      1718      1720      1723      1725      1718      1720      1723      1726
      1718      1728      1726      1723      1718      1728      1726      1727
      1718      1728      1726      1752      1718      1728      1729      1730
      1718      1728      1729      1731      1718      1728      1729      1732
      1718      1728      1733      1734      1718      1728      1733      1735
      1718      1728      1733      1736      1719      1718      1716      1739
      1719      1718      1720      1721      1719      1718      1720      1722
      1719      1718      1720      1723      1719      1718      1728      1726
      1719      1718      1728      1729      1719      1718      1728      1733
      1720      1718      1716      1739      1720      1718      1728      1726
      1720      1718      1728      1729      1720      1718      1728      1733
      1720      1723      1726      1727      1720      1723      1726      1728
      1720      1723      1726      1752      1721      1720      1718      1728
      1721      1720      1723      1724      1721      1720      1723      1725
      1721      1720      1723      1726      1722      1720      1718      1728
      1722      1720      1723      1724      1722      1720      1723      1725
      1722      1720      1723      1726      1723      1720      1718      1728
      1723      1726      1728      1729      1723      1726      1728      1733
      1723      1726      1752      1753      1723      1726      1752      1754
      1723      1726      1752      1758      1724      1723      1726      1727
      1724      1723      1726      1728      1724      1723      1726      1752
      1725      1723      1726      1727      1725      1723      1726      1728
      1725      1723      1726      1752      1726      1728      1729      1730
      1726      1728      1729      1731      1726      1728      1729      1732
      1726      1728      1733      1734      1726      1728      1733      1735
      1726      1728      1733      1736      1726      1752      1754      1755
      1726      1752      1754      1756      1726      1752      1754      1757
      1726      1752      1758      1759      1726      1752      1758      1760
      1726      1752      1758      1761      1727      1726      1728      1729
      1727      1726      1728      1733      1727      1726      1752      1753
      1727      1726      1752      1754      1727      1726      1752      1758
      1728      1718      1716      1739      1728      1726      1752      1753
      1728      1726      1752      1754      1728      1726      1752      1758
      1728      1733      1736      1737      1728      1733      1736      1738
      1728      1733      1736      1739      1729      1728      1726      1752
      1729      1728      1733      1734      1729      1728      1733      1735
      1729      1728      1733      1736      1730      1729      1728      1733
      1731      1729      1728      1733      1732      1729      1728      1733
      1733      1728      1726      1752      1733      1736      1739      1740
      1733      1736      1739      1741      1734      1733      1736      1737
      1734      1733      1736      1738      1734      1733      1736      1739
      1735      1733      1736      1737      1735      1733      1736      1738
      1735      1733      1736      1739      1736      1739      1741      1742
      1736      1739      1741      1746      1737      1736      1739      1740
      1737      1736      1739      1741      1738      1736      1739      1740
      1738      1736      1739      1741      1739      1741      1742      1743
      1739      1741      1742      1744      1739      1741      1742      1745
      1739      1741      1746      1747      1739      1741      1746      1748
      1739      1741      1746      1749      1740      1739      1741      1742
      1740      1739      1741      1746      1741      1746      1749      1750
      1741      1746      1749      1751      1742      1741      1746      1747
      1742      1741      1746      1748      1742      1741      1746      1749
      1743      1742      1741      1746      1744      1742      1741      1746
      1745      1742      1741      1746      1747      1746      1749      1750
      1747      1746      1749      1751      1748      1746      1749      1750
      1748      1746      1749      1751      1752      1758      1761      1762
      1752      1758      1761      1763      1752      1758      1761      1764
      1753      1752      1754      1755      1753      1752      1754      1756
      1753      1752      1754      1757      1753      1752      1758      1759
      1753      1752      1758      1760      1753      1752      1758      1761
      1754      1752      1758      1759      1754      1752      1758      1760
      1754      1752      1758      1761      1755      1754      1752      1758
      1756      1754      1752      1758      1757      1754      1752      1758
      1758      1761      1764      1765      1758      1761      1764      1766
      1758      1761      1764      1767      1759      1758      1761      1762
      1759      1758      1761      1763      1759      1758      1761      1764
      1760      1758      1761      1762      1760      1758      1761      1763
      1760      1758      1761      1764      1761      1764      1767      1768
      1761      1764      1767      1769      1761      1764      1767      1773
      1762      1761      1764      1765      1762      1761      1764      1766
      1762      1761      1764      1767      1763      1761      1764      1765
      1763      1761      1764      1766      1763      1761      1764      1767
      1764      1767      1769      1770      1764      1767      1769      1771
      1764      1767      1769      1772      1764      1767      1773      1774
      1764      1767      1773      1775      1764      1767      1773      1776
      1765      1764      1767      1768      1765      1764      1767      1769
      1765      1764      1767      1773      1766      1764      1767      1768
      1766      1764      1767      1769      1766      1764      1767      1773
      1768      1767      1769      1770      1768      1767      1769      1771
      1768      1767      1769      1772      1768      1767      1773      1774
      1768      1767      1773      1775      1768      1767      1773      1776
      1769      1767      1773      1774      1769      1767      1773      1775
      1769      1767      1773      1776      1770      1769      1767      1773
      1771      1769      1767      1773      1772      1769      1767      1773
      1777      1781      1784      1785      1777      1781      1784      1815
      1777      1823      1820      1815      1777      1823      1820      1821
      1777      1823      1820      1822      1778      1777      1779      1780
      1778      1777      1781      1782      1778      1777      1781      1783
      1778      1777      1781      1784      1778      1777      1823      1820
      1778      1777      1823      1824      1778      1777      1823      1825
      1779      1777      1781      1782      1779      1777      1781      1783
      1779      1777      1781      1784      1779      1777      1823      1820
      1779      1777      1823      1824      1779      1777      1823      1825
      1780      1779      1777      1781      1780      1779      1777      1823
      1781      1777      1823      1820      1781      1777      1823      1824
      1781      1777      1823      1825      1781      1784      1785      1786
      1781      1784      1785      1787      1781      1784      1815      1813
      1781      1784      1815      1816      1781      1784      1815      1820
      1782      1781      1777      1823      1782      1781      1784      1785
      1782      1781      1784      1815      1783      1781      1777      1823
      1783      1781      1784      1785      1783      1781      1784      1815
      1784      1781      1777      1823      1784      1785      1787      1788
      1784      1785      1787      1789      1784      1785      1787      1790
      1784      1815      1813      1790      1784      1815      1813      1810
      1784      1815      1813      1814      1784      1815      1816      1817
      1784      1815      1816      1818      1784      1815      1816      1819
      1784      1815      1820      1821      1784      1815      1820      1822
      1784      1815      1820      1823      1785      1784      1815      1813
      1785      1784      1815      1816      1785      1784      1815      1820
      1785      1787      1790      1791      1785      1787      1790      1792
      1785      1787      1790      1813      1786      1785      1784      1815
      1786      1785      1787      1788      1786      1785      1787      1789
      1786      1785      1787      1790      1787      1785      1784      1815
      1787      1790      1792      1793      1787      1790      1792      1794
      1787      1790      1792      1802      1787      1790      1813      1810
      1787      1790      1813      1814      1787      1790      1813      1815
      1788      1787      1790      1791      1788      1787      1790      1792
      1788      1787      1790      1813      1789      1787      1790      1791
      1789      1787      1790      1792      1789      1787      1790      1813
      1790      1792      1794      1795      1790      1792      1794      1796
      1790      1792      1794      1797      1790      1792      1802      1800
      1790      1792      1802      1803      1790      1792      1802      1807
      1790      1813      1810      1807      1790      1813      1810      1811
      1790      1813      1810      1812      1790      1813      1815      1816
      1790      1813      1815      1820      1791      1790      1792      1793
      1791      1790      1792      1794      1791      1790      1792      1802
      1791      1790      1813      1810      1791      1790      1813      1814
      1791      1790      1813      1815      1792      1790      1813      1810
      1792      1790      1813      1814      1792      1790      1813      1815
      1792      1794      1797      1798      1792      1794      1797      1799
      1792      1794      1797      1800      1792      1802      1800      1797
      1792      1802      1800      1801      1792      1802      1800      1826
      1792      1802      1803      1804      1792      1802      1803      1805
      1792      1802      1803      1806      1792      1802      1807      1808
      1792      1802      1807      1809      1792      1802      1807      1810
      1793      1792      1790      1813      1793      1792      1794      1795
      1793      1792      1794      1796      1793      1792      1794      1797
      1793      1792      1802      1800      1793      1792      1802      1803
      1793      1792      1802      1807      1794      1792      1790      1813
      1794      1792      1802      1800      1794      1792      1802      1803
      1794      1792      1802      1807      1794      1797      1800      1801
      1794      1797      1800      1802      1794      1797      1800      1826
      1795      1794      1792      1802      1795      1794      1797      1798
      1795      1794      1797      1799      1795      1794      1797      1800
      1796      1794      1792      1802      1796      1794      1797      1798
      1796      1794      1797      1799      1796      1794      1797      1800
      1797      1794      1792      1802      1797      1800      1802      1803
      1797      1800      1802      1807      1797      1800      1826      1827
      1797      1800      1826      1828      1797      1800      1826      1832
      1798      1797      1800      1801      1798      1797      1800      1802
      1798      1797      1800      1826      1799      1797      1800      1801
      1799      1797      1800      1802      1799      1797      1800      1826
      1800      1802      1803      1804      1800      1802      1803      1805
      1800      1802      1803      1806      1800      1802      1807      1808
      1800      1802      1807      1809      1800      1802      1807      1810
      1800      1826      1828      1829      1800      1826      1828      1830
      1800      1826      1828      1831      1800      1826      1832      1833
      1800      1826      1832      1834      1800      1826      1832      1835
      1801      1800      1802      1803      1801      1800      1802      1807
      1801      1800      1826      1827      1801      1800      1826      1828
      1801      1800      1826      1832      1802      1792      1790      1813
      1802      1800      1826      1827      1802      1800      1826      1828
      1802      1800      1826      1832      1802      1807      1810      1811
      1802      1807      1810      1812      1802      1807      1810      1813
      1803      1802      1800      1826      1803      1802      1807      1808
      1803      1802      1807      1809      1803      1802      1807      1810
      1804      1803      1802      1807      1805      1803      1802      1807
      1806      1803      1802      1807      1807      1802      1800      1826
      1807      1810      1813      1814      1807      1810      1813      1815
      1808      1807      1810      1811      1808      1807      1810      1812
      1808      1807      1810      1813      1809      1807      1810      1811
      1809      1807      1810      1812      1809      1807      1810      1813
      1810      1813      1815      1816      1810      1813      1815      1820
      1811      1810      1813      1814      1811      1810      1813      1815
      1812      1810      1813      1814      1812      1810      1813      1815
      1813      1815      1816      1817      1813      1815      1816      1818
      1813      1815      1816      1819      1813      1815      1820      1821
      1813      1815      1820      1822      1813      1815      1820      1823
      1814      1813      1815      1816      1814      1813      1815      1820
      1815      1820      1823      1824      1815      1820      1823      1825
      1816      1815      1820      1821      1816      1815      1820      1822
      1816      1815      1820      1823      1817      1816      1815      1820
      1818      1816      1815      1820      1819      1816      1815      1820
      1821      1820      1823      1824      1821      1820      1823      1825
      1822      1820      1823      1824      1822      1820      1823      1825
      1826      1832      1835      1836      1826      1832      1835      1837
      1826      1832      1835      1838      1827      1826      1828      1829
      1827      1826      1828      1830      1827      1826      1828      1831
      1827      1826      1832      1833      1827      1826      1832      1834
      1827      1826      1832      1835      1828      1826      1832      1833
      1828      1826      1832      1834      1828      1826      1832      1835
      1829      1828      1826      1832      1830      1828      1826      1832
      1831      1828      1826      1832      1832      1835      1838      1839
      1832      1835      1838      1840      1832      1835      1838      1841
      1833      1832      1835      1836      1833      1832      1835      1837
      1833      1832      1835      1838      1834      1832      1835      1836
      1834      1832      1835      1837      1834      1832      1835      1838
      1835      1838      1841      1842      1835      1838      1841      1843
      1835      1838      1841      1847      1836      1835      1838      1839
      1836      1835      1838      1840      1836      1835      1838      1841
      1837      1835      1838      1839      1837      1835      1838      1840
      1837      1835      1838      1841      1838      1841      1843      1844
      1838      1841      1843      1845      1838      1841      1843      1846
      1838      1841      1847      1848      1838      1841      1847      1849
      1838      1841      1847      1850      1839      1838      1841      1842
      1839      1838      1841      1843      1839      1838      1841      1847
      1840      1838      1841      1842      1840      1838      1841      1843
      1840      1838      1841      1847      1842      1841      1843      1844
      1842      1841      1843      1845      1842      1841      1843      1846
      1842      1841      1847      1848      1842      1841      1847      1849
      1842      1841      1847      1850      1843      1841      1847      1848
      1843      1841      1847      1849      1843      1841      1847      1850
      1844      1843      1841      1847      1845      1843      1841      1847
      1846      1843      1841      1847      1851      1855      1858      1859
      1851      1855      1858      1889      1851      1897      1894      1889
      1851      1897      1894      1895      1851      1897      1894      1896
      1852      1851      1853      1854      1852      1851      1855      1856
      1852      1851      1855      1857      1852      1851      1855      1858
      1852      1851      1897      1894      1852      1851      1897      1898
      1852      1851      1897      1899      1853      1851      1855      1856
      1853      1851      1855      1857      1853      1851      1855      1858
      1853      1851      1897      1894      1853      1851      1897      1898
      1853      1851      1897      1899      1854      1853      1851      1855
      1854      1853      1851      1897      1855      1851      1897      1894
      1855      1851      1897      1898      1855      1851      1897      1899
      1855      1858      1859      1860      1855      1858      1859      1861
      1855      1858      1889      1887      1855      1858      1889      1890
      1855      1858      1889      1894      1856      1855      1851      1897
      1856      1855      1858      1859      1856      1855      1858      1889
      1857      1855      1851      1897      1857      1855      1858      1859
      1857      1855      1858      1889      1858      1855      1851      1897
      1858      1859      1861      1862      1858      1859      1861      1863
      1858      1859      1861      1864      1858      1889      1887      1864
      1858      1889      1887      1884      1858      1889      1887      1888
      1858      1889      1890      1891      1858      1889      1890      1892
      1858      1889      1890      1893      1858      1889      1894      1895
      1858      1889      1894      1896      1858      1889      1894      1897
      1859      1858      1889      1887      1859      1858      1889      1890
      1859      1858      1889      1894      1859      1861      1864      1865
      1859      1861      1864      1866      1859      1861      1864      1887
      1860      1859      1858      1889      1860      1859      1861      1862
      1860      1859      1861      1863      1860      1859      1861      1864
      1861      1859      1858      1889      1861      1864      1866      1867
      1861      1864      1866      1868      1861      1864      1866      1876
      1861      1864      1887      1884      1861      1864      1887      1888
      1861      1864      1887      1889      1862      1861      1864      1865
      1862      1861      1864      1866      1862      1861      1864      1887
      1863      1861      1864      1865      1863      1861      1864      1866
      1863      1861      1864      1887      1864      1866      1868      1869
      1864      1866      1868      1870      1864      1866      1868      1871
      1864      1866      1876      1874      1864      1866      1876      1877
      1864      1866      1876      1881      1864      1887      1884      1881
      1864      1887      1884      1885      1864      1887      1884      1886
      1864      1887      1889      1890      1864      1887      1889      1894
      1865      1864      1866      1867      1865      1864      1866      1868
      1865      1864      1866      1876      1865      1864      1887      1884
      1865      1864      1887      1888      1865      1864      1887      1889
      1866      1864      1887      1884      1866      1864      1887      1888
      1866      1864      1887      1889      1866      1868      1871      1872
      1866      1868      1871      1873      1866      1868      1871      1874
      1866      1876      1874      1871      1866      1876      1874      1875
      1866      1876      1874      1900      1866      1876      1877      1878
      1866      1876      1877      1879      1866      1876      1877      1880
      1866      1876      1881      1882      1866      1876      1881      1883
      1866      1876      1881      1884      1867      1866      1864      1887
      1867      1866      1868      1869      1867      1866      1868      1870
      1867      1866      1868      1871      1867      1866      1876      1874
      1867      1866      1876      1877      1867      1866      1876      1881
      1868      1866      1864      1887      1868      1866      1876      1874
      1868      1866      1876      1877      1868      1866      1876      1881
      1868      1871      1874      1875      1868      1871      1874      1876
      1868      1871      1874      1900      1869      1868      1866      1876
      1869      1868      1871      1872      1869      1868      1871      1873
      1869      1868      1871      1874      1870      1868      1866      1876
      1870      1868      1871      1872      1870      1868      1871      1873
      1870      1868      1871      1874      1871      1868      1866      1876
      1871      1874      1876      1877      1871      1874      1876      1881
      1871      1874      1900      1901      1871      1874      1900      1902
      1871      1874      1900      1906      1872      1871      1874      1875
      1872      1871      1874      1876      1872      1871      1874      1900
      1873      1871      1874      1875      1873      1871      1874      1876
      1873      1871      1874      1900      1874      1876      1877      1878
      1874      1876      1877      1879      1874      1876      1877      1880
      1874      1876      1881      1882      1874      1876      1881      1883
      1874      1876      1881      1884      1874      1900      1902      1903
      1874      1900      1902      1904      1874      1900      1902      1905
      1874      1900      1906      1907      1874      1900      1906      1908
      1874      1900      1906      1909      1875      1874      1876      1877
      1875      1874      1876      1881      1875      1874      1900      1901
      1875      1874      1900      1902      1875      1874      1900      1906
      1876      1866      1864      1887      1876      1874      1900      1901
      1876      1874      1900      1902      1876      1874      1900      1906
      1876      1881      1884      1885      1876      1881      1884      1886
      1876      1881      1884      1887      1877      1876      1874      1900
      1877      1876      1881      1882      1877      1876      1881      1883
      1877      1876      1881      1884      1878      1877      1876      1881
      1879      1877      1876      1881      1880      1877      1876      1881
      1881      1876      1874      1900      1881      1884      1887      1888
      1881      1884      1887      1889      1882      1881      1884      1885
      1882      1881      1884      1886      1882      1881      1884      1887
      1883      1881      1884      1885      1883      1881      1884      1886
      1883      1881      1884      1887      1884      1887      1889      1890
      1884      1887      1889      1894      1885      1884      1887      1888
      1885      1884      1887      1889      1886      1884      1887      1888
      1886      1884      1887      1889      1887      1889      1890      1891
      1887      1889      1890      1892      1887      1889      1890      1893
      1887      1889      1894      1895      1887      1889      1894      1896
      1887      1889      1894      1897      1888      1887      1889      1890
      1888      1887      1889      1894      1889      1894      1897      1898
      1889      1894      1897      1899      1890      1889      1894      1895
      1890      1889      1894      1896      1890      1889      1894      1897
      1891      1890      1889      1894      1892      1890      1889      1894
      1893      1890      1889      1894      1895      1894      1897      1898
      1895      1894      1897      1899      1896      1894      1897      1898
      1896      1894      1897      1899      1900      1906      1909      1910
      1900      1906      1909      1911      1900      1906      1909      1912
      1901      1900      1902      1903      1901      1900      1902      1904
      1901      1900      1902      1905      1901      1900      1906      1907
      1901      1900      1906      1908      1901      1900      1906      1909
      1902      1900      1906      1907      1902      1900      1906      1908
      1902      1900      1906      1909      1903      1902      1900      1906
      1904      1902      1900      1906      1905      1902      1900      1906
      1906      1909      1912      1913      1906      1909      1912      1914
      1906      1909      1912      1915      1907      1906      1909      1910
      1907      1906      1909      1911      1907      1906      1909      1912
      1908      1906      1909      1910      1908      1906      1909      1911
      1908      1906      1909      1912      1909      1912      1915      1916
      1909      1912      1915      1917      1909      1912      1915      1921
      1910      1909      1912      1913      1910      1909      1912      1914
      1910      1909      1912      1915      1911      1909      1912      1913
      1911      1909      1912      1914      1911      1909      1912      1915
      1912      1915      1917      1918      1912      1915      1917      1919
      1912      1915      1917      1920      1912      1915      1921      1922
      1912      1915      1921      1923      1912      1915      1921      1924
      1913      1912      1915      1916      1913      1912      1915      1917
      1913      1912      1915      1921      1914      1912      1915      1916
      1914      1912      1915      1917      1914      1912      1915      1921
      1916      1915      1917      1918      1916      1915      1917      1919
      1916      1915      1917      1920      1916      1915      1921      1922
      1916      1915      1921      1923      1916      1915      1921      1924
      1917      1915      1921      1922      1917      1915      1921      1923
      1917      1915      1921      1924      1918      1917      1915      1921
      1919      1917      1915      1921      1920      1917      1915      1921
      1925      1929      1932      1933      1925      1929      1932      1963
      1925      1971      1968      1963      1925      1971      1968      1969
      1925      1971      1968      1970      1926      1925      1927      1928
      1926      1925      1929      1930      1926      1925      1929      1931
      1926      1925      1929      1932      1926      1925      1971      1968
      1926      1925      1971      1972      1926      1925      1971      1973
      1927      1925      1929      1930      1927      1925      1929      1931
      1927      1925      1929      1932      1927      1925      1971      1968
      1927      1925      1971      1972      1927      1925      1971      1973
      1928      1927      1925      1929      1928      1927      1925      1971
      1929      1925      1971      1968      1929      1925      1971      1972
      1929      1925      1971      1973      1929      1932      1933      1934
      1929      1932      1933      1935      1929      1932      1963      1961
      1929      1932      1963      1964      1929      1932      1963      1968
      1930      1929      1925      1971      1930      1929      1932      1933
      1930      1929      1932      1963      1931      1929      1925      1971
      1931      1929      1932      1933      1931      1929      1932      1963
      1932      1929      1925      1971      1932      1933      1935      1936
      1932      1933      1935      1937      1932      1933      1935      1938
      1932      1963      1961      1938      1932      1963      1961      1958
      1932      1963      1961      1962      1932      1963      1964      1965
      1932      1963      1964      1966      1932      1963      1964      1967
      1932      1963      1968      1969      1932      1963      1968      1970
      1932      1963      1968      1971      1933      1932      1963      1961
      1933      1932      1963      1964      1933      1932      1963      1968
      1933      1935      1938      1939      1933      1935      1938      1940
      1933      1935      1938      1961      1934      1933      1932      1963
      1934      1933      1935      1936      1934      1933      1935      1937
      1934      1933      1935      1938      1935      1933      1932      1963
      1935      1938      1940      1941      1935      1938      1940      1942
      1935      1938      1940      1950      1935      1938      1961      1958
      1935      1938      1961      1962      1935      1938      1961      1963
      1936      1935      1938      1939      1936      1935      1938      1940
      1936      1935      1938      1961      1937      1935      1938      1939
      1937      1935      1938      1940      1937      1935      1938      1961
      1938      1940      1942      1943      1938      1940      1942      1944
      1938      1940      1942      1945      1938      1940      1950      1948
      1938      1940      1950      1951      1938      1940      1950      1955
      1938      1961      1958      1955      1938      1961      1958      1959
      1938      1961      1958      1960      1938      1961      1963      1964
      1938      1961      1963      1968      1939      1938      1940      1941
      1939      1938      1940      1942      1939      1938      1940      1950
      1939      1938      1961      1958      1939      1938      1961      1962
      1939      1938      1961      1963      1940      1938      1961      1958
      1940      1938      1961      1962      1940      1938      1961      1963
      1940      1942      1945      1946      1940      1942      1945      1947
      1940      1942      1945      1948      1940      1950      1948      1945
      1940      1950      1948      1949      1940      1950      1948      1974
      1940      1950      1951      1952      1940      1950      1951      1953
      1940      1950      1951      1954      1940      1950      1955      1956
      1940      1950      1955      1957      1940      1950      1955      1958
      1941      1940      1938      1961      1941      1940      1942      1943
      1941      1940      1942      1944      1941      1940      1942      1945
      1941      1940      1950      1948      1941      1940      1950      1951
      1941      1940      1950      1955      1942      1940      1938      1961
      1942      1940      1950      1948      1942      1940      1950      1951
      1942      1940      1950      1955      1942      1945      1948      1949
      1942      1945      1948      1950      1942      1945      1948      1974
      1943      1942      1940      1950      1943      1942      1945      1946
      1943      1942      1945      1947      1943      1942      1945      1948
      1944      1942      1940      1950      1944      1942      1945      1946
      1944      1942      1945      1947      1944      1942      1945      1948
      1945      1942      1940      1950      1945      1948      1950      1951
      1945      1948      1950      1955      1945      1948      1974      1975
      1945      1948      1974      1976      1945      1948      1974      1980
      1946      1945      1948      1949      1946      1945      1948      1950
      1946      1945      1948      1974      1947      1945      1948      1949
      1947      1945      1948      1950      1947      1945      1948      1974
      1948      1950      1951      1952      1948      1950      1951      1953
      1948      1950      1951      1954      1948      1950      1955      1956
      1948      1950      1955      1957      1948      1950      1955      1958
      1948      1974      1976      1977      1948      1974      1976      1978
      1948      1974      1976      1979      1948      1974      1980      1981
      1948      1974      1980      1982      1948      1974      1980      1983
      1949      1948      1950      1951      1949      1948      1950      1955
      1949      1948      1974      1975      1949      1948      1974      1976
      1949      1948      1974      1980      1950      1940      1938      1961
      1950      1948      1974      1975      1950      1948      1974      1976
      1950      1948      1974      1980      1950      1955      1958      1959
      1950      1955      1958      1960      1950      1955      1958      1961
      1951      1950      1948      1974      1951      1950      1955      1956
      1951      1950      1955      1957      1951      1950      1955      1958
      1952      1951      1950      1955      1953      1951      1950      1955
      1954      1951      1950      1955      1955      1950      1948      1974
      1955      1958      1961      1962      1955      1958      1961      1963
      1956      1955      1958      1959      1956      1955      1958      1960
      1956      1955      1958      1961      1957      1955      1958      1959
      1957      1955      1958      1960      1957      1955      1958      1961
      1958      1961      1963      1964      1958      1961      1963      1968
      1959      1958      1961      1962      1959      1958      1961      1963
      1960      1958      1961      1962      1960      1958      1961      1963
      1961      1963      1964      1965      1961      1963      1964      1966
      1961      1963      1964      1967      1961      1963      1968      1969
      1961      1963      1968      1970      1961      1963      1968      1971
      1962      1961      1963      1964      1962      1961      1963      1968
      1963      1968      1971      1972      1963      1968      1971      1973
      1964      1963      1968      1969      1964      1963      1968      1970
      1964      1963      1968      1971      1965      1964      1963      1968
      1966      1964      1963      1968      1967      1964      1963      1968
      1969      1968      1971      1972      1969      1968      1971      1973
      1970      1968      1971      1972      1970      1968      1971      1973
      1974      1980      1983      1984      1974      1980      1983      1985
      1974      1980      1983      1986      1975      1974      1976      1977
      1975      1974      1976      1978      1975      1974      1976      1979
      1975      1974      1980      1981      1975      1974      1980      1982
      1975      1974      1980      1983      1976      1974      1980      1981
      1976      1974      1980      1982      1976      1974      1980      1983
      1977      1976      1974      1980      1978      1976      1974      1980
      1979      1976      1974      1980      1980      1983      1986      1987
      1980      1983      1986      1988      1980      1983      1986      1989
      1981      1980      1983      1984      1981      1980      1983      1985
      1981      1980      1983      1986      1982      1980      1983      1984
      1982      1980      1983      1985      1982      1980      1983      1986
      1983      1986      1989      1990      1983      1986      1989      1991
      1983      1986      1989      1995      1984      1983      1986      1987
      1984      1983      1986      1988      1984      1983      1986      1989
      1985      1983      1986      1987      1985      1983      1986      1988
      1985      1983      1986      1989      1986      1989      1991      1992
      1986      1989      1991      1993      1986      1989      1991      1994
      1986      1989      1995      1996      1986      1989      1995      1997
      1986      1989      1995      1998      1987      1986      1989      1990
      1987      1986      1989      1991      1987      1986      1989      1995
      1988      1986      1989      1990      1988      1986      1989      1991
      1988      1986      1989      1995      1990      1989      1991      1992
      1990      1989      1991      1993      1990      1989      1991      1994
      1990      1989      1995      1996      1990      1989      1995      1997
      1990      1989      1995      1998      1991      1989      1995      1996
      1991      1989      1995      1997      1991      1989      1995      1998
      1992      1991      1989      1995      1993      1991      1989      1995
      1994      1991      1989      1995      1999      2003      2006      2007
      1999      2003      2006      2037      1999      2045      2042      2037
      1999      2045      2042      2043      1999      2045      2042      2044
      2000      1999      2001      2002      2000      1999      2003      2004
      2000      1999      2003      2005      2000      1999      2003      2006
      2000      1999      2045      2042      2000      1999      2045      2046
      2000      1999      2045      2047      2001      1999      2003      2004
      2001      1999      2003      2005      2001      1999      2003      2006
      2001      1999      2045      2042      2001      1999      2045      2046
      2001      1999      2045      2047      2002      2001      1999      2003
      2002      2001      1999      2045      2003      1999      2045      2042
      2003      1999      2045      2046      2003      1999      2045      2047
      2003      2006      2007      2008      2003      2006      2007      2009
      2003      2006      2037      2035      2003      2006      2037      2038
      2003      2006      2037      2042      2004      2003      1999      2045
      2004      2003      2006      2007      2004      2003      2006      2037
      2005      2003      1999      2045      2005      2003      2006      2007
      2005      2003      2006      2037      2006      2003      1999      2045
      2006      2007      2009      2010      2006      2007      2009      2011
      2006      2007      2009      2012      2006      2037      2035      2012
      2006      2037      2035      2032      2006      2037      2035      2036
      2006      2037      2038      2039      2006      2037      2038      2040
      2006      2037      2038      2041      2006      2037      2042      2043
      2006      2037      2042      2044      2006      2037      2042      2045
      2007      2006      2037      2035      2007      2006      2037      2038
      2007      2006      2037      2042      2007      2009      2012      2013
      2007      2009      2012      2014      2007      2009      2012      2035
      2008      2007      2006      2037      2008      2007      2009      2010
      2008      2007      2009      2011      2008      2007      2009      2012
      2009      2007      2006      2037      2009      2012      2014      2015
      2009      2012      2014      2016      2009      2012      2014      2024
      2009      2012      2035      2032      2009      2012      2035      2036
      2009      2012      2035      2037      2010      2009      2012      2013
      2010      2009      2012      2014      2010      2009      2012      2035
      2011      2009      2012      2013      2011      2009      2012      2014
      2011      2009      2012      2035      2012      2014      2016      2017
      2012      2014      2016      2018      2012      2014      2016      2019
      2012      2014      2024      2022      2012      2014      2024      2025
      2012      2014      2024      2029      2012      2035      2032      2029
      2012      2035      2032      2033      2012      2035      2032      2034
      2012      2035      2037      2038      2012      2035      2037      2042
      2013      2012      2014      2015      2013      2012      2014      2016
      2013      2012      2014      2024      2013      2012      2035      2032
      2013      2012      2035      2036      2013      2012      2035      2037
      2014      2012      2035      2032      2014      2012      2035      2036
      2014      2012      2035      2037      2014      2016      2019      2020
      2014      2016      2019      2021      2014      2016      2019      2022
      2014      2024      2022      2019      2014      2024      2022      2023
      2014      2024      2022      2048      2014      2024      2025      2026
      2014      2024      2025      2027      2014      2024      2025      2028
      2014      2024      2029      2030      2014      2024      2029      2031
      2014      2024      2029      2032      2015      2014      2012      2035
      2015      2014      2016      2017      2015      2014      2016      2018
      2015      2014      2016      2019      2015      2014      2024      2022
      2015      2014      2024      2025      2015      2014      2024      2029
      2016      2014      2012      2035      2016      2014      2024      2022
      2016      2014      2024      2025      2016      2014      2024      2029
      2016      2019      2022      2023      2016      2019      2022      2024
      2016      2019      2022      2048      2017      2016      2014      2024
      2017      2016      2019      2020      2017      2016      2019      2021
      2017      2016      2019      2022      2018      2016      2014      2024
      2018      2016      2019      2020      2018      2016      2019      2021
      2018      2016      2019      2022      2019      2016      2014      2024
      2019      2022      2024      2025      2019      2022      2024      2029
      2019      2022      2048      2049      2019      2022      2048      2050
      2019      2022      2048      2054      2020      2019      2022      2023
      2020      2019      2022      2024      2020      2019      2022      2048
      2021      2019      2022      2023      2021      2019      2022      2024
      2021      2019      2022      2048      2022      2024      2025      2026
      2022      2024      2025      2027      2022      2024      2025      2028
      2022      2024      2029      2030      2022      2024      2029      2031
      2022      2024      2029      2032      2022      2048      2050      2051
      2022      2048      2050      2052      2022      2048      2050      2053
      2022      2048      2054      2055      2022      2048      2054      2056
      2022      2048      2054      2057      2023      2022      2024      2025
      2023      2022      2024      2029      2023      2022      2048      2049
      2023      2022      2048      2050      2023      2022      2048      2054
      2024      2014      2012      2035      2024      2022      2048      2049
      2024      2022      2048      2050      2024      2022      2048      2054
      2024      2029      2032      2033      2024      2029      2032      2034
      2024      2029      2032      2035      2025      2024      2022      2048
      2025      2024      2029      2030      2025      2024      2029      2031
      2025      2024      2029      2032      2026      2025      2024      2029
      2027      2025      2024      2029      2028      2025      2024      2029
      2029      2024      2022      2048      2029      2032      2035      2036
      2029      2032      2035      2037      2030      2029      2032      2033
      2030      2029      2032      2034      2030      2029      2032      2035
      2031      2029      2032      2033      2031      2029      2032      2034
      2031      2029      2032      2035      2032      2035      2037      2038
      2032      2035      2037      2042      2033      2032      2035      2036
      2033      2032      2035      2037      2034      2032      2035      2036
      2034      2032      2035      2037      2035      2037      2038      2039
      2035      2037      2038      2040      2035      2037      2038      2041
      2035      2037      2042      2043      2035      2037      2042      2044
      2035      2037      2042      2045      2036      2035      2037      2038
      2036      2035      2037      2042      2037      2042      2045      2046
      2037      2042      2045      2047      2038      2037      2042      2043
      2038      2037      2042      2044      2038      2037      2042      2045
      2039      2038      2037      2042      2040      2038      2037      2042
      2041      2038      2037      2042      2043      2042      2045      2046
      2043      2042      2045      2047      2044      2042      2045      2046
      2044      2042      2045      2047      2048      2054      2057      2058
      2048      2054      2057      2059      2048      2054      2057      2060
      2049      2048      2050      2051      2049      2048      2050      2052
      2049      2048      2050      2053      2049      2048      2054      2055
      2049      2048      2054      2056      2049      2048      2054      2057
      2050      2048      2054      2055      2050      2048      2054      2056
      2050      2048      2054      2057      2051      2050      2048      2054
      2052      2050      2048      2054      2053      2050      2048      2054
      2054      2057      2060      2061      2054      2057      2060      2062
      2054      2057      2060      2063      2055      2054      2057      2058
      2055      2054      2057      2059      2055      2054      2057      2060
      2056      2054      2057      2058      2056      2054      2057      2059
      2056      2054      2057      2060      2057      2060      2063      2064
      2057      2060      2063      2065      2057      2060      2063      2069
      2058      2057      2060      2061      2058      2057      2060      2062
      2058      2057      2060      2063      2059      2057      2060      2061
      2059      2057      2060      2062      2059      2057      2060      2063
      2060      2063      2065      2066      2060      2063      2065      2067
      2060      2063      2065      2068      2060      2063      2069      2070
      2060      2063      2069      2071      2060      2063      2069      2072
      2061      2060      2063      2064      2061      2060      2063      2065
      2061      2060      2063      2069      2062      2060      2063      2064
      2062      2060      2063      2065      2062      2060      2063      2069
      2064      2063      2065      2066      2064      2063      2065      2067
      2064      2063      2065      2068      2064      2063      2069      2070
      2064      2063      2069      2071      2064      2063      2069      2072
      2065      2063      2069      2070      2065      2063      2069      2071
      2065      2063      2069      2072      2066      2065      2063      2069
      2067      2065      2063      2069      2068      2065      2063      2069
      2073      2077      2080      2081      2073      2077      2080      2111
      2073      2119      2116      2111      2073      2119      2116      2117
      2073      2119      2116      2118      2074      2073      2075      2076
      2074      2073      2077      2078      2074      2073      2077      2079
      2074      2073      2077      2080      2074      2073      2119      2116
      2074      2073      2119      2120      2074      2073      2119      2121
      2075      2073      2077      2078      2075      2073      2077      2079
      2075      2073      2077      2080      2075      2073      2119      2116
      2075      2073      2119      2120      2075      2073      2119      2121
      2076      2075      2073      2077      2076      2075      2073      2119
      2077      2073      2119      2116      2077      2073      2119      2120
      2077      2073      2119      2121      2077      2080      2081      2082
      2077      2080      2081      2083      2077      2080      2111      2109
      2077      2080      2111      2112      2077      2080      2111      2116
      2078      2077      2073      2119      2078      2077      2080      2081
      2078      2077      2080      2111      2079      2077      2073      2119
      2079      2077      2080      2081      2079      2077      2080      2111
      2080      2077      2073      2119      2080      2081      2083      2084
      2080      2081      2083      2085      2080      2081      2083      2086
      2080      2111      2109      2086      2080      2111      2109      2106
      2080      2111      2109      2110      2080      2111      2112      2113
      2080      2111      2112      2114      2080      2111      2112      2115
      2080      2111      2116      2117      2080      2111      2116      2118
      2080      2111      2116      2119      2081      2080      2111      2109
      2081      2080      2111      2112      2081      2080      2111      2116
      2081      2083      2086      2087      2081      2083      2086      2088
      2081      2083      2086      2109      2082      2081      2080      2111
      2082      2081      2083      2084      2082      2081      2083      2085
      2082      2081      2083      2086      2083      2081      2080      2111
      2083      2086      2088      2089      2083      2086      2088      2090
      2083      2086      2088      2098      2083      2086      2109      2106
      2083      2086      2109      2110      2083      2086      2109      2111
      2084      2083      2086      2087      2084      2083      2086      2088
      2084      2083      2086      2109      2085      2083      2086      2087
      2085      2083      2086      2088      2085      2083      2086      2109
      2086      2088      2090      2091      2086      2088      2090      2092
      2086      2088      2090      2093      2086      2088      2098      2096
      2086      2088      2098      2099      2086      2088      2098      2103
      2086      2109      2106      2103      2086      2109      2106      2107
      2086      2109      2106      2108      2086      2109      2111      2112
      2086      2109      2111      2116      2087      2086      2088      2089
      2087      2086      2088      2090      2087      2086      2088      2098
      2087      2086      2109      2106      2087      2086      2109      2110
      2087      2086      2109      2111      2088      2086      2109      2106
      2088      2086      2109      2110      2088      2086      2109      2111
      2088      2090      2093      2094      2088      2090      2093      2095
      2088      2090      2093      2096      2088      2098      2096      2093
      2088      2098      2096      2097      2088      2098      2096      2122
      2088      2098      2099      2100      2088      2098      2099      2101
      2088      2098      2099      2102      2088      2098      2103      2104
      2088      2098      2103      2105      2088      2098      2103      2106
      2089      2088      2086      2109      2089      2088      2090      2091
      2089      2088      2090      2092      2089      2088      2090      2093
      2089      2088      2098      2096      2089      2088      2098      2099
      2089      2088      2098      2103      2090      2088      2086      2109
      2090      2088      2098      2096      2090      2088      2098      2099
      2090      2088      2098      2103      2090      2093      2096      2097
      2090      2093      2096      2098      2090      2093      2096      2122
      2091      2090      2088      2098      2091      2090      2093      2094
      2091      2090      2093      2095      2091      2090      2093      2096
      2092      2090      2088      2098      2092      2090      2093      2094
      2092      2090      2093      2095      2092      2090      2093      2096
      2093      2090      2088      2098      2093      2096      2098      2099
      2093      2096      2098      2103      2093      2096      2122      2123
      2093      2096      2122      2124      2093      2096      2122      2128
      2094      2093      2096      2097      2094      2093      2096      2098
      2094      2093      2096      2122      2095      2093      2096      2097
      2095      2093      2096      2098      2095      2093      2096      2122
      2096      2098      2099      2100      2096      2098      2099      2101
      2096      2098      2099      2102      2096      2098      2103      2104
      2096      2098      2103      2105      2096      2098      2103      2106
      2096      2122      2124      2125      2096      2122      2124      2126
      2096      2122      2124      2127      2096      2122      2128      2129
      2096      2122      2128      2130      2096      2122      2128      2131
      2097      2096      2098      2099      2097      2096      2098      2103
      2097      2096      2122      2123      2097      2096      2122      2124
      2097      2096      2122      2128      2098      2088      2086      2109
      2098      2096      2122      2123      2098      2096      2122      2124
      2098      2096      2122      2128      2098      2103      2106      2107
      2098      2103      2106      2108      2098      2103      2106      2109
      2099      2098      2096      2122      2099      2098      2103      2104
      2099      2098      2103      2105      2099      2098      2103      2106
      2100      2099      2098      2103      2101      2099      2098      2103
      2102      2099      2098      2103      2103      2098      2096      2122
      2103      2106      2109      2110      2103      2106      2109      2111
      2104      2103      2106      2107      2104      2103      2106      2108
      2104      2103      2106      2109      2105      2103      2106      2107
      2105      2103      2106      2108      2105      2103      2106      2109
      2106      2109      2111      2112      2106      2109      2111      2116
      2107      2106      2109      2110      2107      2106      2109      2111
      2108      2106      2109      2110      2108      2106      2109      2111
      2109      2111      2112      2113      2109      2111      2112      2114
      2109      2111      2112      2115      2109      2111      2116      2117
      2109      2111      2116      2118      2109      2111      2116      2119
      2110      2109      2111      2112      2110      2109      2111      2116
      2111      2116      2119      2120      2111      2116      2119      2121
      2112      2111      2116      2117      2112      2111      2116      2118
      2112      2111      2116      2119      2113      2112      2111      2116
      2114      2112      2111      2116      2115      2112      2111      2116
      2117      2116      2119      2120      2117      2116      2119      2121
      2118      2116      2119      2120      2118      2116      2119      2121
      2122      2128      2131      2132      2122      2128      2131      2133
      2122      2128      2131      2134      2123      2122      2124      2125
      2123      2122      2124      2126      2123      2122      2124      2127
      2123      2122      2128      2129      2123      2122      2128      2130
      2123      2122      2128      2131      2124      2122      2128      2129
      2124      2122      2128      2130      2124      2122      2128      2131
      2125      2124      2122      2128      2126      2124      2122      2128
      2127      2124      2122      2128      2128      2131      2134      2135
      2128      2131      2134      2136      2128      2131      2134      2137
      2129      2128      2131      2132      2129      2128      2131      2133
      2129      2128      2131      2134      2130      2128      2131      2132
      2130      2128      2131      2133      2130      2128      2131      2134
      2131      2134      2137      2138      2131      2134      2137      2139
      2131      2134      2137      2143      2132      2131      2134      2135
      2132      2131      2134      2136      2132      2131      2134      2137
      2133      2131      2134      2135      2133      2131      2134      2136
      2133      2131      2134      2137      2134      2137      2139      2140
      2134      2137      2139      2141      2134      2137      2139      2142
      2134      2137      2143      2144      2134      2137      2143      2145
      2134      2137      2143      2146      2135      2134      2137      2138
      2135      2134      2137      2139      2135      2134      2137      2143
      2136      2134      2137      2138      2136      2134      2137      2139
      2136      2134      2137      2143      2138      2137      2139      2140
      2138      2137      2139      2141      2138      2137      2139      2142
      2138      2137      2143      2144      2138      2137      2143      2145
      2138      2137      2143      2146      2139      2137      2143      2144
      2139      2137      2143      2145      2139      2137      2143      2146
      2140      2139      2137      2143      2141      2139      2137      2143
      2142      2139      2137      2143      2147      2151      2154      2155
      2147      2151      2154      2185      2147      2193      2190      2185
      2147      2193      2190      2191      2147      2193      2190      2192
      2148      2147      2149      2150      2148      2147      2151      2152
      2148      2147      2151      2153      2148      2147      2151      2154
      2148      2147      2193      2190      2148      2147      2193      2194
      2148      2147      2193      2195      2149      2147      2151      2152
      2149      2147      2151      2153      2149      2147      2151      2154
      2149      2147      2193      2190      2149      2147      2193      2194
      2149      2147      2193      2195      2150      2149      2147      2151
      2150      2149      2147      2193      2151      2147      2193      2190
      2151      2147      2193      2194      2151      2147      2193      2195
      2151      2154      2155      2156      2151      2154      2155      2157
      2151      2154      2185      2183      2151      2154      2185      2186
      2151      2154      2185      2190      2152      2151      2147      2193
      2152      2151      2154      2155      2152      2151      2154      2185
      2153      2151      2147      2193      2153      2151      2154      2155
      2153      2151      2154      2185      2154      2151      2147      2193
      2154      2155      2157      2158      2154      2155      2157      2159
      2154      2155      2157      2160      2154      2185      2183      2160
      2154      2185      2183      2180      2154      2185      2183      2184
      2154      2185      2186      2187      2154      2185      2186      2188
      2154      2185      2186      2189      2154      2185      2190      2191
      2154      2185      2190      2192      2154      2185      2190      2193
      2155      2154      2185      2183      2155      2154      2185      2186
      2155      2154      2185      2190      2155      2157      2160      2161
      2155      2157      2160      2162      2155      2157      2160      2183
      2156      2155      2154      2185      2156      2155      2157      2158
      2156      2155      2157      2159      2156      2155      2157      2160
      2157      2155      2154      2185      2157      2160      2162      2163
      2157      2160      2162      2164      2157      2160      2162      2172
      2157      2160      2183      2180      2157      2160      2183      2184
      2157      2160      2183      2185      2158      2157      2160      2161
      2158      2157      2160      2162      2158      2157      2160      2183
      2159      2157      2160      2161      2159      2157      2160      2162
      2159      2157      2160      2183      2160      2162      2164      2165
      2160      2162      2164      2166      2160      2162      2164      2167
      2160      2162      2172      2170      2160      2162      2172      2173
      2160      2162      2172      2177      2160      2183      2180      2177
      2160      2183      2180      2181      2160      2183      2180      2182
      2160      2183      2185      2186      2160      2183      2185      2190
      2161      2160      2162      2163      2161      2160      2162      2164
      2161      2160      2162      2172      2161      2160      2183      2180
      2161      2160      2183      2184      2161      2160      2183      2185
      2162      2160      2183      2180      2162      2160      2183      2184
      2162      2160      2183      2185      2162      2164      2167      2168
      2162      2164      2167      2169      2162      2164      2167      2170
      2162      2172      2170      2167      2162      2172      2170      2171
      2162      2172      2170      2196      2162      2172      2173      2174
      2162      2172      2173      2175      2162      2172      2173      2176
      2162      2172      2177      2178      2162      2172      2177      2179
      2162      2172      2177      2180      2163      2162      2160      2183
      2163      2162      2164      2165      2163      2162      2164      2166
      2163      2162      2164      2167      2163      2162      2172      2170
      2163      2162      2172      2173      2163      2162      2172      2177
      2164      2162      2160      2183      2164      2162      2172      2170
      2164      2162      2172      2173      2164      2162      2172      2177
      2164      2167      2170      2171      2164      2167      2170      2172
      2164      2167      2170      2196      2165      2164      2162      2172
      2165      2164      2167      2168      2165      2164      2167      2169
      2165      2164      2167      2170      2166      2164      2162      2172
      2166      2164      2167      2168      2166      2164      2167      2169
      2166      2164      2167      2170      2167      2164      2162      2172
      2167      2170      2172      2173      2167      2170      2172      2177
      2167      2170      2196      2197      2167      2170      2196      2198
      2167      2170      2196      2202      2168      2167      2170      2171
      2168      2167      2170      2172      2168      2167      2170      2196
      2169      2167      2170      2171      2169      2167      2170      2172
      2169      2167      2170      2196      2170      2172      2173      2174
      2170      2172      2173      2175      2170      2172      2173      2176
      2170      2172      2177      2178      2170      2172      2177      2179
      2170      2172      2177      2180      2170      2196      2198      2199
      2170      2196      2198      2200      2170      2196      2198      2201
      2170      2196      2202      2203      2170      2196      2202      2204
      2170      2196      2202      2205      2171      2170      2172      2173
      2171      2170      2172      2177      2171      2170      2196      2197
      2171      2170      2196      2198      2171      2170      2196      2202
      2172      2162      2160      2183      2172      2170      2196      2197
      2172      2170      2196      2198      2172      2170      2196      2202
      2172      2177      2180      2181      2172      2177      2180      2182
      2172      2177      2180      2183      2173      2172      2170      2196
      2173      2172      2177      2178      2173      2172      2177      2179
      2173      2172      2177      2180      2174      2173      2172      2177
      2175      2173      2172      2177      2176      2173      2172      2177
      2177      2172      2170      2196      2177      2180      2183      2184
      2177      2180      2183      2185      2178      2177      2180      2181
      2178      2177      2180      2182      2178      2177      2180      2183
      2179      2177      2180      2181      2179      2177      2180      2182
      2179      2177      2180      2183      2180      2183      2185      2186
      2180      2183      2185      2190      2181      2180      2183      2184
      2181      2180      2183      2185      2182      2180      2183      2184
      2182      2180      2183      2185      2183      2185      2186      2187
      2183      2185      2186      2188      2183      2185      2186      2189
      2183      2185      2190      2191      2183      2185      2190      2192
      2183      2185      2190      2193      2184      2183      2185      2186
      2184      2183      2185      2190      2185      2190      2193      2194
      2185      2190      2193      2195      2186      2185      2190      2191
      2186      2185      2190      2192      2186      2185      2190      2193
      2187      2186      2185      2190      2188      2186      2185      2190
      2189      2186      2185      2190      2191      2190      2193      2194
      2191      2190      2193      2195      2192      2190      2193      2194
      2192      2190      2193      2195      2196      2202      2205      2206
      2196      2202      2205      2207      2196      2202      2205      2208
      2197      2196      2198      2199      2197      2196      2198      2200
      2197      2196      2198      2201      2197      2196      2202      2203
      2197      2196      2202      2204      2197      2196      2202      2205
      2198      2196      2202      2203      2198      2196      2202      2204
      2198      2196      2202      2205      2199      2198      2196      2202
      2200      2198      2196      2202      2201      2198      2196      2202
      2202      2205      2208      2209      2202      2205      2208      2210
      2202      2205      2208      2211      2203      2202      2205      2206
      2203      2202      2205      2207      2203      2202      2205      2208
      2204      2202      2205      2206      2204      2202      2205      2207
      2204      2202      2205      2208      2205      2208      2211      2212
      2205      2208      2211      2213      2205      2208      2211      2217
      2206      2205      2208      2209      2206      2205      2208      2210
      2206      2205      2208      2211      2207      2205      2208      2209
      2207      2205      2208      2210      2207      2205      2208      2211
      2208      2211      2213      2214      2208      2211      2213      2215
      2208      2211      2213      2216      2208      2211      2217      2218
      2208      2211      2217      2219      2208      2211      2217      2220
      2209      2208      2211      2212      2209      2208      2211      2213
      2209      2208      2211      2217      2210      2208      2211      2212
      2210      2208      2211      2213      2210      2208      2211      2217
      2212      2211      2213      2214      2212      2211      2213      2215
      2212      2211      2213      2216      2212      2211      2217      2218
      2212      2211      2217      2219      2212      2211      2217      2220
      2213      2211      2217      2218      2213      2211      2217      2219
      2213      2211      2217      2220      2214      2213      2211      2217
      2215      2213      2211      2217      2216      2213      2211      2217
      2221      2225      2228      2229      2221      2225      2228      2259
      2221      2267      2264      2259      2221      2267      2264      2265
      2221      2267      2264      2266      2222      2221      2223      2224
      2222      2221      2225      2226      2222      2221      2225      2227
      2222      2221      2225      2228      2222      2221      2267      2264
      2222      2221      2267      2268      2222      2221      2267      2269
      2223      2221      2225      2226      2223      2221      2225      2227
      2223      2221      2225      2228      2223      2221      2267      2264
      2223      2221      2267      2268      2223      2221      2267      2269
      2224      2223      2221      2225      2224      2223      2221      2267
      2225      2221      2267      2264      2225      2221      2267      2268
      2225      2221      2267      2269      2225      2228      2229      2230
      2225      2228      2229      2231      2225      2228      2259      2257
      2225      2228      2259      2260      2225      2228      2259      2264
      2226      2225      2221      2267      2226      2225      2228      2229
      2226      2225      2228      2259      2227      2225      2221      2267
      2227      2225      2228      2229      2227      2225      2228      2259
      2228      2225      2221      2267      2228      2229      2231      2232
      2228      2229      2231      2233      2228      2229      2231      2234
      2228      2259      2257      2234      2228      2259      2257      2254
      2228      2259      2257      2258      2228      2259      2260      2261
      2228      2259      2260      2262      2228      2259      2260      2263
      2228      2259      2264      2265      2228      2259      2264      2266
      2228      2259      2264      2267      2229      2228      2259      2257
      2229      2228      2259      2260      2229      2228      2259      2264
      2229      2231      2234      2235      2229      2231      2234      2236
      2229      2231      2234      2257      2230      2229      2228      2259
      2230      2229      2231      2232      2230      2229      2231      2233
      2230      2229      2231      2234      2231      2229      2228      2259
      2231      2234      2236      2237      2231      2234      2236      2238
      2231      2234      2236      2246      2231      2234      2257      2254
      2231      2234      2257      2258      2231      2234      2257      2259
      2232      2231      2234      2235      2232      2231      2234      2236
      2232      2231      2234      2257      2233      2231      2234      2235
      2233      2231      2234      2236      2233      2231      2234      2257
      2234      2236      2238      2239      2234      2236      2238      2240
      2234      2236      2238      2241      2234      2236      2246      2244
      2234      2236      2246      2247      2234      2236      2246      2251
      2234      2257      2254      2251      2234      2257      2254      2255
      2234      2257      2254      2256      2234      2257      2259      2260
      2234      2257      2259      2264      2235      2234      2236      2237
      2235      2234      2236      2238      2235      2234      2236      2246
      2235      2234      2257      2254      2235      2234      2257      2258
      2235      2234      2257      2259      2236      2234      2257      2254
      2236      2234      2257      2258      2236      2234      2257      2259
      2236      2238      2241      2242      2236      2238      2241      2243
      2236      2238      2241      2244      2236      2246      2244      2241
      2236      2246      2244      2245      2236      2246      2244      2270
      2236      2246      2247      2248      2236      2246      2247      2249
      2236      2246      2247      2250      2236      2246      2251      2252
      2236      2246      2251      2253      2236      2246      2251      2254
      2237      2236      2234      2257      2237      2236      2238      2239
      2237      2236      2238      2240      2237      2236      2238      2241
      2237      2236      2246      2244      2237      2236      2246      2247
      2237      2236      2246      2251      2238      2236      2234      2257
      2238      2236      2246      2244      2238      2236      2246      2247
      2238      2236      2246      2251      2238      2241      2244      2245
      2238      2241      2244      2246      2238      2241      2244      2270
      2239      2238      2236      2246      2239      2238      2241      2242
      2239      2238      2241      2243      2239      2238      2241      2244
      2240      2238      2236      2246      2240      2238      2241      2242
      2240      2238      2241      2243      2240      2238      2241      2244
      2241      2238      2236      2246      2241      2244      2246      2247
      2241      2244      2246      2251      2241      2244      2270      2271
      2241      2244      2270      2272      2241      2244      2270      2276
      2242      2241      2244      2245      2242      2241      2244      2246
      2242      2241      2244      2270      2243      2241      2244      2245
      2243      2241      2244      2246      2243      2241      2244      2270
      2244      2246      2247      2248      2244      2246      2247      2249
      2244      2246      2247      2250      2244      2246      2251      2252
      2244      2246      2251      2253      2244      2246      2251      2254
      2244      2270      2272      2273      2244      2270      2272      2274
      2244      2270      2272      2275      2244      2270      2276      2277
      2244      2270      2276      2278      2244      2270      2276      2279
      2245      2244      2246      2247      2245      2244      2246      2251
      2245      2244      2270      2271      2245      2244      2270      2272
      2245      2244      2270      2276      2246      2236      2234      2257
      2246      2244      2270      2271      2246      2244      2270      2272
      2246      2244      2270      2276      2246      2251      2254      2255
      2246      2251      2254      2256      2246      2251      2254      2257
      2247      2246      2244      2270      2247      2246      2251      2252
      2247      2246      2251      2253      2247      2246      2251      2254
      2248      2247      2246      2251      2249      2247      2246      2251
      2250      2247      2246      2251      2251      2246      2244      2270
      2251      2254      2257      2258      2251      2254      2257      2259
      2252      2251      2254      2255      2252      2251      2254      2256
      2252      2251      2254      2257      2253      2251      2254      2255
      2253      2251      2254      2256      2253      2251      2254      2257
      2254      2257      2259      2260      2254      2257      2259      2264
      2255      2254      2257      2258      2255      2254      2257      2259
      2256      2254      2257      2258      2256      2254      2257      2259
      2257      2259      2260      2261      2257      2259      2260      2262
      2257      2259      2260      2263      2257      2259      2264      2265
      2257      2259      2264      2266      2257      2259      2264      2267
      2258      2257      2259      2260      2258      2257      2259      2264
      2259      2264      2267      2268      2259      2264      2267      2269
      2260      2259      2264      2265      2260      2259      2264      2266
      2260      2259      2264      2267      2261      2260      2259      2264
      2262      2260      2259      2264      2263      2260      2259      2264
      2265      2264      2267      2268      2265      2264      2267      2269
      2266      2264      2267      2268      2266      2264      2267      2269
      2270      2276      2279      2280      2270      2276      2279      2281
      2270      2276      2279      2282      2271      2270      2272      2273
      2271      2270      2272      2274      2271      2270      2272      2275
      2271      2270      2276      2277      2271      2270      2276      2278
      2271      2270      2276      2279      2272      2270      2276      2277
      2272      2270      2276      2278      2272      2270      2276      2279
      2273      2272      2270      2276      2274      2272      2270      2276
      2275      2272      2270      2276      2276      2279      2282      2283
      2276      2279      2282      2284      2276      2279      2282      2285
      2277      2276      2279      2280      2277      2276      2279      2281
      2277      2276      2279      2282      2278      2276      2279      2280
      2278      2276      2279      2281      2278      2276      2279      2282
      2279      2282      2285      2286      2279      2282      2285      2287
      2279      2282      2285      2291      2280      2279      2282      2283
      2280      2279      2282      2284      2280      2279      2282      2285
      2281      2279      2282      2283      2281      2279      2282      2284
      2281      2279      2282      2285      2282      2285      2287      2288
      2282      2285      2287      2289      2282      2285      2287      2290
      2282      2285      2291      2292      2282      2285      2291      2293
      2282      2285      2291      2294      2283      2282      2285      2286
      2283      2282      2285      2287      2283      2282      2285      2291
      2284      2282      2285      2286      2284      2282      2285      2287
      2284      2282      2285      2291      2286      2285      2287      2288
      2286      2285      2287      2289      2286      2285      2287      2290
      2286      2285      2291      2292      2286      2285      2291      2293
      2286      2285      2291      2294      2287      2285      2291      2292
      2287      2285      2291      2293      2287      2285      2291      2294
      2288      2287      2285      2291      2289      2287      2285      2291
      2290      2287      2285      2291      2295      2296      2311      2312
      2295      2296      2311      2313      2295      2296      2311      2317
      2296      2295      2299      2300      2296      2295      2299      2301
      2296      2295      2299      2302      2296      2295      2303      2304
      2296      2295      2303      2305      2296      2295      2303      2306
      2296      2295      2307      2308      2296      2295      2307      2309
      2296      2295      2307      2310      2296      2311      2317      2314
      2297      2296      2295      2299      2297      2296      2295      2303
      2297      2296      2295      2307      2297      2296      2311      2312
      2297      2296      2311      2313      2297      2296      2311      2317
      2298      2296      2295      2299      2298      2296      2295      2303
      2298      2296      2295      2307      2298      2296      2311      2312
      2298      2296      2311      2313      2298      2296      2311      2317
      2299      2295      2296      2311      2299      2295      2303      2304
      2299      2295      2303      2305      2299      2295      2303      2306
      2299      2295      2307      2308      2299      2295      2307      2309
      2299      2295      2307      2310      2300      2299      2295      2303
      2300      2299      2295      2307      2301      2299      2295      2303
      2301      2299      2295      2307      2302      2299      2295      2303
      2302      2299      2295      2307      2303      2295      2296      2311
      2303      2295      2307      2308      2303      2295      2307      2309
      2303      2295      2307      2310      2304      2303      2295      2307
      2305      2303      2295      2307      2306      2303      2295      2307
      2307      2295      2296      2311      2311      2317      2314      2315
      2311      2317      2314      2316      2311      2317      2314      2318
      2312      2311      2317      2314      2313      2311      2317      2314
      2314      2318      2319      2320      2314      2318      2319      2321
      2314      2318      2319      2322      2315      2314      2318      2319
      2316      2314      2318      2319      2317      2314      2318      2319
      2318      2319      2322      2323      2318      2319      2322      2324
      2318      2319      2322      2330      2319      2322      2324      2325
      2319      2322      2330      2331      2319      2322      2330      2332
      2319      2322      2330      2333      2320      2319      2322      2323
      2320      2319      2322      2324      2320      2319      2322      2330
      2321      2319      2322      2323      2321      2319      2322      2324
      2321      2319      2322      2330      2322      2324      2325      2326
      2322      2324      2325      2327      2322      2330      2333      2334
      2323      2322      2324      2325      2323      2322      2330      2331
      2323      2322      2330      2332      2323      2322      2330      2333
      2324      2322      2330      2331      2324      2322      2330      2332
      2324      2322      2330      2333      2324      2325      2327      2328
      2324      2325      2327      2329      2324      2325      2327      2339
      2325      2324      2322      2330      2325      2327      2339      2340
      2325      2327      2339      2341      2325      2327      2339      2342
      2326      2325      2327      2328      2326      2325      2327      2329
      2326      2325      2327      2339      2327      2339      2342      2343
      2327      2339      2342      2344      2327      2339      2342      2345
      2328      2327      2339      2340      2328      2327      2339      2341
      2328      2327      2339      2342      2329      2327      2339      2340
      2329      2327      2339      2341      2329      2327      2339      2342
      2330      2333      2334      2335      2330      2333      2334      2336
      2331      2330      2333      2334      2332      2330      2333      2334
      2333      2334      2336      2337      2333      2334      2336      2338
      2333      2334      2336      2386      2334      2336      2386      2387
      2334      2336      2386      2388      2334      2336      2386      2389
      2335      2334      2336      2337      2335      2334      2336      2338
      2335      2334      2336      2386      2336      2386      2389      2390
      2336      2386      2389      2391      2336      2386      2389      2392
      2337      2336      2386      2387      2337      2336      2386      2388
      2337      2336      2386      2389      2338      2336      2386      2387
      2338      2336      2386      2388      2338      2336      2386      2389
      2339      2342      2345      2346      2339      2342      2345      2347
      2339      2342      2345      2348      2340      2339      2342      2343
      2340      2339      2342      2344      2340      2339      2342      2345
      2341      2339      2342      2343      2341      2339      2342      2344
      2341      2339      2342      2345      2342      2345      2348      2349
      2342      2345      2348      2350      2342      2345      2348      2351
      2343      2342      2345      2346      2343      2342      2345      2347
      2343      2342      2345      2348      2344      2342      2345      2346
      2344      2342      2345      2347      2344      2342      2345      2348
      2345      2348      2351      2352      2345      2348      2351      2353
      2345      2348      2351      2354      2346      2345      2348      2349
      2346      2345      2348      2350      2346      2345      2348      2351
      2347      2345      2348      2349      2347      2345      2348      2350
      2347      2345      2348      2351      2348      2351      2354      2355
      2348      2351      2354      2356      2348      2351      2354      2357
      2349      2348      2351      2352      2349      2348      2351      2353
      2349      2348      2351      2354      2350      2348      2351      2352
      2350      2348      2351      2353      2350      2348      2351      2354
      2351      2354      2357      2358      2351      2354      2357      2359
      2352      2351      2354      2355      2352      2351      2354      2356
      2352      2351      2354      2357      2353      2351      2354      2355
      2353      2351      2354      2356      2353      2351      2354      2357
      2354      2357      2359      2360      2354      2357      2359      2361
      2355      2354      2357      2358      2355      2354      2357      2359
      2356      2354      2357      2358      2356      2354      2357      2359
      2357      2359      2361      2362      2357      2359      2361      2363
      2357      2359      2361      2364      2358      2357      2359      2360
      2358      2357      2359      2361      2359      2361      2364      2365
      2359      2361      2364      2366      2359      2361      2364      2367
      2360      2359      2361      2362      2360      2359      2361      2363
      2360      2359      2361      2364      2361      2364      2367      2368
      2361      2364      2367      2369      2361      2364      2367      2370
      2362      2361      2364      2365      2362      2361      2364      2366
      2362      2361      2364      2367      2363      2361      2364      2365
      2363      2361      2364      2366      2363      2361      2364      2367
      2364      2367      2370      2371      2364      2367      2370      2372
      2364      2367      2370      2373      2365      2364      2367      2368
      2365      2364      2367      2369      2365      2364      2367      2370
      2366      2364      2367      2368      2366      2364      2367      2369
      2366      2364      2367      2370      2367      2370      2373      2374
      2367      2370      2373      2375      2367      2370      2373      2376
      2368      2367      2370      2371      2368      2367      2370      2372
      2368      2367      2370      2373      2369      2367      2370      2371
      2369      2367      2370      2372      2369      2367      2370      2373
      2370      2373      2376      2377      2370      2373      2376      2378
      2370      2373      2376      2379      2371      2370      2373      2374
      2371      2370      2373      2375      2371      2370      2373      2376
      2372      2370      2373      2374      2372      2370      2373      2375
      2372      2370      2373      2376      2373      2376      2379      2380
      2373      2376      2379      2381      2373      2376      2379      2382
      2374      2373      2376      2377      2374      2373      2376      2378
      2374      2373      2376      2379      2375      2373      2376      2377
      2375      2373      2376      2378      2375      2373      2376      2379
      2376      2379      2382      2383      2376      2379      2382      2384
      2376      2379      2382      2385      2377      2376      2379      2380
      2377      2376      2379      2381      2377      2376      2379      2382
      2378      2376      2379      2380      2378      2376      2379      2381
      2378      2376      2379      2382      2380      2379      2382      2383
      2380      2379      2382      2384      2380      2379      2382      2385
      2381      2379      2382      2383      2381      2379      2382      2384
      2381      2379      2382      2385      2386      2389      2392      2393
      2386      2389      2392      2394      2386      2389      2392      2395
      2387      2386      2389      2390      2387      2386      2389      2391
      2387      2386      2389      2392      2388      2386      2389      2390
      2388      2386      2389      2391      2388      2386      2389      2392
      2389      2392      2395      2396      2389      2392      2395      2397
      2389      2392      2395      2398      2390      2389      2392      2393
      2390      2389      2392      2394      2390      2389      2392      2395
      2391      2389      2392      2393      2391      2389      2392      2394
      2391      2389      2392      2395      2392      2395      2398      2399
      2392      2395      2398      2400      2392      2395      2398      2401
      2393      2392      2395      2396      2393      2392      2395      2397
      2393      2392      2395      2398      2394      2392      2395      2396
      2394      2392      2395      2397      2394      2392      2395      2398
      2395      2398      2401      2402      2395      2398      2401      2403
      2395      2398      2401      2404      2396      2395      2398      2399
      2396      2395      2398      2400      2396      2395      2398      2401
      2397      2395      2398      2399      2397      2395      2398      2400
      2397      2395      2398      2401      2398      2401      2404      2405
      2398      2401      2404      2406      2398      2401      2404      2407
      2399      2398      2401      2402      2399      2398      2401      2403
      2399      2398      2401      2404      2400      2398      2401      2402
      2400      2398      2401      2403      2400      2398      2401      2404
      2401      2404      2407      2408      2401      2404      2407      2409
      2401      2404      2407      2410      2402      2401      2404      2405
      2402      2401      2404      2406      2402      2401      2404      2407
      2403      2401      2404      2405      2403      2401      2404      2406
      2403      2401      2404      2407      2404      2407      2410      2411
      2404      2407      2410      2412      2404      2407      2410      2413
      2405      2404      2407      2408      2405      2404      2407      2409
      2405      2404      2407      2410      2406      2404      2407      2408
      2406      2404      2407      2409      2406      2404      2407      2410
      2407      2410      2413      2414      2407      2410      2413      2415
      2407      2410      2413      2416      2408      2407      2410      2411
      2408      2407      2410      2412      2408      2407      2410      2413
      2409      2407      2410      2411      2409      2407      2410      2412
      2409      2407      2410      2413      2410      2413      2416      2417
      2410      2413      2416      2418      2410      2413      2416      2419
      2411      2410      2413      2414      2411      2410      2413      2415
      2411      2410      2413      2416      2412      2410      2413      2414
      2412      2410      2413      2415      2412      2410      2413      2416
      2413      2416      2419      2420      2413      2416      2419      2421
      2413      2416      2419      2422      2414      2413      2416      2417
      2414      2413      2416      2418      2414      2413      2416      2419
      2415      2413      2416      2417      2415      2413      2416      2418
      2415      2413      2416      2419      2416      2419      2422      2423
      2416      2419      2422      2424      2416      2419      2422      2425
      2417      2416      2419      2420      2417      2416      2419      2421
      2417      2416      2419      2422      2418      2416      2419      2420
      2418      2416      2419      2421      2418      2416      2419      2422
      2419      2422      2425      2426      2419      2422      2425      2427
      2419      2422      2425      2428      2420      2419      2422      2423
      2420      2419      2422      2424      2420      2419      2422      2425
      2421      2419      2422      2423      2421      2419      2422      2424
      2421      2419      2422      2425      2423      2422      2425      2426
      2423      2422      2425      2427      2423      2422      2425      2428
      2424      2422      2425      2426      2424      2422      2425      2427
      2424      2422      2425      2428      2429      2430      2445      2446
      2429      2430      2445      2447      2429      2430      2445      2451
      2430      2429      2433      2434      2430      2429      2433      2435
      2430      2429      2433      2436      2430      2429      2437      2438
      2430      2429      2437      2439      2430      2429      2437      2440
      2430      2429      2441      2442      2430      2429      2441      2443
      2430      2429      2441      2444      2430      2445      2451      2448
      2431      2430      2429      2433      2431      2430      2429      2437
      2431      2430      2429      2441      2431      2430      2445      2446
      2431      2430      2445      2447      2431      2430      2445      2451
      2432      2430      2429      2433      2432      2430      2429      2437
      2432      2430      2429      2441      2432      2430      2445      2446
      2432      2430      2445      2447      2432      2430      2445      2451
      2433      2429      2430      2445      2433      2429      2437      2438
      2433      2429      2437      2439      2433      2429      2437      2440
      2433      2429      2441      2442      2433      2429      2441      2443
      2433      2429      2441      2444      2434      2433      2429      2437
      2434      2433      2429      2441      2435      2433      2429      2437
      2435      2433      2429      2441      2436      2433      2429      2437
      2436      2433      2429      2441      2437      2429      2430      2445
      2437      2429      2441      2442      2437      2429      2441      2443
      2437      2429      2441      2444      2438      2437      2429      2441
      2439      2437      2429      2441      2440      2437      2429      2441
      2441      2429      2430      2445      2445      2451      2448      2449
      2445      2451      2448      2450      2445      2451      2448      2452
      2446      2445      2451      2448      2447      2445      2451      2448
      2448      2452      2453      2454      2448      2452      2453      2455
      2448      2452      2453      2456      2449      2448      2452      2453
      2450      2448      2452      2453      2451      2448      2452      2453
      2452      2453      2456      2457      2452      2453      2456      2458
      2452      2453      2456      2464      2453      2456      2458      2459
      2453      2456      2464      2465      2453      2456      2464      2466
      2453      2456      2464      2467      2454      2453      2456      2457
      2454      2453      2456      2458      2454      2453      2456      2464
      2455      2453      2456      2457      2455      2453      2456      2458
      2455      2453      2456      2464      2456      2458      2459      2460
      2456      2458      2459      2461      2456      2464      2467      2468
      2457      2456      2458      2459      2457      2456      2464      2465
      2457      2456      2464      2466      2457      2456      2464      2467
      2458      2456      2464      2465      2458      2456      2464      2466
      2458      2456      2464      2467      2458      2459      2461      2462
      2458      2459      2461      2463      2458      2459      2461      2473
      2459      2458      2456      2464      2459      2461      2473      2474
      2459      2461      2473      2475      2459      2461      2473      2476
      2460      2459      2461      2462      2460      2459      2461      2463
      2460      2459      2461      2473      2461      2473      2476      2477
      2461      2473      2476      2478      2461      2473      2476      2479
      2462      2461      2473      2474      2462      2461      2473      2475
      2462      2461      2473      2476      2463      2461      2473      2474
      2463      2461      2473      2475      2463      2461      2473      2476
      2464      2467      2468      2469      2464      2467      2468      2470
      2465      2464      2467      2468      2466      2464      2467      2468
      2467      2468      2470      2471      2467      2468      2470      2472
      2467      2468      2470      2520      2468      2470      2520      2521
      2468      2470      2520      2522      2468      2470      2520      2523
      2469      2468      2470      2471      2469      2468      2470      2472
      2469      2468      2470      2520      2470      2520      2523      2524
      2470      2520      2523      2525      2470      2520      2523      2526
      2471      2470      2520      2521      2471      2470      2520      2522
      2471      2470      2520      2523      2472      2470      2520      2521
      2472      2470      2520      2522      2472      2470      2520      2523
      2473      2476      2479      2480      2473      2476      2479      2481
      2473      2476      2479      2482      2474      2473      2476      2477
      2474      2473      2476      2478      2474      2473      2476      2479
      2475      2473      2476      2477      2475      2473      2476      2478
      2475      2473      2476      2479      2476      2479      2482      2483
      2476      2479      2482      2484      2476      2479      2482      2485
      2477      2476      2479      2480      2477      2476      2479      2481
      2477      2476      2479      2482      2478      2476      2479      2480
      2478      2476      2479      2481      2478      2476      2479      2482
      2479      2482      2485      2486      2479      2482      2485      2487
      2479      2482      2485      2488      2480      2479      2482      2483
      2480      2479      2482      2484      2480      2479      2482      2485
      2481      2479      2482      2483      2481      2479      2482      2484
      2481      2479      2482      2485      2482      2485      2488      2489
      2482      2485      2488      2490      2482      2485      2488      2491
      2483      2482      2485      2486      2483      2482      2485      2487
      2483      2482      2485      2488      2484      2482      2485      2486
      2484      2482      2485      2487      2484      2482      2485      2488
      2485      2488      2491      2492      2485      2488      2491      2493
      2486      2485      2488      2489      2486      2485      2488      2490
      2486      2485      2488      2491      2487      2485      2488      2489
      2487      2485      2488      2490      2487      2485      2488      2491
      2488      2491      2493      2494      2488      2491      2493      2495
      2489      2488      2491      2492      2489      2488      2491      2493
      2490      2488      2491      2492      2490      2488      2491      2493
      2491      2493      2495      2496      2491      2493      2495      2497
      2491      2493      2495      2498      2492      2491      2493      2494
      2492      2491      2493      2495      2493      2495      2498      2499
      2493      2495      2498      2500      2493      2495      2498      2501
      2494      2493      2495      2496      2494      2493      2495      2497
      2494      2493      2495      2498      2495      2498      2501      2502
      2495      2498      2501      2503      2495      2498      2501      2504
      2496      2495      2498      2499      2496      2495      2498      2500
      2496      2495      2498      2501      2497      2495      2498      2499
      2497      2495      2498      2500      2497      2495      2498      2501
      2498      2501      2504      2505      2498      2501      2504      2506
      2498      2501      2504      2507      2499      2498      2501      2502
      2499      2498      2501      2503      2499      2498      2501      2504
      2500      2498      2501      2502      2500      2498      2501      2503
      2500      2498      2501      2504      2501      2504      2507      2508
      2501      2504      2507      2509      2501      2504      2507      2510
      2502      2501      2504      2505      2502      2501      2504      2506
      2502      2501      2504      2507      2503      2501      2504      2505
      2503      2501      2504      2506      2503      2501      2504      2507
      2504      2507      2510      2511      2504      2507      2510      2512
      2504      2507      2510      2513      2505      2504      2507      2508
      2505      2504      2507      2509      2505      2504      2507      2510
      2506      2504      2507      2508      2506      2504      2507      2509
      2506      2504      2507      2510      2507      2510      2513      2514
      2507      2510      2513      2515      2507      2510      2513      2516
      2508      2507      2510      2511      2508      2507      2510      2512
      2508      2507      2510      2513      2509      2507      2510      2511
      2509      2507      2510      2512      2509      2507      2510      2513
      2510      2513      2516      2517      2510      2513      2516      2518
      2510      2513      2516      2519      2511      2510      2513      2514
      2511      2510      2513      2515      2511      2510      2513      2516
      2512      2510      2513      2514      2512      2510      2513      2515
      2512      2510      2513      2516      2514      2513      2516      2517
      2514      2513      2516      2518      2514      2513      2516      2519
      2515      2513      2516      2517      2515      2513      2516      2518
      2515      2513      2516      2519      2520      2523      2526      2527
      2520      2523      2526      2528      2520      2523      2526      2529
      2521      2520      2523      2524      2521      2520      2523      2525
      2521      2520      2523      2526      2522      2520      2523      2524
      2522      2520      2523      2525      2522      2520      2523      2526
      2523      2526      2529      2530      2523      2526      2529      2531
      2523      2526      2529      2532      2524      2523      2526      2527
      2524      2523      2526      2528      2524      2523      2526      2529
      2525      2523      2526      2527      2525      2523      2526      2528
      2525      2523      2526      2529      2526      2529      2532      2533
      2526      2529      2532      2534      2526      2529      2532      2535
      2527      2526      2529      2530      2527      2526      2529      2531
      2527      2526      2529      2532      2528      2526      2529      2530
      2528      2526      2529      2531      2528      2526      2529      2532
      2529      2532      2535      2536      2529      2532      2535      2537
      2529      2532      2535      2538      2530      2529      2532      2533
      2530      2529      2532      2534      2530      2529      2532      2535
      2531      2529      2532      2533      2531      2529      2532      2534
      2531      2529      2532      2535      2532      2535      2538      2539
      2532      2535      2538      2540      2532      2535      2538      2541
      2533      2532      2535      2536      2533      2532      2535      2537
      2533      2532      2535      2538      2534      2532      2535      2536
      2534      2532      2535      2537      2534      2532      2535      2538
      2535      2538      2541      2542      2535      2538      2541      2543
      2535      2538      2541      2544      2536      2535      2538      2539
      2536      2535      2538      2540      2536      2535      2538      2541
      2537      2535      2538      2539      2537      2535      2538      2540
      2537      2535      2538      2541      2538      2541      2544      2545
      2538      2541      2544      2546      2538      2541      2544      2547
      2539      2538      2541      2542      2539      2538      2541      2543
      2539      2538      2541      2544      2540      2538      2541      2542
      2540      2538      2541      2543      2540      2538      2541      2544
      2541      2544      2547      2548      2541      2544      2547      2549
      2541      2544      2547      2550      2542      2541      2544      2545
      2542      2541      2544      2546      2542      2541      2544      2547
      2543      2541      2544      2545      2543      2541      2544      2546
      2543      2541      2544      2547      2544      2547      2550      2551
      2544      2547      2550      2552      2544      2547      2550      2553
      2545      2544      2547      2548      2545      2544      2547      2549
      2545      2544      2547      2550      2546      2544      2547      2548
      2546      2544      2547      2549      2546      2544      2547      2550
      2547      2550      2553      2554      2547      2550      2553      2555
      2547      2550      2553      2556      2548      2547      2550      2551
      2548      2547      2550      2552      2548      2547      2550      2553
      2549      2547      2550      2551      2549      2547      2550      2552
      2549      2547      2550      2553      2550      2553      2556      2557
      2550      2553      2556      2558      2550      2553      2556      2559
      2551      2550      2553      2554      2551      2550      2553      2555
      2551      2550      2553      2556      2552      2550      2553      2554
      2552      2550      2553      2555      2552      2550      2553      2556
      2553      2556      2559      2560      2553      2556      2559      2561
      2553      2556      2559      2562      2554      2553      2556      2557
      2554      2553      2556      2558      2554      2553      2556      2559
      2555      2553      2556      2557      2555      2553      2556      2558
      2555      2553      2556      2559      2557      2556      2559      2560
      2557      2556      2559      2561      2557      2556      2559      2562
      2558      2556      2559      2560      2558      2556      2559      2561
      2558      2556      2559      2562      2563      2564      2579      2580
      2563      2564      2579      2581      2563      2564      2579      2585
      2564      2563      2567      2568      2564      2563      2567      2569
      2564      2563      2567      2570      2564      2563      2571      2572
      2564      2563      2571      2573      2564      2563      2571      2574
      2564      2563      2575      2576      2564      2563      2575      2577
      2564      2563      2575      2578      2564      2579      2585      2582
      2565      2564      2563      2567      2565      2564      2563      2571
      2565      2564      2563      2575      2565      2564      2579      2580
      2565      2564      2579      2581      2565      2564      2579      2585
      2566      2564      2563      2567      2566      2564      2563      2571
      2566      2564      2563      2575      2566      2564      2579      2580
      2566      2564      2579      2581      2566      2564      2579      2585
      2567      2563      2564      2579      2567      2563      2571      2572
      2567      2563      2571      2573      2567      2563      2571      2574
      2567      2563      2575      2576      2567      2563      2575      2577
      2567      2563      2575      2578      2568      2567      2563      2571
      2568      2567      2563      2575      2569      2567      2563      2571
      2569      2567      2563      2575      2570      2567      2563      2571
      2570      2567      2563      2575      2571      2563      2564      2579
      2571      2563      2575      2576      2571      2563      2575      2577
      2571      2563      2575      2578      2572      2571      2563      2575
      2573      2571      2563      2575      2574      2571      2563      2575
      2575      2563      2564      2579      2579      2585      2582      2583
      2579      2585      2582      2584      2579      2585      2582      2586
      2580      2579      2585      2582      2581      2579      2585      2582
      2582      2586      2587      2588      2582      2586      2587      2589
      2582      2586      2587      2590      2583      2582      2586      2587
      2584      2582      2586      2587      2585      2582      2586      2587
      2586      2587      2590      2591      2586      2587      2590      2592
      2586      2587      2590      2598      2587      2590      2592      2593
      2587      2590      2598      2599      2587      2590      2598      2600
      2587      2590      2598      2601      2588      2587      2590      2591
      2588      2587      2590      2592      2588      2587      2590      2598
      2589      2587      2590      2591      2589      2587      2590      2592
      2589      2587      2590      2598      2590      2592      2593      2594
      2590      2592      2593      2595      2590      2598      2601      2602
      2591      2590      2592      2593      2591      2590      2598      2599
      2591      2590      2598      2600      2591      2590      2598      2601
      2592      2590      2598      2599      2592      2590      2598      2600
      2592      2590      2598      2601      2592      2593      2595      2596
      2592      2593      2595      2597      2592      2593      2595      2607
      2593      2592      2590      2598      2593      2595      2607      2608
      2593      2595      2607      2609      2593      2595      2607      2610
      2594      2593      2595      2596      2594      2593      2595      2597
      2594      2593      2595      2607      2595      2607      2610      2611
      2595      2607      2610      2612      2595      2607      2610      2613
      2596      2595      2607      2608      2596      2595      2607      2609
      2596      2595      2607      2610      2597      2595      2607      2608
      2597      2595      2607      2609      2597      2595      2607      2610
      2598      2601      2602      2603      2598      2601      2602      2604
      2599      2598      2601      2602      2600      2598      2601      2602
      2601      2602      2604      2605      2601      2602      2604      2606
      2601      2602      2604      2654      2602      2604      2654      2655
      2602      2604      2654      2656      2602      2604      2654      2657
      2603      2602      2604      2605      2603      2602      2604      2606
      2603      2602      2604      2654      2604      2654      2657      2658
      2604      2654      2657      2659      2604      2654      2657      2660
      2605      2604      2654      2655      2605      2604      2654      2656
      2605      2604      2654      2657      2606      2604      2654      2655
      2606      2604      2654      2656      2606      2604      2654      2657
      2607      2610      2613      2614      2607      2610      2613      2615
      2607      2610      2613      2616      2608      2607      2610      2611
      2608      2607      2610      2612      2608      2607      2610      2613
      2609      2607      2610      2611      2609      2607      2610      2612
      2609      2607      2610      2613      2610      2613      2616      2617
      2610      2613      2616      2618      2610      2613      2616      2619
      2611      2610      2613      2614      2611      2610      2613      2615
      2611      2610      2613      2616      2612      2610      2613      2614
      2612      2610      2613      2615      2612      2610      2613      2616
      2613      2616      2619      2620      2613      2616      2619      2621
      2613      2616      2619      2622      2614      2613      2616      2617
      2614      2613      2616      2618      2614      2613      2616      2619
      2615      2613      2616      2617      2615      2613      2616      2618
      2615      2613      2616      2619      2616      2619      2622      2623
      2616      2619      2622      2624      2616      2619      2622      2625
      2617      2616      2619      2620      2617      2616      2619      2621
      2617      2616      2619      2622      2618      2616      2619      2620
      2618      2616      2619      2621      2618      2616      2619      2622
      2619      2622      2625      2626      2619      2622      2625      2627
      2620      2619      2622      2623      2620      2619      2622      2624
      2620      2619      2622      2625      2621      2619      2622      2623
      2621      2619      2622      2624      2621      2619      2622      2625
      2622      2625      2627      2628      2622      2625      2627      2629
      2623      2622      2625      2626      2623      2622      2625      2627
      2624      2622      2625      2626      2624      2622      2625      2627
      2625      2627      2629      2630      2625      2627      2629      2631
      2625      2627      2629      2632      2626      2625      2627      2628
      2626      2625      2627      2629      2627      2629      2632      2633
      2627      2629      2632      2634      2627      2629      2632      2635
      2628      2627      2629      2630      2628      2627      2629      2631
      2628      2627      2629      2632      2629      2632      2635      2636
      2629      2632      2635      2637      2629      2632      2635      2638
      2630      2629      2632      2633      2630      2629      2632      2634
      2630      2629      2632      2635      2631      2629      2632      2633
      2631      2629      2632      2634      2631      2629      2632      2635
      2632      2635      2638      2639      2632      2635      2638      2640
      2632      2635      2638      2641      2633      2632      2635      2636
      2633      2632      2635      2637      2633      2632      2635      2638
      2634      2632      2635      2636      2634      2632      2635      2637
      2634      2632      2635      2638      2635      2638      2641      2642
      2635      2638      2641      2643      2635      2638      2641      2644
      2636      2635      2638      2639      2636      2635      2638      2640
      2636      2635      2638      2641      2637      2635      2638      2639
      2637      2635      2638      2640      2637      2635      2638      2641
      2638      2641      2644      2645      2638      2641      2644      2646
      2638      2641      2644      2647      2639      2638      2641      2642
      2639      2638      2641      2643      2639      2638      2641      2644
      2640      2638      2641      2642      2640      2638      2641      2643
      2640      2638      2641      2644      2641      2644      2647      2648
      2641      2644      2647      2649      2641      2644      2647      2650
      2642      2641      2644      2645      2642      2641      2644      2646
      2642      2641      2644      2647      2643      2641      2644      2645
      2643      2641      2644      2646      2643      2641      2644      2647
      2644      2647      2650      2651      2644      2647      2650      2652
      2644      2647      2650      2653      2645      2644      2647      2648
      2645      2644      2647      2649      2645      2644      2647      2650
      2646      2644      2647      2648      2646      2644      2647      2649
      2646      2644      2647      2650      2648      2647      2650      2651
      2648      2647      2650      2652      2648      2647      2650      2653
      2649      2647      2650      2651      2649      2647      2650      2652
      2649      2647      2650      2653      2654      2657      2660      2661
      2654      2657      2660      2662      2654      2657      2660      2663
      2655      2654      2657      2658      2655      2654      2657      2659
      2655      2654      2657      2660      2656      2654      2657      2658
      2656      2654      2657      2659      2656      2654      2657      2660
      2657      2660      2663      2664      2657      2660      2663      2665
      2657      2660      2663      2666      2658      2657      2660      2661
      2658      2657      2660      2662      2658      2657      2660      2663
      2659      2657      2660      2661      2659      2657      2660      2662
      2659      2657      2660      2663      2660      2663      2666      2667
      2660      2663      2666      2668      2660      2663      2666      2669
      2661      2660      2663      2664      2661      2660      2663      2665
      2661      2660      2663      2666      2662      2660      2663      2664
      2662      2660      2663      2665      2662      2660      2663      2666
      2663      2666      2669      2670      2663      2666      2669      2671
      2663      2666      2669      2672      2664      2663      2666      2667
      2664      2663      2666      2668      2664      2663      2666      2669
      2665      2663      2666      2667      2665      2663      2666      2668
      2665      2663      2666      2669      2666      2669      2672      2673
      2666      2669      2672      2674      2666      2669      2672      2675
      2667      2666      2669      2670      2667      2666      2669      2671
      2667      2666      2669      2672      2668      2666      2669      2670
      2668      2666      2669      2671      2668      2666      2669      2672
      2669      2672      2675      2676      2669      2672      2675      2677
      2669      2672      2675      2678      2670      2669      2672      2673
      2670      2669      2672      2674      2670      2669      2672      2675
      2671      2669      2672      2673      2671      2669      2672      2674
      2671      2669      2672      2675      2672      2675      2678      2679
      2672      2675      2678      2680      2672      2675      2678      2681
      2673      2672      2675      2676      2673      2672      2675      2677
      2673      2672      2675      2678      2674      2672      2675      2676
      2674      2672      2675      2677      2674      2672      2675      2678
      2675      2678      2681      2682      2675      2678      2681      2683
      2675      2678      2681      2684      2676      2675      2678      2679
      2676      2675      2678      2680      2676      2675      2678      2681
      2677      2675      2678      2679      2677      2675      2678      2680
      2677      2675      2678      2681      2678      2681      2684      2685
      2678      2681      2684      2686      2678      2681      2684      2687
      2679      2678      2681      2682      2679      2678      2681      2683
      2679      2678      2681      2684      2680      2678      2681      2682
      2680      2678      2681      2683      2680      2678      2681      2684
      2681      2684      2687      2688      2681      2684      2687      2689
      2681      2684      2687      2690      2682      2681      2684      2685
      2682      2681      2684      2686      2682      2681      2684      2687
      2683      2681      2684      2685      2683      2681      2684      2686
      2683      2681      2684      2687      2684      2687      2690      2691
      2684      2687      2690      2692      2684      2687      2690      2693
      2685      2684      2687      2688      2685      2684      2687      2689
      2685      2684      2687      2690      2686      2684      2687      2688
      2686      2684      2687      2689      2686      2684      2687      2690
      2687      2690      2693      2694      2687      2690      2693      2695
      2687      2690      2693      2696      2688      2687      2690      2691
      2688      2687      2690      2692      2688      2687      2690      2693
      2689      2687      2690      2691      2689      2687      2690      2692
      2689      2687      2690      2693      2691      2690      2693      2694
      2691      2690      2693      2695      2691      2690      2693      2696
      2692      2690      2693      2694      2692      2690      2693      2695
      2692      2690      2693      2696      2697      2698      2713      2714
      2697      2698      2713      2715      2697      2698      2713      2719
      2698      2697      2701      2702      2698      2697      2701      2703
      2698      2697      2701      2704      2698      2697      2705      2706
      2698      2697      2705      2707      2698      2697      2705      2708
      2698      2697      2709      2710      2698      2697      2709      2711
      2698      2697      2709      2712      2698      2713      2719      2716
      2699      2698      2697      2701      2699      2698      2697      2705
      2699      2698      2697      2709      2699      2698      2713      2714
      2699      2698      2713      2715      2699      2698      2713      2719
      2700      2698      2697      2701      2700      2698      2697      2705
      2700      2698      2697      2709      2700      2698      2713      2714
      2700      2698      2713      2715      2700      2698      2713      2719
      2701      2697      2698      2713      2701      2697      2705      2706
      2701      2697      2705      2707      2701      2697      2705      2708
      2701      2697      2709      2710      2701      2697      2709      2711
      2701      2697      2709      2712      2702      2701      2697      2705
      2702      2701      2697      2709      2703      2701      2697      2705
      2703      2701      2697      2709      2704      2701      2697      2705
      2704      2701      2697      2709      2705      2697      2698      2713
      2705      2697      2709      2710      2705      2697      2709      2711
      2705      2697      2709      2712      2706      2705      2697      2709
      2707      2705      2697      2709      2708      2705      2697      2709
      2709      2697      2698      2713      2713      2719      2716      2717
      2713      2719      2716      2718      2713      2719      2716      2720
      2714      2713      2719      2716      2715      2713      2719      2716
      2716      2720      2721      2722      2716      2720      2721      2723
      2716      2720      2721      2724      2717      2716      2720      2721
      2718      2716      2720      2721      2719      2716      2720      2721
      2720      2721      2724      2725      2720      2721      2724      2726
      2720      2721      2724      2732      2721      2724      2726      2727
      2721      2724      2732      2733      2721      2724      2732      2734
      2721      2724      2732      2735      2722      2721      2724      2725
      2722      2721      2724      2726      2722      2721      2724      2732
      2723      2721      2724      2725      2723      2721      2724      2726
      2723      2721      2724      2732      2724      2726      2727      2728
      2724      2726      2727      2729      2724      2732      2735      2736
      2725      2724      2726      2727      2725      2724      2732      2733
      2725      2724      2732      2734      2725      2724      2732      2735
      2726      2724      2732      2733      2726      2724      2732      2734
      2726      2724      2732      2735      2726      2727      2729      2730
      2726      2727      2729      2731      2726      2727      2729      2741
      2727      2726      2724      2732      2727      2729      2741      2742
      2727      2729      2741      2743      2727      2729      2741      2744
      2728      2727      2729      2730      2728      2727      2729      2731
      2728      2727      2729      2741      2729      2741      2744      2745
      2729      2741      2744      2746      2729      2741      2744      2747
      2730      2729      2741      2742      2730      2729      2741      2743
      2730      2729      2741      2744      2731      2729      2741      2742
      2731      2729      2741      2743      2731      2729      2741      2744
      2732      2735      2736      2737      2732      2735      2736      2738
      2733      2732      2735      2736      2734      2732      2735      2736
      2735      2736      2738      2739      2735      2736      2738      2740
      2735      2736      2738      2788      2736      2738      2788      2789
      2736      2738      2788      2790      2736      2738      2788      2791
      2737      2736      2738      2739      2737      2736      2738      2740
      2737      2736      2738      2788      2738      2788      2791      2792
      2738      2788      2791      2793      2738      2788      2791      2794
      2739      2738      2788      2789      2739      2738      2788      2790
      2739      2738      2788      2791      2740      2738      2788      2789
      2740      2738      2788      2790      2740      2738      2788      2791
      2741      2744      2747      2748      2741      2744      2747      2749
      2741      2744      2747      2750      2742      2741      2744      2745
      2742      2741      2744      2746      2742      2741      2744      2747
      2743      2741      2744      2745      2743      2741      2744      2746
      2743      2741      2744      2747      2744      2747      2750      2751
      2744      2747      2750      2752      2744      2747      2750      2753
      2745      2744      2747      2748      2745      2744      2747      2749
      2745      2744      2747      2750      2746      2744      2747      2748
      2746      2744      2747      2749      2746      2744      2747      2750
      2747      2750      2753      2754      2747      2750      2753      2755
      2747      2750      2753      2756      2748      2747      2750      2751
      2748      2747      2750      2752      2748      2747      2750      2753
      2749      2747      2750      2751      2749      2747      2750      2752
      2749      2747      2750      2753      2750      2753      2756      2757
      2750      2753      2756      2758      2750      2753      2756      2759
      2751      2750      2753      2754      2751      2750      2753      2755
      2751      2750      2753      2756      2752      2750      2753      2754
      2752      2750      2753      2755      2752      2750      2753      2756
      2753      2756      2759      2760      2753      2756      2759      2761
      2754      2753      2756      2757      2754      2753      2756      2758
      2754      2753      2756      2759      2755      2753      2756      2757
      2755      2753      2756      2758      2755      2753      2756      2759
      2756      2759      2761      2762      2756      2759      2761      2763
      2757      2756      2759      2760      2757      2756      2759      2761
      2758      2756      2759      2760      2758      2756      2759      2761
      2759      2761      2763      2764      2759      2761      2763      2765
      2759      2761      2763      2766      2760      2759      2761      2762
      2760      2759      2761      2763      2761      2763      2766      2767
      2761      2763      2766      2768      2761      2763      2766      2769
      2762      2761      2763      2764      2762      2761      2763      2765
      2762      2761      2763      2766      2763      2766      2769      2770
      2763      2766      2769      2771      2763      2766      2769      2772
      2764      2763      2766      2767      2764      2763      2766      2768
      2764      2763      2766      2769      2765      2763      2766      2767
      2765      2763      2766      2768      2765      2763      2766      2769
      2766      2769      2772      2773      2766      2769      2772      2774
      2766      2769      2772      2775      2767      2766      2769      2770
      2767      2766      2769      2771      2767      2766      2769      2772
      2768      2766      2769      2770      2768      2766      2769      2771
      2768      2766      2769      2772      2769      2772      2775      2776
      2769      2772      2775      2777      2769      2772      2775      2778
      2770      2769      2772      2773      2770      2769      2772      2774
      2770      2769      2772      2775      2771      2769      2772      2773
      2771      2769      2772      2774      2771      2769      2772      2775
      2772      2775      2778      2779      2772      2775      2778      2780
      2772      2775      2778      2781      2773      2772      2775      2776
      2773      2772      2775      2777      2773      2772      2775      2778
      2774      2772      2775      2776      2774      2772      2775      2777
      2774      2772      2775      2778      2775      2778      2781      2782
      2775      2778      2781      2783      2775      2778      2781      2784
      2776      2775      2778      2779      2776      2775      2778      2780
      2776      2775      2778      2781      2777      2775      2778      2779
      2777      2775      2778      2780      2777      2775      2778      2781
      2778      2781      2784      2785      2778      2781      2784      2786
      2778      2781      2784      2787      2779      2778      2781      2782
      2779      2778      2781      2783      2779      2778      2781      2784
      2780      2778      2781      2782      2780      2778      2781      2783
      2780      2778      2781      2784      2782      2781      2784      2785
      2782      2781      2784      2786      2782      2781      2784      2787
      2783      2781      2784      2785      2783      2781      2784      2786
      2783      2781      2784      2787      2788      2791      2794      2795
      2788      2791      2794      2796      2788      2791      2794      2797
      2789      2788      2791      2792      2789      2788      2791      2793
      2789      2788      2791      2794      2790      2788      2791      2792
      2790      2788      2791      2793      2790      2788      2791      2794
      2791      2794      2797      2798      2791      2794      2797      2799
      2791      2794      2797      2800      2792      2791      2794      2795
      2792      2791      2794      2796      2792      2791      2794      2797
      2793      2791      2794      2795      2793      2791      2794      2796
      2793      2791      2794      2797      2794      2797      2800      2801
      2794      2797      2800      2802      2794      2797      2800      2803
      2795      2794      2797      2798      2795      2794      2797      2799
      2795      2794      2797      2800      2796      2794      2797      2798
      2796      2794      2797      2799      2796      2794      2797      2800
      2797      2800      2803      2804      2797      2800      2803      2805
      2797      2800      2803      2806      2798      2797      2800      2801
      2798      2797      2800      2802      2798      2797      2800      2803
      2799      2797      2800      2801      2799      2797      2800      2802
      2799      2797      2800      2803      2800      2803      2806      2807
      2800      2803      2806      2808      2800      2803      2806      2809
      2801      2800      2803      2804      2801      2800      2803      2805
      2801      2800      2803      2806      2802      2800      2803      2804
      2802      2800      2803      2805      2802      2800      2803      2806
      2803      2806      2809      2810      2803      2806      2809      2811
      2803      2806      2809      2812      2804      2803      2806      2807
      2804      2803      2806      2808      2804      2803      2806      2809
      2805      2803      2806      2807      2805      2803      2806      2808
      2805      2803      2806      2809      2806      2809      2812      2813
      2806      2809      2812      2814      2806      2809      2812      2815
      2807      2806      2809      2810      2807      2806      2809      2811
      2807      2806      2809      2812      2808      2806      2809      2810
      2808      2806      2809      2811      2808      2806      2809      2812
      2809      2812      2815      2816      2809      2812      2815      2817
      2809      2812      2815      2818      2810      2809      2812      2813
      2810      2809      2812      2814      2810      2809      2812      2815
      2811      2809      2812      2813      2811      2809      2812      2814
      2811      2809      2812      2815      2812      2815      2818      2819
      2812      2815      2818      2820      2812      2815      2818      2821
      2813      2812      2815      2816      2813      2812      2815      2817
      2813      2812      2815      2818      2814      2812      2815      2816
      2814      2812      2815      2817      2814      2812      2815      2818
      2815      2818      2821      2822      2815      2818      2821      2823
      2815      2818      2821      2824      2816      2815      2818      2819
      2816      2815      2818      2820      2816      2815      2818      2821
      2817      2815      2818      2819      2817      2815      2818      2820
      2817      2815      2818      2821      2818      2821      2824      2825
      2818      2821      2824      2826      2818      2821      2824      2827
      2819      2818      2821      2822      2819      2818      2821      2823
      2819      2818      2821      2824      2820      2818      2821      2822
      2820      2818      2821      2823      2820      2818      2821      2824
      2821      2824      2827      2828      2821      2824      2827      2829
      2821      2824      2827      2830      2822      2821      2824      2825
      2822      2821      2824      2826      2822      2821      2824      2827
      2823      2821      2824      2825      2823      2821      2824      2826
      2823      2821      2824      2827      2825      2824      2827      2828
      2825      2824      2827      2829      2825      2824      2827      2830
      2826      2824      2827      2828      2826      2824      2827      2829
      2826      2824      2827      2830      2831      2832      2847      2848
      2831      2832      2847      2849      2831      2832      2847      2853
      2832      2831      2835      2836      2832      2831      2835      2837
      2832      2831      2835      2838      2832      2831      2839      2840
      2832      2831      2839      2841      2832      2831      2839      2842
      2832      2831      2843      2844      2832      2831      2843      2845
      2832      2831      2843      2846      2832      2847      2853      2850
      2833      2832      2831      2835      2833      2832      2831      2839
      2833      2832      2831      2843      2833      2832      2847      2848
      2833      2832      2847      2849      2833      2832      2847      2853
      2834      2832      2831      2835      2834      2832      2831      2839
      2834      2832      2831      2843      2834      2832      2847      2848
      2834      2832      2847      2849      2834      2832      2847      2853
      2835      2831      2832      2847      2835      2831      2839      2840
      2835      2831      2839      2841      2835      2831      2839      2842
      2835      2831      2843      2844      2835      2831      2843      2845
      2835      2831      2843      2846      2836      2835      2831      2839
      2836      2835      2831      2843      2837      2835      2831      2839
      2837      2835      2831      2843      2838      2835      2831      2839
      2838      2835      2831      2843      2839      2831      2832      2847
      2839      2831      2843      2844      2839      2831      2843      2845
      2839      2831      2843      2846      2840      2839      2831      2843
      2841      2839      2831      2843      2842      2839      2831      2843
      2843      2831      2832      2847      2847      2853      2850      2851
      2847      2853      2850      2852      2847      2853      2850      2854
      2848      2847      2853      2850      2849      2847      2853      2850
      2850      2854      2855      2856      2850      2854      2855      2857
      2850      2854      2855      2858      2851      2850      2854      2855
      2852      2850      2854      2855      2853      2850      2854      2855
      2854      2855      2858      2859      2854      2855      2858      2860
      2854      2855      2858      2866      2855      2858      2860      2861
      2855      2858      2866      2867      2855      2858      2866      2868
      2855      2858      2866      2869      2856      2855      2858      2859
      2856      2855      2858      2860      2856      2855      2858      2866
      2857      2855      2858      2859      2857      2855      2858      2860
      2857      2855      2858      2866      2858      2860      2861      2862
      2858      2860      2861      2863      2858      2866      2869      2870
      2859      2858      2860      2861      2859      2858      2866      2867
      2859      2858      2866      2868      2859      2858      2866      2869
      2860      2858      2866      2867      2860      2858      2866      2868
      2860      2858      2866      2869      2860      2861      2863      2864
      2860      2861      2863      2865      2860      2861      2863      2875
      2861      2860      2858      2866      2861      2863      2875      2876
      2861      2863      2875      2877      2861      2863      2875      2878
      2862      2861      2863      2864      2862      2861      2863      2865
      2862      2861      2863      2875      2863      2875      2878      2879
      2863      2875      2878      2880      2863      2875      2878      2881
      2864      2863      2875      2876      2864      2863      2875      2877
      2864      2863      2875      2878      2865      2863      2875      2876
      2865      2863      2875      2877      2865      2863      2875      2878
      2866      2869      2870      2871      2866      2869      2870      2872
      2867      2866      2869      2870      2868      2866      2869      2870
      2869      2870      2872      2873      2869      2870      2872      2874
      2869      2870      2872      2922      2870      2872      2922      2923
      2870      2872      2922      2924      2870      2872      2922      2925
      2871      2870      2872      2873      2871      2870      2872      2874
      2871      2870      2872      2922      2872      2922      2925      2926
      2872      2922      2925      2927      2872      2922      2925      2928
      2873      2872      2922      2923      2873      2872      2922      2924
      2873      2872      2922      2925      2874      2872      2922      2923
      2874      2872      2922      2924      2874      2872      2922      2925
      2875      2878      2881      2882      2875      2878      2881      2883
      2875      2878      2881      2884      2876      2875      2878      2879
      2876      2875      2878      2880      2876      2875      2878      2881
      2877      2875      2878      2879      2877      2875      2878      2880
      2877      2875      2878      2881      2878      2881      2884      2885
      2878      2881      2884      2886      2878      2881      2884      2887
      2879      2878      2881      2882      2879      2878      2881      2883
      2879      2878      2881      2884      2880      2878      2881      2882
      2880      2878      2881      2883      2880      2878      2881      2884
      2881      2884      2887      2888      2881      2884      2887      2889
      2881      2884      2887      2890      2882      2881      2884      2885
      2882      2881      2884      2886      2882      2881      2884      2887
      2883      2881      2884      2885      2883      2881      2884      2886
      2883      2881      2884      2887      2884      2887      2890      2891
      2884      2887      2890      2892      2884      2887      2890      2893
      2885      2884      2887      2888      2885      2884      2887      2889
      2885      2884      2887      2890      2886      2884      2887      2888
      2886      2884      2887      2889      2886      2884      2887      2890
      2887      2890      2893      2894      2887      2890      2893      2895
      2888      2887      2890      2891      2888      2887      2890      2892
      2888      2887      2890      2893      2889      2887      2890      2891
      2889      2887      2890      2892      2889      2887      2890      2893
      2890      2893      2895      2896      2890      2893      2895      2897
      2891      2890      2893      2894      2891      2890      2893      2895
      2892      2890      2893      2894      2892      2890      2893      2895
      2893      2895      2897      2898      2893      2895      2897      2899
      2893      2895      2897      2900      2894      2893      2895      2896
      2894      2893      2895      2897      2895      2897      2900      2901
      2895      2897      2900      2902      2895      2897      2900      2903
      2896      2895      2897      2898      2896      2895      2897      2899
      2896      2895      2897      2900      2897      2900      2903      2904
      2897      2900      2903      2905      2897      2900      2903      2906
      2898      2897      2900      2901      2898      2897      2900      2902
      2898      2897      2900      2903      2899      2897      2900      2901
      2899      2897      2900      2902      2899      2897      2900      2903
      2900      2903      2906      2907      2900      2903      2906      2908
      2900      2903      2906      2909      2901      2900      2903      2904
      2901      2900      2903      2905      2901      2900      2903      2906
      2902      2900      2903      2904      2902      2900      2903      2905
      2902      2900      2903      2906      2903      2906      2909      2910
      2903      2906      2909      2911      2903      2906      2909      2912
      2904      2903      2906      2907      2904      2903      2906      2908
      2904      2903      2906      2909      2905      2903      2906      2907
      2905      2903      2906      2908      2905      2903      2906      2909
      2906      2909      2912      2913      2906      2909      2912      2914
      2906      2909      2912      2915      2907      2906      2909      2910
      2907      2906      2909      2911      2907      2906      2909      2912
      2908      2906      2909      2910      2908      2906      2909      2911
      2908      2906      2909      2912      2909      2912      2915      2916
      2909      2912      2915      2917      2909      2912      2915      2918
      2910      2909      2912      2913      2910      2909      2912      2914
      2910      2909      2912      2915      2911      2909      2912      2913
      2911      2909      2912      2914      2911      2909      2912      2915
      2912      2915      2918      2919      2912      2915      2918      2920
      2912      2915      2918      2921      2913      2912      2915      2916
      2913      2912      2915      2917      2913      2912      2915      2918
      2914      2912      2915      2916      2914      2912      2915      2917
      2914      2912      2915      2918      2916      2915      2918      2919
      2916      2915      2918      2920      2916      2915      2918      2921
      2917      2915      2918      2919      2917      2915      2918      2920
      2917      2915      2918      2921      2922      2925      2928      2929
      2922      2925      2928      2930      2922      2925      2928      2931
      2923      2922      2925      2926      2923      2922      2925      2927
      2923      2922      2925      2928      2924      2922      2925      2926
      2924      2922      2925      2927      2924      2922      2925      2928
      2925      2928      2931      2932      2925      2928      2931      2933
      2925      2928      2931      2934      2926      2925      2928      2929
      2926      2925      2928      2930      2926      2925      2928      2931
      2927      2925      2928      2929      2927      2925      2928      2930
      2927      2925      2928      2931      2928      2931      2934      2935
      2928      2931      2934      2936      2928      2931      2934      2937
      2929      2928      2931      2932      2929      2928      2931      2933
      2929      2928      2931      2934      2930      2928      2931      2932
      2930      2928      2931      2933      2930      2928      2931      2934
      2931      2934      2937      2938      2931      2934      2937      2939
      2931      2934      2937      2940      2932      2931      2934      2935
      2932      2931      2934      2936      2932      2931      2934      2937
      2933      2931      2934      2935      2933      2931      2934      2936
      2933      2931      2934      2937      2934      2937      2940      2941
      2934      2937      2940      2942      2934      2937      2940      2943
      2935      2934      2937      2938      2935      2934      2937      2939
      2935      2934      2937      2940      2936      2934      2937      2938
      2936      2934      2937      2939      2936      2934      2937      2940
      2937      2940      2943      2944      2937      2940      2943      2945
      2937      2940      2943      2946      2938      2937      2940      2941
      2938      2937      2940      2942      2938      2937      2940      2943
      2939      2937      2940      2941      2939      2937      2940      2942
      2939      2937      2940      2943      2940      2943      2946      2947
      2940      2943      2946      2948      2940      2943      2946      2949
      2941      2940      2943      2944      2941      2940      2943      2945
      2941      2940      2943      2946      2942      2940      2943      2944
      2942      2940      2943      2945      2942      2940      2943      2946
      2943      2946      2949      2950      2943      2946      2949      2951
      2943      2946      2949      2952      2944      2943      2946      2947
      2944      2943      2946      2948      2944      2943      2946      2949
      2945      2943      2946      2947      2945      2943      2946      2948
      2945      2943      2946      2949      2946      2949      2952      2953
      2946      2949      2952      2954      2946      2949      2952      2955
      2947      2946      2949      2950      2947      2946      2949      2951
      2947      2946      2949      2952      2948      2946      2949      2950
      2948      2946      2949      2951      2948      2946      2949      2952
      2949      2952      2955      2956      2949      2952      2955      2957
      2949      2952      2955      2958      2950      2949      2952      2953
      2950      2949      2952      2954      2950      2949      2952      2955
      2951      2949      2952      2953      2951      2949      2952      2954
      2951      2949      2952      2955      2952      2955      2958      2959
      2952      2955      2958      2960      2952      2955      2958      2961
      2953      2952      2955      2956      2953      2952      2955      2957
      2953      2952      2955      2958      2954      2952      2955      2956
      2954      2952      2955      2957      2954      2952      2955      2958
      2955      2958      2961      2962      2955      2958      2961      2963
      2955      2958      2961      2964      2956      2955      2958      2959
      2956      2955      2958      2960      2956      2955      2958      2961
      2957      2955      2958      2959      2957      2955      2958      2960
      2957      2955      2958      2961      2959      2958      2961      2962
      2959      2958      2961      2963      2959      2958      2961      2964
      2960      2958      2961      2962      2960      2958      2961      2963
      2960      2958      2961      2964      2965      2966      2981      2982
      2965      2966      2981      2983      2965      2966      2981      2987
      2966      2965      2969      2970      2966      2965      2969      2971
      2966      2965      2969      2972      2966      2965      2973      2974
      2966      2965      2973      2975      2966      2965      2973      2976
      2966      2965      2977      2978      2966      2965      2977      2979
      2966      2965      2977      2980      2966      2981      2987      2984
      2967      2966      2965      2969      2967      2966      2965      2973
      2967      2966      2965      2977      2967      2966      2981      2982
      2967      2966      2981      2983      2967      2966      2981      2987
      2968      2966      2965      2969      2968      2966      2965      2973
      2968      2966      2965      2977      2968      2966      2981      2982
      2968      2966      2981      2983      2968      2966      2981      2987
      2969      2965      2966      2981      2969      2965      2973      2974
      2969      2965      2973      2975      2969      2965      2973      2976
      2969      2965      2977      2978      2969      2965      2977      2979
      2969      2965      2977      2980      2970      2969      2965      2973
      2970      2969      2965      2977      2971      2969      2965      2973
      2971      2969      2965      2977      2972      2969      2965      2973
      2972      2969      2965      2977      2973      2965      2966      2981
      2973      2965      2977      2978      2973      2965      2977      2979
      2973      2965      2977      2980      2974      2973      2965      2977
      2975      2973      2965      2977      2976      2973      2965      2977
      2977      2965      2966      2981      2981      2987      2984      2985
      2981      2987      2984      2986      2981      2987      2984      2988
      2982      2981      2987      2984      2983      2981      2987      2984
      2984      2988      2989      2990      2984      2988      2989      2991
      2984      2988      2989      2992      2985      2984      2988      2989
      2986      2984      2988      2989      2987      2984      2988      2989
      2988      2989      2992      2993      2988      2989      2992      2994
      2988      2989      2992      3000      2989      2992      2994      2995
      2989      2992      3000      3001      2989      2992      3000      3002
      2989      2992      3000      3003      2990      2989      2992      2993
      2990      2989      2992      2994      2990      2989      2992      3000
      2991      2989      2992      2993      2991      2989      2992      2994
      2991      2989      2992      3000      2992      2994      2995      2996
      2992      2994      2995      2997      2992      3000      3003      3004
      2993      2992      2994      2995      2993      2992      3000      3001
      2993      2992      3000      3002      2993      2992      3000      3003
      2994      2992      3000      3001      2994      2992      3000      3002
      2994      2992      3000      3003      2994      2995      2997      2998
      2994      2995      2997      2999      2994      2995      2997      3009
      2995      2994      2992      3000      2995      2997      3009      3010
      2995      2997      3009      3011      2995      2997      3009      3012
      2996      2995      2997      2998      2996      2995      2997      2999
      2996      2995      2997      3009      2997      3009      3012      3013
      2997      3009      3012      3014      2997      3009      3012      3015
      2998      2997      3009      3010      2998      2997      3009      3011
      2998      2997      3009      3012      2999      2997      3009      3010
      2999      2997      3009      3011      2999      2997      3009      3012
      3000      3003      3004      3005      3000      3003      3004      3006
      3001      3000      3003      3004      3002      3000      3003      3004
      3003      3004      3006      3007      3003      3004      3006      3008
      3003      3004      3006      3056      3004      3006      3056      3057
      3004      3006      3056      3058      3004      3006      3056      3059
      3005      3004      3006      3007      3005      3004      3006      3008
      3005      3004      3006      3056      3006      3056      3059      3060
      3006      3056      3059      3061      3006      3056      3059      3062
      3007      3006      3056      3057      3007      3006      3056      3058
      3007      3006      3056      3059      3008      3006      3056      3057
      3008      3006      3056      3058      3008      3006      3056      3059
      3009      3012      3015      3016      3009      3012      3015      3017
      3009      3012      3015      3018      3010      3009      3012      3013
      3010      3009      3012      3014      3010      3009      3012      3015
      3011      3009      3012      3013      3011      3009      3012      3014
      3011      3009      3012      3015      3012      3015      3018      3019
      3012      3015      3018      3020      3012      3015      3018      3021
      3013      3012      3015      3016      3013      3012      3015      3017
      3013      3012      3015      3018      3014      3012      3015      3016
      3014      3012      3015      3017      3014      3012      3015      3018
      3015      3018      3021      3022      3015      3018      3021      3023
      3015      3018      3021      3024      3016      3015      3018      3019
      3016      3015      3018      3020      3016      3015      3018      3021
      3017      3015      3018      3019      3017      3015      3018      3020
      3017      3015      3018      3021      3018      3021      3024      3025
      3018      3021      3024      3026      3018      3021      3024      3027
      3019      3018      3021      3022      3019      3018      3021      3023
      3019      3018      3021      3024      3020      3018      3021      3022
      3020      3018      3021      3023      3020      3018      3021      3024
      3021      3024      3027      3028      3021      3024      3027      3029
      3022      3021      3024      3025      3022      3021      3024      3026
      3022      3021      3024      3027      3023      3021      3024      3025
      3023      3021      3024      3026      3023      3021      3024      3027
      3024      3027      3029      3030      3024      3027      3029      3031
      3025      3024      3027      3028      3025      3024      3027      3029
      3026      3024      3027      3028      3026      3024      3027      3029
      3027      3029      3031      3032      3027      3029      3031      3033
      3027      3029      3031      3034      3028      3027      3029      3030
      3028      3027      3029      3031      3029      3031      3034      3035
      3029      3031      3034      3036      3029      3031      3034      3037
      3030      3029      3031      3032      3030      3029      3031      3033
      3030      3029      3031      3034      3031      3034      3037      3038
      3031      3034      3037      3039      3031      3034      3037      3040
      3032      3031      3034      3035      3032      3031      3034      3036
      3032      3031      3034      3037      3033      3031      3034      3035
      3033      3031      3034      3036      3033      3031      3034      3037
      3034      3037      3040      3041      3034      3037      3040      3042
      3034      3037      3040      3043      3035      3034      3037      3038
      3035      3034      3037      3039      3035      3034      3037      3040
      3036      3034      3037      3038      3036      3034      3037      3039
      3036      3034      3037      3040      3037      3040      3043      3044
      3037      3040      3043      3045      3037      3040      3043      3046
      3038      3037      3040      3041      3038      3037      3040      3042
      3038      3037      3040      3043      3039      3037      3040      3041
      3039      3037      3040      3042      3039      3037      3040      3043
      3040      3043      3046      3047      3040      3043      3046      3048
      3040      3043      3046      3049      3041      3040      3043      3044
      3041      3040      3043      3045      3041      3040      3043      3046
      3042      3040      3043      3044      3042      3040      3043      3045
      3042      3040      3043      3046      3043      3046      3049      3050
      3043      3046      3049      3051      3043      3046      3049      3052
      3044      3043      3046      3047      3044      3043      3046      3048
      3044      3043      3046      3049      3045      3043      3046      3047
      3045      3043      3046      3048      3045      3043      3046      3049
      3046      3049      3052      3053      3046      3049      3052      3054
      3046      3049      3052      3055      3047      3046      3049      3050
      3047      3046      3049      3051      3047      3046      3049      3052
      3048      3046      3049      3050      3048      3046      3049      3051
      3048      3046      3049      3052      3050      3049      3052      3053
      3050      3049      3052      3054      3050      3049      3052      3055
      3051      3049      3052      3053      3051      3049      3052      3054
      3051      3049      3052      3055      3056      3059      3062      3063
      3056      3059      3062      3064      3056      3059      3062      3065
      3057      3056      3059      3060      3057      3056      3059      3061
      3057      3056      3059      3062      3058      3056      3059      3060
      3058      3056      3059      3061      3058      3056      3059      3062
      3059      3062      3065      3066      3059      3062      3065      3067
      3059      3062      3065      3068      3060      3059      3062      3063
      3060      3059      3062      3064      3060      3059      3062      3065
      3061      3059      3062      3063      3061      3059      3062      3064
      3061      3059      3062      3065      3062      3065      3068      3069
      3062      3065      3068      3070      3062      3065      3068      3071
      3063      3062      3065      3066      3063      3062      3065      3067
      3063      3062      3065      3068      3064      3062      3065      3066
      3064      3062      3065      3067      3064      3062      3065      3068
      3065      3068      3071      3072      3065      3068      3071      3073
      3065      3068      3071      3074      3066      3065      3068      3069
      3066      3065      3068      3070      3066      3065      3068      3071
      3067      3065      3068      3069      3067      3065      3068      3070
      3067      3065      3068      3071      3068      3071      3074      3075
      3068      3071      3074      3076      3068      3071      3074      3077
      3069      3068      3071      3072      3069      3068      3071      3073
      3069      3068      3071      3074      3070      3068      3071      3072
      3070      3068      3071      3073      3070      3068      3071      3074
      3071      3074      3077      3078      3071      3074      3077      3079
      3071      3074      3077      3080      3072      3071      3074      3075
      3072      3071      3074      3076      3072      3071      3074      3077
      3073      3071      3074      3075      3073      3071      3074      3076
      3073      3071      3074      3077      3074      3077      3080      3081
      3074      3077      3080      3082      3074      3077      3080      3083
      3075      3074      3077      3078      3075      3074      3077      3079
      3075      3074      3077      3080      3076      3074      3077      3078
      3076      3074      3077      3079      3076      3074      3077      3080
      3077      3080      3083      3084      3077      3080      3083      3085
      3077      3080      3083      3086      3078      3077      3080      3081
      3078      3077      3080      3082      3078      3077      3080      3083
      3079      3077      3080      3081      3079      3077      3080      3082
      3079      3077      3080      3083      3080      3083      3086      3087
      3080      3083      3086      3088      3080      3083      3086      3089
      3081      3080      3083      3084      3081      3080      3083      3085
      3081      3080      3083      3086      3082      3080      3083      3084
      3082      3080      3083      3085      3082      3080      3083      3086
      3083      3086      3089      3090      3083      3086      3089      3091
      3083      3086      3089      3092      3084      3083      3086      3087
      3084      3083      3086      3088      3084      3083      3086      3089
      3085      3083      3086      3087      3085      3083      3086      3088
      3085      3083      3086      3089      3086      3089      3092      3093
      3086      3089      3092      3094      3086      3089      3092      3095
      3087      3086      3089      3090      3087      3086      3089      3091
      3087      3086      3089      3092      3088      3086      3089      3090
      3088      3086      3089      3091      3088      3086      3089      3092
      3089      3092      3095      3096      3089      3092      3095      3097
      3089      3092      3095      3098      3090      3089      3092      3093
      3090      3089      3092      3094      3090      3089      3092      3095
      3091      3089      3092      3093      3091      3089      3092      3094
      3091      3089      3092      3095      3093      3092      3095      3096
      3093      3092      3095      3097      3093      3092      3095      3098
      3094      3092      3095      3096      3094      3092      3095      3097
      3094      3092      3095      3098      3099      3100      3115      3116
      3099      3100      3115      3117      3099      3100      3115      3121
      3100      3099      3103      3104      3100      3099      3103      3105
      3100      3099      3103      3106      3100      3099      3107      3108
      3100      3099      3107      3109      3100      3099      3107      3110
      3100      3099      3111      3112      3100      3099      3111      3113
      3100      3099      3111      3114      3100      3115      3121      3118
      3101      3100      3099      3103      3101      3100      3099      3107
      3101      3100      3099      3111      3101      3100      3115      3116
      3101      3100      3115      3117      3101      3100      3115      3121
      3102      3100      3099      3103      3102      3100      3099      3107
      3102      3100      3099      3111      3102      3100      3115      3116
      3102      3100      3115      3117      3102      3100      3115      3121
      3103      3099      3100      3115      3103      3099      3107      3108
      3103      3099      3107      3109      3103      3099      3107      3110
      3103      3099      3111      3112      3103      3099      3111      3113
      3103      3099      3111      3114      3104      3103      3099      3107
      3104      3103      3099      3111      3105      3103      3099      3107
      3105      3103      3099      3111      3106      3103      3099      3107
      3106      3103      3099      3111      3107      3099      3100      3115
      3107      3099      3111      3112      3107      3099      3111      3113
      3107      3099      3111      3114      3108      3107      3099      3111
      3109      3107      3099      3111      3110      3107      3099      3111
      3111      3099      3100      3115      3115      3121      3118      3119
      3115      3121      3118      3120      3115      3121      3118      3122
      3116      3115      3121      3118      3117      3115      3121      3118
      3118      3122      3123      3124      3118      3122      3123      3125
      3118      3122      3123      3126      3119      3118      3122      3123
      3120      3118      3122      3123      3121      3118      3122      3123
      3122      3123      3126      3127      3122      3123      3126      3128
      3122      3123      3126      3134      3123      3126      3128      3129
      3123      3126      3134      3135      3123      3126      3134      3136
      3123      3126      3134      3137      3124      3123      3126      3127
      3124      3123      3126      3128      3124      3123      3126      3134
      3125      3123      3126      3127      3125      3123      3126      3128
      3125      3123      3126      3134      3126      3128      3129      3130
      3126      3128      3129      3131      3126      3134      3137      3138
      3127      3126      3128      3129      3127      3126      3134      3135
      3127      3126      3134      3136      3127      3126      3134      3137
      3128      3126      3134      3135      3128      3126      3134      3136
      3128      3126      3134      3137      3128      3129      3131      3132
      3128      3129      3131      3133      3128      3129      3131      3143
      3129      3128      3126      3134      3129      3131      3143      3144
      3129      3131      3143      3145      3129      3131      3143      3146
      3130      3129      3131      3132      3130      3129      3131      3133
      3130      3129      3131      3143      3131      3143      3146      3147
      3131      3143      3146      3148      3131      3143      3146      3149
      3132      3131      3143      3144      3132      3131      3143      3145
      3132      3131      3143      3146      3133      3131      3143      3144
      3133      3131      3143      3145      3133      3131      3143      3146
      3134      3137      3138      3139      3134      3137      3138      3140
      3135      3134      3137      3138      3136      3134      3137      3138
      3137      3138      3140      3141      3137      3138      3140      3142
      3137      3138      3140      3190      3138      3140      3190      3191
      3138      3140      3190      3192      3138      3140      3190      3193
      3139      3138      3140      3141      3139      3138      3140      3142
      3139      3138      3140      3190      3140      3190      3193      3194
      3140      3190      3193      3195      3140      3190      3193      3196
      3141      3140      3190      3191      3141      3140      3190      3192
      3141      3140      3190      3193      3142      3140      3190      3191
      3142      3140      3190      3192      3142      3140      3190      3193
      3143      3146      3149      3150      3143      3146      3149      3151
      3143      3146      3149      3152      3144      3143      3146      3147
      3144      3143      3146      3148      3144      3143      3146      3149
      3145      3143      3146      3147      3145      3143      3146      3148
      3145      3143      3146      3149      3146      3149      3152      3153
      3146      3149      3152      3154      3146      3149      3152      3155
      3147      3146      3149      3150      3147      3146      3149      3151
      3147      3146      3149      3152      3148      3146      3149      3150
      3148      3146      3149      3151      3148      3146      3149      3152
      3149      3152      3155      3156      3149      3152      3155      3157
      3149      3152      3155      3158      3150      3149      3152      3153
      3150      3149      3152      3154      3150      3149      3152      3155
      3151      3149      3152      3153      3151      3149      3152      3154
      3151      3149      3152      3155      3152      3155      3158      3159
      3152      3155      3158      3160      3152      3155      3158      3161
      3153      3152      3155      3156      3153      3152      3155      3157
      3153      3152      3155      3158      3154      3152      3155      3156
      3154      3152      3155      3157      3154      3152      3155      3158
      3155      3158      3161      3162      3155      3158      3161      3163
      3156      3155      3158      3159      3156      3155      3158      3160
      3156      3155      3158      3161      3157      3155      3158      3159
      3157      3155      3158      3160      3157      3155      3158      3161
      3158      3161      3163      3164      3158      3161      3163      3165
      3159      3158      3161      3162      3159      3158      3161      3163
      3160      3158      3161      3162      3160      3158      3161      3163
      3161      3163      3165      3166      3161      3163      3165      3167
      3161      3163      3165      3168      3162      3161      3163      3164
      3162      3161      3163      3165      3163      3165      3168      3169
      3163      3165      3168      3170      3163      3165      3168      3171
      3164      3163      3165      3166      3164      3163      3165      3167
      3164      3163      3165      3168      3165      3168      3171      3172
      3165      3168      3171      3173      3165      3168      3171      3174
      3166      3165      3168      3169      3166      3165      3168      3170
      3166      3165      3168      3171      3167      3165      3168      3169
      3167      3165      3168      3170      3167      3165      3168      3171
      3168      3171      3174      3175      3168      3171      3174      3176
      3168      3171      3174      3177      3169      3168      3171      3172
      3169      3168      3171      3173      3169      3168      3171      3174
      3170      3168      3171      3172      3170      3168      3171      3173
      3170      3168      3171      3174      3171      3174      3177      3178
      3171      3174      3177      3179      3171      3174      3177      3180
      3172      3171      3174      3175      3172      3171      3174      3176
      3172      3171      3174      3177      3173      3171      3174      3175
      3173      3171      3174      3176      3173      3171      3174      3177
      3174      3177      3180      3181      3174      3177      3180      3182
      3174      3177      3180      3183      3175      3174      3177      3178
      3175      3174      3177      3179      3175      3174      3177      3180
      3176      3174      3177      3178      3176      3174      3177      3179
      3176      3174      3177      3180      3177      3180      3183      3184
      3177      3180      3183      3185      3177      3180      3183      3186
      3178      3177      3180      3181      3178      3177      3180      3182
      3178      3177      3180      3183      3179      3177      3180      3181
      3179      3177      3180      3182      3179      3177      3180      3183
      3180      3183      3186      3187      3180      3183      3186      3188
      3180      3183      3186      3189      3181      3180      3183      3184
      3181      3180      3183      3185      3181      3180      3183      3186
      3182      3180      3183      3184      3182      3180      3183      3185
      3182      3180      3183      3186      3184      3183      3186      3187
      3184      3183      3186      3188      3184      3183      3186      3189
      3185      3183      3186      3187      3185      3183      3186      3188
      3185      3183      3186      3189      3190      3193      3196      3197
      3190      3193      3196      3198      3190      3193      3196      3199
      3191      3190      3193      3194      3191      3190      3193      3195
      3191      3190      3193      3196      3192      3190      3193      3194
      3192      3190      3193      3195      3192      3190      3193      3196
      3193      3196      3199      3200      3193      3196      3199      3201
      3193      3196      3199      3202      3194      3193      3196      3197
      3194      3193      3196      3198      3194      3193      3196      3199
      3195      3193      3196      3197      3195      3193      3196      3198
      3195      3193      3196      3199      3196      3199      3202      3203
      3196      3199      3202      3204      3196      3199      3202      3205
      3197      3196      3199      3200      3197      3196      3199      3201
      3197      3196      3199      3202      3198      3196      3199      3200
      3198      3196      3199      3201      3198      3196      3199      3202
      3199      3202      3205      3206      3199      3202      3205      3207
      3199      3202      3205      3208      3200      3199      3202      3203
      3200      3199      3202      3204      3200      3199      3202      3205
      3201      3199      3202      3203      3201      3199      3202      3204
      3201      3199      3202      3205      3202      3205      3208      3209
      3202      3205      3208      3210      3202      3205      3208      3211
      3203      3202      3205      3206      3203      3202      3205      3207
      3203      3202      3205      3208      3204      3202      3205      3206
      3204      3202      3205      3207      3204      3202      3205      3208
      3205      3208      3211      3212      3205      3208      3211      3213
      3205      3208      3211      3214      3206      3205      3208      3209
      3206      3205      3208      3210      3206      3205      3208      3211
      3207      3205      3208      3209      3207      3205      3208      3210
      3207      3205      3208      3211      3208      3211      3214      3215
      3208      3211      3214      3216      3208      3211      3214      3217
      3209      3208      3211      3212      3209      3208      3211      3213
      3209      3208      3211      3214      3210      3208      3211      3212
      3210      3208      3211      3213      3210      3208      3211      3214
      3211      3214      3217      3218      3211      3214      3217      3219
      3211      3214      3217      3220      3212      3211      3214      3215
      3212      3211      3214      3216      3212      3211      3214      3217
      3213      3211      3214      3215      3213      3211      3214      3216
      3213      3211      3214      3217      3214      3217      3220      3221
      3214      3217      3220      3222      3214      3217      3220      3223
      3215      3214      3217      3218      3215      3214      3217      3219
      3215      3214      3217      3220      3216      3214      3217      3218
      3216      3214      3217      3219      3216      3214      3217      3220
      3217      3220      3223      3224      3217      3220      3223      3225
      3217      3220      3223      3226      3218      3217      3220      3221
      3218      3217      3220      3222      3218      3217      3220      3223
      3219      3217      3220      3221      3219      3217      3220      3222
      3219      3217      3220      3223      3220      3223      3226      3227
      3220      3223      3226      3228      3220      3223      3226      3229
      3221      3220      3223      3224      3221      3220      3223      3225
      3221      3220      3223      3226      3222      3220      3223      3224
      3222      3220      3223      3225      3222      3220      3223      3226
      3223      3226      3229      3230      3223      3226      3229      3231
      3223      3226      3229      3232      3224      3223      3226      3227
      3224      3223      3226      3228      3224      3223      3226      3229
      3225      3223      3226      3227      3225      3223      3226      3228
      3225      3223      3226      3229      3227      3226      3229      3230
      3227      3226      3229      3231      3227      3226      3229      3232
      3228      3226      3229      3230      3228      3226      3229      3231
      3228      3226      3229      3232      3233      3234      3249      3250
      3233      3234      3249      3251      3233      3234      3249      3255
      3234      3233      3237      3238      3234      3233      3237      3239
      3234      3233      3237      3240      3234      3233      3241      3242
      3234      3233      3241      3243      3234      3233      3241      3244
      3234      3233      3245      3246      3234      3233      3245      3247
      3234      3233      3245      3248      3234      3249      3255      3252
      3235      3234      3233      3237      3235      3234      3233      3241
      3235      3234      3233      3245      3235      3234      3249      3250
      3235      3234      3249      3251      3235      3234      3249      3255
      3236      3234      3233      3237      3236      3234      3233      3241
      3236      3234      3233      3245      3236      3234      3249      3250
      3236      3234      3249      3251      3236      3234      3249      3255
      3237      3233      3234      3249      3237      3233      3241      3242
      3237      3233      3241      3243      3237      3233      3241      3244
      3237      3233      3245      3246      3237      3233      3245      3247
      3237      3233      3245      3248      3238      3237      3233      3241
      3238      3237      3233      3245      3239      3237      3233      3241
      3239      3237      3233      3245      3240      3237      3233      3241
      3240      3237      3233      3245      3241      3233      3234      3249
      3241      3233      3245      3246      3241      3233      3245      3247
      3241      3233      3245      3248      3242      3241      3233      3245
      3243      3241      3233      3245      3244      3241      3233      3245
      3245      3233      3234      3249      3249      3255      3252      3253
      3249      3255      3252      3254      3249      3255      3252      3256
      3250      3249      3255      3252      3251      3249      3255      3252
      3252      3256      3257      3258      3252      3256      3257      3259
      3252      3256      3257      3260      3253      3252      3256      3257
      3254      3252      3256      3257      3255      3252      3256      3257
      3256      3257      3260      3261      3256      3257      3260      3262
      3256      3257      3260      3268      3257      3260      3262      3263
      3257      3260      3268      3269      3257      3260      3268      3270
      3257      3260      3268      3271      3258      3257      3260      3261
      3258      3257      3260      3262      3258      3257      3260      3268
      3259      3257      3260      3261      3259      3257      3260      3262
      3259      3257      3260      3268      3260      3262      3263      3264
      3260      3262      3263      3265      3260      3268      3271      3272
      3261      3260      3262      3263      3261      3260      3268      3269
      3261      3260      3268      3270      3261      3260      3268      3271
      3262      3260      3268      3269      3262      3260      3268      3270
      3262      3260      3268      3271      3262      3263      3265      3266
      3262      3263      3265      3267      3262      3263      3265      3277
      3263      3262      3260      3268      3263      3265      3277      3278
      3263      3265      3277      3279      3263      3265      3277      3280
      3264      3263      3265      3266      3264      3263      3265      3267
      3264      3263      3265      3277      3265      3277      3280      3281
      3265      3277      3280      3282      3265      3277      3280      3283
      3266      3265      3277      3278      3266      3265      3277      3279
      3266      3265      3277      3280      3267      3265      3277      3278
      3267      3265      3277      3279      3267      3265      3277      3280
      3268      3271      3272      3273      3268      3271      3272      3274
      3269      3268      3271      3272      3270      3268      3271      3272
      3271      3272      3274      3275      3271      3272      3274      3276
      3271      3272      3274      3324      3272      3274      3324      3325
      3272      3274      3324      3326      3272      3274      3324      3327
      3273      3272      3274      3275      3273      3272      3274      3276
      3273      3272      3274      3324      3274      3324      3327      3328
      3274      3324      3327      3329      3274      3324      3327      3330
      3275      3274      3324      3325      3275      3274      3324      3326
      3275      3274      3324      3327      3276      3274      3324      3325
      3276      3274      3324      3326      3276      3274      3324      3327
      3277      3280      3283      3284      3277      3280      3283      3285
      3277      3280      3283      3286      3278      3277      3280      3281
      3278      3277      3280      3282      3278      3277      3280      3283
      3279      3277      3280      3281      3279      3277      3280      3282
      3279      3277      3280      3283      3280      3283      3286      3287
      3280      3283      3286      3288      3280      3283      3286      3289
      3281      3280      3283      3284      3281      3280      3283      3285
      3281      3280      3283      3286      3282      3280      3283      3284
      3282      3280      3283      3285      3282      3280      3283      3286
      3283      3286      3289      3290      3283      3286      3289      3291
      3283      3286      3289      3292      3284      3283      3286      3287
      3284      3283      3286      3288      3284      3283      3286      3289
      3285      3283      3286      3287      3285      3283      3286      3288
      3285      3283      3286      3289      3286      3289      3292      3293
      3286      3289      3292      3294      3286      3289      3292      3295
      3287      3286      3289      3290      3287      3286      3289      3291
      3287      3286      3289      3292      3288      3286      3289      3290
      3288      3286      3289      3291      3288      3286      3289      3292
      3289      3292      3295      3296      3289      3292      3295      3297
      3290      3289      3292      3293      3290      3289      3292      3294
      3290      3289      3292      3295      3291      3289      3292      3293
      3291      3289      3292      3294      3291      3289      3292      3295
      3292      3295      3297      3298      3292      3295      3297      3299
      3293      3292      3295      3296      3293      3292      3295      3297
      3294      3292      3295      3296      3294      3292      3295      3297
      3295      3297      3299      3300      3295      3297      3299      3301
      3295      3297      3299      3302      3296      3295      3297      3298
      3296      3295      3297      3299      3297      3299      3302      3303
      3297      3299      3302      3304      3297      3299      3302      3305
      3298      3297      3299      3300      3298      3297      3299      3301
      3298      3297      3299      3302      3299      3302      3305      3306
      3299      3302      3305      3307      3299      3302      3305      3308
      3300      3299      3302      3303      3300      3299      3302      3304
      3300      3299      3302      3305      3301      3299      3302      3303
      3301      3299      3302      3304      3301      3299      3302      3305
      3302      3305      3308      3309      3302      3305      3308      3310
      3302      3305      3308      3311      3303      3302      3305      3306
      3303      3302      3305      3307      3303      3302      3305      3308
      3304      3302      3305      3306      3304      3302      3305      3307
      3304      3302      3305      3308      3305      3308      3311      3312
      3305      3308      3311      3313      3305      3308      3311      3314
      3306      3305      3308      3309      3306      3305      3308      3310
      3306      3305      3308      3311      3307      3305      3308      3309
      3307      3305      3308      3310      3307      3305      3308      3311
      3308      3311      3314      3315      3308      3311      3314      3316
      3308      3311      3314      3317      3309      3308      3311      3312
      3309      3308      3311      3313      3309      3308      3311      3314
      3310      3308      3311      3312      3310      3308      3311      3313
      3310      3308      3311      3314      3311      3314      3317      3318
      3311      3314      3317      3319      3311      3314      3317      3320
      3312      3311      3314      3315      3312      3311      3314      3316
      3312      3311      3314      3317      3313      3311      3314      3315
      3313      3311      3314      3316      3313      3311      3314      3317
      3314      3317      3320      3321      3314      3317      3320      3322
      3314      3317      3320      3323      3315      3314      3317      3318
      3315      3314      3317      3319      3315      3314      3317      3320
      3316      3314      3317      3318      3316      3314      3317      3319
      3316      3314      3317      3320      3318      3317      3320      3321
      3318      3317      3320      3322      3318      3317      3320      3323
      3319      3317      3320      3321      3319      3317      3320      3322
      3319      3317      3320      3323      3324      3327      3330      3331
      3324      3327      3330      3332      3324      3327      3330      3333
      3325      3324      3327      3328      3325      3324      3327      3329
      3325      3324      3327      3330      3326      3324      3327      3328
      3326      3324      3327      3329      3326      3324      3327      3330
      3327      3330      3333      3334      3327      3330      3333      3335
      3327      3330      3333      3336      3328      3327      3330      3331
      3328      3327      3330      3332      3328      3327      3330      3333
      3329      3327      3330      3331      3329      3327      3330      3332
      3329      3327      3330      3333      3330      3333      3336      3337
      3330      3333      3336      3338      3330      3333      3336      3339
      3331      3330      3333      3334      3331      3330      3333      3335
      3331      3330      3333      3336      3332      3330      3333      3334
      3332      3330      3333      3335      3332      3330      3333      3336
      3333      3336      3339      3340      3333      3336      3339      3341
      3333      3336      3339      3342      3334      3333      3336      3337
      3334      3333      3336      3338      3334      3333      3336      3339
      3335      3333      3336      3337      3335      3333      3336      3338
      3335      3333      3336      3339      3336      3339      3342      3343
      3336      3339      3342      3344      3336      3339      3342      3345
      3337      3336      3339      3340      3337      3336      3339      3341
      3337      3336      3339      3342      3338      3336      3339      3340
      3338      3336      3339      3341      3338      3336      3339      3342
      3339      3342      3345      3346      3339      3342      3345      3347
      3339      3342      3345      3348      3340      3339      3342      3343
      3340      3339      3342      3344      3340      3339      3342      3345
      3341      3339      3342      3343      3341      3339      3342      3344
      3341      3339      3342      3345      3342      3345      3348      3349
      3342      3345      3348      3350      3342      3345      3348      3351
      3343      3342      3345      3346      3343      3342      3345      3347
      3343      3342      3345      3348      3344      3342      3345      3346
      3344      3342      3345      3347      3344      3342      3345      3348
      3345      3348      3351      3352      3345      3348      3351      3353
      3345      3348      3351      3354      3346      3345      3348      3349
      3346      3345      3348      3350      3346      3345      3348      3351
      3347      3345      3348      3349      3347      3345      3348      3350
      3347      3345      3348      3351      3348      3351      3354      3355
      3348      3351      3354      3356      3348      3351      3354      3357
      3349      3348      3351      3352      3349      3348      3351      3353
      3349      3348      3351      3354      3350      3348      3351      3352
      3350      3348      3351      3353      3350      3348      3351      3354
      3351      3354      3357      3358      3351      3354      3357      3359
      3351      3354      3357      3360      3352      3351      3354      3355
      3352      3351      3354      3356      3352      3351      3354      3357
      3353      3351      3354      3355      3353      3351      3354      3356
      3353      3351      3354      3357      3354      3357      3360      3361
      3354      3357      3360      3362      3354      3357      3360      3363
      3355      3354      3357      3358      3355      3354      3357      3359
      3355      3354      3357      3360      3356      3354      3357      3358
      3356      3354      3357      3359      3356      3354      3357      3360
      3357      3360      3363      3364      3357      3360      3363      3365
      3357      3360      3363      3366      3358      3357      3360      3361
      3358      3357      3360      3362      3358      3357      3360      3363
      3359      3357      3360      3361      3359      3357      3360      3362
      3359      3357      3360      3363      3361      3360      3363      3364
      3361      3360      3363      3365      3361      3360      3363      3366
      3362      3360      3363      3364      3362      3360      3363      3365
      3362      3360      3363      3366      3367      3368      3383      3384
      3367      3368      3383      3385      3367      3368      3383      3389
      3368      3367      3371      3372      3368      3367      3371      3373
      3368      3367      3371      3374      3368      3367      3375      3376
      3368      3367      3375      3377      3368      3367      3375      3378
      3368      3367      3379      3380      3368      3367      3379      3381
      3368      3367      3379      3382      3368      3383      3389      3386
      3369      3368      3367      3371      3369      3368      3367      3375
      3369      3368      3367      3379      3369      3368      3383      3384
      3369      3368      3383      3385      3369      3368      3383      3389
      3370      3368      3367      3371      3370      3368      3367      3375
      3370      3368      3367      3379      3370      3368      3383      3384
      3370      3368      3383      3385      3370      3368      3383      3389
      3371      3367      3368      3383      3371      3367      3375      3376
      3371      3367      3375      3377      3371      3367      3375      3378
      3371      3367      3379      3380      3371      3367      3379      3381
      3371      3367      3379      3382      3372      3371      3367      3375
      3372      3371      3367      3379      3373      3371      3367      3375
      3373      3371      3367      3379      3374      3371      3367      3375
      3374      3371      3367      3379      3375      3367      3368      3383
      3375      3367      3379      3380      3375      3367      3379      3381
      3375      3367      3379      3382      3376      3375      3367      3379
      3377      3375      3367      3379      3378      3375      3367      3379
      3379      3367      3368      3383      3383      3389      3386      3387
      3383      3389      3386      3388      3383      3389      3386      3390
      3384      3383      3389      3386      3385      3383      3389      3386
      3386      3390      3391      3392      3386      3390      3391      3393
      3386      3390      3391      3394      3387      3386      3390      3391
      3388      3386      3390      3391      3389      3386      3390      3391
      3390      3391      3394      3395      3390      3391      3394      3396
      3390      3391      3394      3402      3391      3394      3396      3397
      3391      3394      3402      3403      3391      3394      3402      3404
      3391      3394      3402      3405      3392      3391      3394      3395
      3392      3391      3394      3396      3392      3391      3394      3402
      3393      3391      3394      3395      3393      3391      3394      3396
      3393      3391      3394      3402      3394      3396      3397      3398
      3394      3396      3397      3399      3394      3402      3405      3406
      3395      3394      3396      3397      3395      3394      3402      3403
      3395      3394      3402      3404      3395      3394      3402      3405
      3396      3394      3402      3403      3396      3394      3402      3404
      3396      3394      3402      3405      3396      3397      3399      3400
      3396      3397      3399      3401      3396      3397      3399      3411
      3397      3396      3394      3402      3397      3399      3411      3412
      3397      3399      3411      3413      3397      3399      3411      3414
      3398      3397      3399      3400      3398      3397      3399      3401
      3398      3397      3399      3411      3399      3411      3414      3415
      3399      3411      3414      3416      3399      3411      3414      3417
      3400      3399      3411      3412      3400      3399      3411      3413
      3400      3399      3411      3414      3401      3399      3411      3412
      3401      3399      3411      3413      3401      3399      3411      3414
      3402      3405      3406      3407      3402      3405      3406      3408
      3403      3402      3405      3406      3404      3402      3405      3406
      3405      3406      3408      3409      3405      3406      3408      3410
      3405      3406      3408      3458      3406      3408      3458      3459
      3406      3408      3458      3460      3406      3408      3458      3461
      3407      3406      3408      3409      3407      3406      3408      3410
      3407      3406      3408      3458      3408      3458      3461      3462
      3408      3458      3461      3463      3408      3458      3461      3464
      3409      3408      3458      3459      3409      3408      3458      3460
      3409      3408      3458      3461      3410      3408      3458      3459
      3410      3408      3458      3460      3410      3408      3458      3461
      3411      3414      3417      3418      3411      3414      3417      3419
      3411      3414      3417      3420      3412      3411      3414      3415
      3412      3411      3414      3416      3412      3411      3414      3417
      3413      3411      3414      3415      3413      3411      3414      3416
      3413      3411      3414      3417      3414      3417      3420      3421
      3414      3417      3420      3422      3414      3417      3420      3423
      3415      3414      3417      3418      3415      3414      3417      3419
      3415      3414      3417      3420      3416      3414      3417      3418
      3416      3414      3417      3419      3416      3414      3417      3420
      3417      3420      3423      3424      3417      3420      3423      3425
      3417      3420      3423      3426      3418      3417      3420      3421
      3418      3417      3420      3422      3418      3417      3420      3423
      3419      3417      3420      3421      3419      3417      3420      3422
      3419      3417      3420      3423      3420      3423      3426      3427
      3420      3423      3426      3428      3420      3423      3426      3429
      3421      3420      3423      3424      3421      3420      3423      3425
      3421      3420      3423      3426      3422      3420      3423      3424
      3422      3420      3423      3425      3422      3420      3423      3426
      3423      3426      3429      3430      3423      3426      3429      3431
      3424      3423      3426      3427      3424      3423      3426      3428
      3424      3423      3426      3429      3425      3423      3426      3427
      3425      3423      3426      3428      3425      3423      3426      3429
      3426      3429      3431      3432      3426      3429      3431      3433
      3427      3426      3429      3430      3427      3426      3429      3431
      3428      3426      3429      3430      3428      3426      3429      3431
      3429      3431      3433      3434      3429      3431      3433      3435
      3429      3431      3433      3436      3430      3429      3431      3432
      3430      3429      3431      3433      3431      3433      3436      3437
      3431      3433      3436      3438      3431      3433      3436      3439
      3432      3431      3433      3434      3432      3431      3433      3435
      3432      3431      3433      3436      3433      3436      3439      3440
      3433      3436      3439      3441      3433      3436      3439      3442
      3434      3433      3436      3437      3434      3433      3436      3438
      3434      3433      3436      3439      3435      3433      3436      3437
      3435      3433      3436      3438      3435      3433      3436      3439
      3436      3439      3442      3443      3436      3439      3442      3444
      3436      3439      3442      3445      3437      3436      3439      3440
      3437      3436      3439      3441      3437      3436      3439      3442
      3438      3436      3439      3440      3438      3436      3439      3441
      3438      3436      3439      3442      3439      3442      3445      3446
      3439      3442      3445      3447      3439      3442      3445      3448
      3440      3439      3442      3443      3440      3439      3442      3444
      3440      3439      3442      3445      3441      3439      3442      3443
      3441      3439      3442      3444      3441      3439      3442      3445
      3442      3445      3448      3449      3442      3445      3448      3450
      3442      3445      3448      3451      3443      3442      3445      3446
      3443      3442      3445      3447      3443      3442      3445      3448
      3444      3442      3445      3446      3444      3442      3445      3447
      3444      3442      3445      3448      3445      3448      3451      3452
      3445      3448      3451      3453      3445      3448      3451      3454
      3446      3445      3448      3449      3446      3445      3448      3450
      3446      3445      3448      3451      3447      3445      3448      3449
      3447      3445      3448      3450      3447      3445      3448      3451
      3448      3451      3454      3455      3448      3451      3454      3456
      3448      3451      3454      3457      3449      3448      3451      3452
      3449      3448      3451      3453      3449      3448      3451      3454
      3450      3448      3451      3452      3450      3448      3451      3453
      3450      3448      3451      3454      3452      3451      3454      3455
      3452      3451      3454      3456      3452      3451      3454      3457
      3453      3451      3454      3455      3453      3451      3454      3456
      3453      3451      3454      3457      3458      3461      3464      3465
      3458      3461      3464      3466      3458      3461      3464      3467
      3459      3458      3461      3462      3459      3458      3461      3463
      3459      3458      3461      3464      3460      3458      3461      3462
      3460      3458      3461      3463      3460      3458      3461      3464
      3461      3464      3467      3468      3461      3464      3467      3469
      3461      3464      3467      3470      3462      3461      3464      3465
      3462      3461      3464      3466      3462      3461      3464      3467
      3463      3461      3464      3465      3463      3461      3464      3466
      3463      3461      3464      3467      3464      3467      3470      3471
      3464      3467      3470      3472      3464      3467      3470      3473
      3465      3464      3467      3468      3465      3464      3467      3469
      3465      3464      3467      3470      3466      3464      3467      3468
      3466      3464      3467      3469      3466      3464      3467      3470
      3467      3470      3473      3474      3467      3470      3473      3475
      3467      3470      3473      3476      3468      3467      3470      3471
      3468      3467      3470      3472      3468      3467      3470      3473
      3469      3467      3470      3471      3469      3467      3470      3472
      3469      3467      3470      3473      3470      3473      3476      3477
      3470      3473      3476      3478      3470      3473      3476      3479
      3471      3470      3473      3474      3471      3470      3473      3475
      3471      3470      3473      3476      3472      3470      3473      3474
      3472      3470      3473      3475      3472      3470      3473      3476
      3473      3476      3479      3480      3473      3476      3479      3481
      3473      3476      3479      3482      3474      3473      3476      3477
      3474      3473      3476      3478      3474      3473      3476      3479
      3475      3473      3476      3477      3475      3473      3476      3478
      3475      3473      3476      3479      3476      3479      3482      3483
      3476      3479      3482      3484      3476      3479      3482      3485
      3477      3476      3479      3480      3477      3476      3479      3481
      3477      3476      3479      3482      3478      3476      3479      3480
      3478      3476      3479      3481      3478      3476      3479      3482
      3479      3482      3485      3486      3479      3482      3485      3487
      3479      3482      3485      3488      3480      3479      3482      3483
      3480      3479      3482      3484      3480      3479      3482      3485
      3481      3479      3482      3483      3481      3479      3482      3484
      3481      3479      3482      3485      3482      3485      3488      3489
      3482      3485      3488      3490      3482      3485      3488      3491
      3483      3482      3485      3486      3483      3482      3485      3487
      3483      3482      3485      3488      3484      3482      3485      3486
      3484      3482      3485      3487      3484      3482      3485      3488
      3485      3488      3491      3492      3485      3488      3491      3493
      3485      3488      3491      3494      3486      3485      3488      3489
      3486      3485      3488      3490      3486      3485      3488      3491
      3487      3485      3488      3489      3487      3485      3488      3490
      3487      3485      3488      3491      3488      3491      3494      3495
      3488      3491      3494      3496      3488      3491      3494      3497
      3489      3488      3491      3492      3489      3488      3491      3493
      3489      3488      3491      3494      3490      3488      3491      3492
      3490      3488      3491      3493      3490      3488      3491      3494
      3491      3494      3497      3498      3491      3494      3497      3499
      3491      3494      3497      3500      3492      3491      3494      3495
      3492      3491      3494      3496      3492      3491      3494      3497
      3493      3491      3494      3495      3493      3491      3494      3496
      3493      3491      3494      3497      3495      3494      3497      3498
      3495      3494      3497      3499      3495      3494      3497      3500
      3496      3494      3497      3498      3496      3494      3497      3499
      3496      3494      3497      3500      3501      3502      3517      3518
      3501      3502      3517      3519      3501      3502      3517      3523
      3502      3501      3505      3506      3502      3501      3505      3507
      3502      3501      3505      3508      3502      3501      3509      3510
      3502      3501      3509      3511      3502      3501      3509      3512
      3502      3501      3513      3514      3502      3501      3513      3515
      3502      3501      3513      3516      3502      3517      3523      3520
      3503      3502      3501      3505      3503      3502      3501      3509
      3503      3502      3501      3513      3503      3502      3517      3518
      3503      3502      3517      3519      3503      3502      3517      3523
      3504      3502      3501      3505      3504      3502      3501      3509
      3504      3502      3501      3513      3504      3502      3517      3518
      3504      3502      3517      3519      3504      3502      3517      3523
      3505      3501      3502      3517      3505      3501      3509      3510
      3505      3501      3509      3511      3505      3501      3509      3512
      3505      3501      3513      3514      3505      3501      3513      3515
      3505      3501      3513      3516      3506      3505      3501      3509
      3506      3505      3501      3513      3507      3505      3501      3509
      3507      3505      3501      3513      3508      3505      3501      3509
      3508      3505      3501      3513      3509      3501      3502      3517
      3509      3501      3513      3514      3509      3501      3513      3515
      3509      3501      3513      3516      3510      3509      3501      3513
      3511      3509      3501      3513      3512      3509      3501      3513
      3513      3501      3502      3517      3517      3523      3520      3521
      3517      3523      3520      3522      3517      3523      3520      3524
      3518      3517      3523      3520      3519      3517      3523      3520
      3520      3524      3525      3526      3520      3524      3525      3527
      3520      3524      3525      3528      3521      3520      3524      3525
      3522      3520      3524      3525      3523      3520      3524      3525
      3524      3525      3528      3529      3524      3525      3528      3530
      3524      3525      3528      3536      3525      3528      3530      3531
      3525      3528      3536      3537      3525      3528      3536      3538
      3525      3528      3536      3539      3526      3525      3528      3529
      3526      3525      3528      3530      3526      3525      3528      3536
      3527      3525      3528      3529      3527      3525      3528      3530
      3527      3525      3528      3536      3528      3530      3531      3532
      3528      3530      3531      3533      3528      3536      3539      3540
      3529      3528      3530      3531      3529      3528      3536      3537
      3529      3528      3536      3538      3529      3528      3536      3539
      3530      3528      3536      3537      3530      3528      3536      3538
      3530      3528      3536      3539      3530      3531      3533      3534
      3530      3531      3533      3535      3530      3531      3533      3545
      3531      3530      3528      3536      3531      3533      3545      3546
      3531      3533      3545      3547      3531      3533      3545      3548
      3532      3531      3533      3534      3532      3531      3533      3535
      3532      3531      3533      3545      3533      3545      3548      3549
      3533      3545      3548      3550      3533      3545      3548      3551
      3534      3533      3545      3546      3534      3533      3545      3547
      3534      3533      3545      3548      3535      3533      3545      3546
      3535      3533      3545      3547      3535      3533      3545      3548
      3536      3539      3540      3541      3536      3539      3540      3542
      3537      3536      3539      3540      3538      3536      3539      3540
      3539      3540      3542      3543      3539      3540      3542      3544
      3539      3540      3542      3592      3540      3542      3592      3593
      3540      3542      3592      3594      3540      3542      3592      3595
      3541      3540      3542      3543      3541      3540      3542      3544
      3541      3540      3542      3592      3542      3592      3595      3596
      3542      3592      3595      3597      3542      3592      3595      3598
      3543      3542      3592      3593      3543      3542      3592      3594
      3543      3542      3592      3595      3544      3542      3592      3593
      3544      3542      3592      3594      3544      3542      3592      3595
      3545      3548      3551      3552      3545      3548      3551      3553
      3545      3548      3551      3554      3546      3545      3548      3549
      3546      3545      3548      3550      3546      3545      3548      3551
      3547      3545      3548      3549      3547      3545      3548      3550
      3547      3545      3548      3551      3548      3551      3554      3555
      3548      3551      3554      3556      3548      3551      3554      3557
      3549      3548      3551      3552      3549      3548      3551      3553
      3549      3548      3551      3554      3550      3548      3551      3552
      3550      3548      3551      3553      3550      3548      3551      3554
      3551      3554      3557      3558      3551      3554      3557      3559
      3551      3554      3557      3560      3552      3551      3554      3555
      3552      3551      3554      3556      3552      3551      3554      3557
      3553      3551      3554      3555      3553      3551      3554      3556
      3553      3551      3554      3557      3554      3557      3560      3561
      3554      3557      3560      3562      3554      3557      3560      3563
      3555      3554      3557      3558      3555      3554      3557      3559
      3555      3554      3557      3560      3556      3554      3557      3558
      3556      3554      3557      3559      3556      3554      3557      3560
      3557      3560      3563      3564      3557      3560      3563      3565
      3558      3557      3560      3561      3558      3557      3560      3562
      3558      3557      3560      3563      3559      3557      3560      3561
      3559      3557      3560      3562      3559      3557      3560      3563
      3560      3563      3565      3566      3560      3563      3565      3567
      3561      3560      3563      3564      3561      3560      3563      3565
      3562      3560      3563      3564      3562      3560      3563      3565
      3563      3565      3567      3568      3563      3565      3567      3569
      3563      3565      3567      3570      3564      3563      3565      3566
      3564      3563      3565      3567      3565      3567      3570      3571
      3565      3567      3570      3572      3565      3567      3570      3573
      3566      3565      3567      3568      3566      3565      3567      3569
      3566      3565      3567      3570      3567      3570      3573      3574
      3567      3570      3573      3575      3567      3570      3573      3576
      3568      3567      3570      3571      3568      3567      3570      3572
      3568      3567      3570      3573      3569      3567      3570      3571
      3569      3567      3570      3572      3569      3567      3570      3573
      3570      3573      3576      3577      3570      3573      3576      3578
      3570      3573      3576      3579      3571      3570      3573      3574
      3571      3570      3573      3575      3571      3570      3573      3576
      3572      3570      3573      3574      3572      3570      3573      3575
      3572      3570      3573      3576      3573      3576      3579      3580
      3573      3576      3579      3581      3573      3576      3579      3582
      3574      3573      3576      3577      3574      3573      3576      3578
      3574      3573      3576      3579      3575      3573      3576      3577
      3575      3573      3576      3578      3575      3573      3576      3579
      3576      3579      3582      3583      3576      3579      3582      3584
      3576      3579      3582      3585      3577      3576      3579      3580
      3577      3576      3579      3581      3577      3576      3579      3582
      3578      3576      3579      3580      3578      3576      3579      3581
      3578      3576      3579      3582      3579      3582      3585      3586
      3579      3582      3585      3587      3579      3582      3585      3588
      3580      3579      3582      3583      3580      3579      3582      3584
      3580      3579      3582      3585      3581      3579      3582      3583
      3581      3579      3582      3584      3581      3579      3582      3585
      3582      3585      3588      3589      3582      3585      3588      3590
      3582      3585      3588      3591      3583      3582      3585      3586
      3583      3582      3585      3587      3583      3582      3585      3588
      3584      3582      3585      3586      3584      3582      3585      3587
      3584      3582      3585      3588      3586      3585      3588      3589
      3586      3585      3588      3590      3586      3585      3588      3591
      3587      3585      3588      3589      3587      3585      3588      3590
      3587      3585      3588      3591      3592      3595      3598      3599
      3592      3595      3598      3600      3592      3595      3598      3601
      3593      3592      3595      3596      3593      3592      3595      3597
      3593      3592      3595      3598      3594      3592      3595      3596
      3594      3592      3595      3597      3594      3592      3595      3598
      3595      3598      3601      3602      3595      3598      3601      3603
      3595      3598      3601      3604      3596      3595      3598      3599
      3596      3595      3598      3600      3596      3595      3598      3601
      3597      3595      3598      3599      3597      3595      3598      3600
      3597      3595      3598      3601      3598      3601      3604      3605
      3598      3601      3604      3606      3598      3601      3604      3607
      3599      3598      3601      3602      3599      3598      3601      3603
      3599      3598      3601      3604      3600      3598      3601      3602
      3600      3598      3601      3603      3600      3598      3601      3604
      3601      3604      3607      3608      3601      3604      3607      3609
      3601      3604      3607      3610      3602      3601      3604      3605
      3602      3601      3604      3606      3602      3601      3604      3607
      3603      3601      3604      3605      3603      3601      3604      3606
      3603      3601      3604      3607      3604      3607      3610      3611
      3604      3607      3610      3612      3604      3607      3610      3613
      3605      3604      3607      3608      3605      3604      3607      3609
      3605      3604      3607      3610      3606      3604      3607      3608
      3606      3604      3607      3609      3606      3604      3607      3610
      3607      3610      3613      3614      3607      3610      3613      3615
      3607      3610      3613      3616      3608      3607      3610      3611
      3608      3607      3610      3612      3608      3607      3610      3613
      3609      3607      3610      3611      3609      3607      3610      3612
      3609      3607      3610      3613      3610      3613      3616      3617
      3610      3613      3616      3618      3610      3613      3616      3619
      3611      3610      3613      3614      3611      3610      3613      3615
      3611      3610      3613      3616      3612      3610      3613      3614
      3612      3610      3613      3615      3612      3610      3613      3616
      3613      3616      3619      3620      3613      3616      3619      3621
      3613      3616      3619      3622      3614      3613      3616      3617
      3614      3613      3616      3618      3614      3613      3616      3619
      3615      3613      3616      3617      3615      3613      3616      3618
      3615      3613      3616      3619      3616      3619      3622      3623
      3616      3619      3622      3624      3616      3619      3622      3625
      3617      3616      3619      3620      3617      3616      3619      3621
      3617      3616      3619      3622      3618      3616      3619      3620
      3618      3616      3619      3621      3618      3616      3619      3622
      3619      3622      3625      3626      3619      3622      3625      3627
      3619      3622      3625      3628      3620      3619      3622      3623
      3620      3619      3622      3624      3620      3619      3622      3625
      3621      3619      3622      3623      3621      3619      3622      3624
      3621      3619      3622      3625      3622      3625      3628      3629
      3622      3625      3628      3630      3622      3625      3628      3631
      3623      3622      3625      3626      3623      3622      3625      3627
      3623      3622      3625      3628      3624      3622      3625      3626
      3624      3622      3625      3627      3624      3622      3625      3628
      3625      3628      3631      3632      3625      3628      3631      3633
      3625      3628      3631      3634      3626      3625      3628      3629
      3626      3625      3628      3630      3626      3625      3628      3631
      3627      3625      3628      3629      3627      3625      3628      3630
      3627      3625      3628      3631      3629      3628      3631      3632
      3629      3628      3631      3633      3629      3628      3631      3634
      3630      3628      3631      3632      3630      3628      3631      3633
      3630      3628      3631      3634      3635      3636      3651      3652
      3635      3636      3651      3653      3635      3636      3651      3657
      3636      3635      3639      3640      3636      3635      3639      3641
      3636      3635      3639      3642      3636      3635      3643      3644
      3636      3635      3643      3645      3636      3635      3643      3646
      3636      3635      3647      3648      3636      3635      3647      3649
      3636      3635      3647      3650      3636      3651      3657      3654
      3637      3636      3635      3639      3637      3636      3635      3643
      3637      3636      3635      3647      3637      3636      3651      3652
      3637      3636      3651      3653      3637      3636      3651      3657
      3638      3636      3635      3639      3638      3636      3635      3643
      3638      3636      3635      3647      3638      3636      3651      3652
      3638      3636      3651      3653      3638      3636      3651      3657
      3639      3635      3636      3651      3639      3635      3643      3644
      3639      3635      3643      3645      3639      3635      3643      3646
      3639      3635      3647      3648      3639      3635      3647      3649
      3639      3635      3647      3650      3640      3639      3635      3643
      3640      3639      3635      3647      3641      3639      3635      3643
      3641      3639      3635      3647      3642      3639      3635      3643
      3642      3639      3635      3647      3643      3635      3636      3651
      3643      3635      3647      3648      3643      3635      3647      3649
      3643      3635      3647      3650      3644      3643      3635      3647
      3645      3643      3635      3647      3646      3643      3635      3647
      3647      3635      3636      3651      3651      3657      3654      3655
      3651      3657      3654      3656      3651      3657      3654      3658
      3652      3651      3657      3654      3653      3651      3657      3654
      3654      3658      3659      3660      3654      3658      3659      3661
      3654      3658      3659      3662      3655      3654      3658      3659
      3656      3654      3658      3659      3657      3654      3658      3659
      3658      3659      3662      3663      3658      3659      3662      3664
      3658      3659      3662      3670      3659      3662      3664      3665
      3659      3662      3670      3671      3659      3662      3670      3672
      3659      3662      3670      3673      3660      3659      3662      3663
      3660      3659      3662      3664      3660      3659      3662      3670
      3661      3659      3662      3663      3661      3659      3662      3664
      3661      3659      3662      3670      3662      3664      3665      3666
      3662      3664      3665      3667      3662      3670      3673      3674
      3663      3662      3664      3665      3663      3662      3670      3671
      3663      3662      3670      3672      3663      3662      3670      3673
      3664      3662      3670      3671      3664      3662      3670      3672
      3664      3662      3670      3673      3664      3665      3667      3668
      3664      3665      3667      3669      3664      3665      3667      3679
      3665      3664      3662      3670      3665      3667      3679      3680
      3665      3667      3679      3681      3665      3667      3679      3682
      3666      3665      3667      3668      3666      3665      3667      3669
      3666      3665      3667      3679      3667      3679      3682      3683
      3667      3679      3682      3684      3667      3679      3682      3685
      3668      3667      3679      3680      3668      3667      3679      3681
      3668      3667      3679      3682      3669      3667      3679      3680
      3669      3667      3679      3681      3669      3667      3679      3682
      3670      3673      3674      3675      3670      3673      3674      3676
      3671      3670      3673      3674      3672      3670      3673      3674
      3673      3674      3676      3677      3673      3674      3676      3678
      3673      3674      3676      3726      3674      3676      3726      3727
      3674      3676      3726      3728      3674      3676      3726      3729
      3675      3674      3676      3677      3675      3674      3676      3678
      3675      3674      3676      3726      3676      3726      3729      3730
      3676      3726      3729      3731      3676      3726      3729      3732
      3677      3676      3726      3727      3677      3676      3726      3728
      3677      3676      3726      3729      3678      3676      3726      3727
      3678      3676      3726      3728      3678      3676      3726      3729
      3679      3682      3685      3686      3679      3682      3685      3687
      3679      3682      3685      3688      3680      3679      3682      3683
      3680      3679      3682      3684      3680      3679      3682      3685
      3681      3679      3682      3683      3681      3679      3682      3684
      3681      3679      3682      3685      3682      3685      3688      3689
      3682      3685      3688      3690      3682      3685      3688      3691
      3683      3682      3685      3686      3683      3682      3685      3687
      3683      3682      3685      3688      3684      3682      3685      3686
      3684      3682      3685      3687      3684      3682      3685      3688
      3685      3688      3691      3692      3685      3688      3691      3693
      3685      3688      3691      3694      3686      3685      3688      3689
      3686      3685      3688      3690      3686      3685      3688      3691
      3687      3685      3688      3689      3687      3685      3688      3690
      3687      3685      3688      3691      3688      3691      3694      3695
      3688      3691      3694      3696      3688      3691      3694      3697
      3689      3688      3691      3692      3689      3688      3691      3693
      3689      3688      3691      3694      3690      3688      3691      3692
      3690      3688      3691      3693      3690      3688      3691      3694
      3691      3694      3697      3698      3691      3694      3697      3699
      3692      3691      3694      3695      3692      3691      3694      3696
      3692      3691      3694      3697      3693      3691      3694      3695
      3693      3691      3694      3696      3693      3691      3694      3697
      3694      3697      3699      3700      3694      3697      3699      3701
      3695      3694      3697      3698      3695      3694      3697      3699
      3696      3694      3697      3698      3696      3694      3697      3699
      3697      3699      3701      3702      3697      3699      3701      3703
      3697      3699      3701      3704      3698      3697      3699      3700
      3698      3697      3699      3701      3699      3701      3704      3705
      3699      3701      3704      3706      3699      3701      3704      3707
      3700      3699      3701      3702      3700      3699      3701      3703
      3700      3699      3701      3704      3701      3704      3707      3708
      3701      3704      3707      3709      3701      3704      3707      3710
      3702      3701      3704      3705      3702      3701      3704      3706
      3702      3701      3704      3707      3703      3701      3704      3705
      3703      3701      3704      3706      3703      3701      3704      3707
      3704      3707      3710      3711      3704      3707      3710      3712
      3704      3707      3710      3713      3705      3704      3707      3708
      3705      3704      3707      3709      3705      3704      3707      3710
      3706      3704      3707      3708      3706      3704      3707      3709
      3706      3704      3707      3710      3707      3710      3713      3714
      3707      3710      3713      3715      3707      3710      3713      3716
      3708      3707      3710      3711      3708      3707      3710      3712
      3708      3707      3710      3713      3709      3707      3710      3711
      3709      3707      3710      3712      3709      3707      3710      3713
      3710      3713      3716      3717      3710      3713      3716      3718
      3710      3713      3716      3719      3711      3710      3713      3714
      3711      3710      3713      3715      3711      3710      3713      3716
      3712      3710      3713      3714      3712      3710      3713      3715
      3712      3710      3713      3716      3713      3716      3719      3720
      3713      3716      3719      3721      3713      3716      3719      3722
      3714      3713      3716      3717      3714      3713      3716      3718
      3714      3713      3716      3719      3715      3713      3716      3717
      3715      3713      3716      3718      3715      3713      3716      3719
      3716      3719      3722      3723      3716      3719      3722      3724
      3716      3719      3722      3725      3717      3716      3719      3720
      3717      3716      3719      3721      3717      3716      3719      3722
      3718      3716      3719      3720      3718      3716      3719      3721
      3718      3716      3719      3722      3720      3719      3722      3723
      3720      3719      3722      3724      3720      3719      3722      3725
      3721      3719      3722      3723      3721      3719      3722      3724
      3721      3719      3722      3725      3726      3729      3732      3733
      3726      3729      3732      3734      3726      3729      3732      3735
      3727      3726      3729      3730      3727      3726      3729      3731
      3727      3726      3729      3732      3728      3726      3729      3730
      3728      3726      3729      3731      3728      3726      3729      3732
      3729      3732      3735      3736      3729      3732      3735      3737
      3729      3732      3735      3738      3730      3729      3732      3733
      3730      3729      3732      3734      3730      3729      3732      3735
      3731      3729      3732      3733      3731      3729      3732      3734
      3731      3729      3732      3735      3732      3735      3738      3739
      3732      3735      3738      3740      3732      3735      3738      3741
      3733      3732      3735      3736      3733      3732      3735      3737
      3733      3732      3735      3738      3734      3732      3735      3736
      3734      3732      3735      3737      3734      3732      3735      3738
      3735      3738      3741      3742      3735      3738      3741      3743
      3735      3738      3741      3744      3736      3735      3738      3739
      3736      3735      3738      3740      3736      3735      3738      3741
      3737      3735      3738      3739      3737      3735      3738      3740
      3737      3735      3738      3741      3738      3741      3744      3745
      3738      3741      3744      3746      3738      3741      3744      3747
      3739      3738      3741      3742      3739      3738      3741      3743
      3739      3738      3741      3744      3740      3738      3741      3742
      3740      3738      3741      3743      3740      3738      3741      3744
      3741      3744      3747      3748      3741      3744      3747      3749
      3741      3744      3747      3750      3742      3741      3744      3745
      3742      3741      3744      3746      3742      3741      3744      3747
      3743      3741      3744      3745      3743      3741      3744      3746
      3743      3741      3744      3747      3744      3747      3750      3751
      3744      3747      3750      3752      3744      3747      3750      3753
      3745      3744      3747      3748      3745      3744      3747      3749
      3745      3744      3747      3750      3746      3744      3747      3748
      3746      3744      3747      3749      3746      3744      3747      3750
      3747      3750      3753      3754      3747      3750      3753      3755
      3747      3750      3753      3756      3748      3747      3750      3751
      3748      3747      3750      3752      3748      3747      3750      3753
      3749      3747      3750      3751      3749      3747      3750      3752
      3749      3747      3750      3753      3750      3753      3756      3757
      3750      3753      3756      3758      3750      3753      3756      3759
      3751      3750      3753      3754      3751      3750      3753      3755
      3751      3750      3753      3756      3752      3750      3753      3754
      3752      3750      3753      3755      3752      3750      3753      3756
      3753      3756      3759      3760      3753      3756      3759      3761
      3753      3756      3759      3762      3754      3753      3756      3757
      3754      3753      3756      3758      3754      3753      3756      3759
      3755      3753      3756      3757      3755      3753      3756      3758
      3755      3753      3756      3759      3756      3759      3762      3763
      3756      3759      3762      3764      3756      3759      3762      3765
      3757      3756      3759      3760      3757      3756      3759      3761
      3757      3756      3759      3762      3758      3756      3759      3760
      3758      3756      3759      3761      3758      3756      3759      3762
      3759      3762      3765      3766      3759      3762      3765      3767
      3759      3762      3765      3768      3760      3759      3762      3763
      3760      3759      3762      3764      3760      3759      3762      3765
      3761      3759      3762      3763      3761      3759      3762      3764
      3761      3759      3762      3765      3763      3762      3765      3766
      3763      3762      3765      3767      3763      3762      3765      3768
      3764      3762      3765      3766      3764      3762      3765      3767
      3764      3762      3765      3768      3769      3770      3785      3786
      3769      3770      3785      3787      3769      3770      3785      3791
      3770      3769      3773      3774      3770      3769      3773      3775
      3770      3769      3773      3776      3770      3769      3777      3778
      3770      3769      3777      3779      3770      3769      3777      3780
      3770      3769      3781      3782      3770      3769      3781      3783
      3770      3769      3781      3784      3770      3785      3791      3788
      3771      3770      3769      3773      3771      3770      3769      3777
      3771      3770      3769      3781      3771      3770      3785      3786
      3771      3770      3785      3787      3771      3770      3785      3791
      3772      3770      3769      3773      3772      3770      3769      3777
      3772      3770      3769      3781      3772      3770      3785      3786
      3772      3770      3785      3787      3772      3770      3785      3791
      3773      3769      3770      3785      3773      3769      3777      3778
      3773      3769      3777      3779      3773      3769      3777      3780
      3773      3769      3781      3782      3773      3769      3781      3783
      3773      3769      3781      3784      3774      3773      3769      3777
      3774      3773      3769      3781      3775      3773      3769      3777
      3775      3773      3769      3781      3776      3773      3769      3777
      3776      3773      3769      3781      3777      3769      3770      3785
      3777      3769      3781      3782      3777      3769      3781      3783
      3777      3769      3781      3784      3778      3777      3769      3781
      3779      3777      3769      3781      3780      3777      3769      3781
      3781      3769      3770      3785      3785      3791      3788      3789
      3785      3791      3788      3790      3785      3791      3788      3792
      3786      3785      3791      3788      3787      3785      3791      3788
      3788      3792      3793      3794      3788      3792      3793      3795
      3788      3792      3793      3796      3789      3788      3792      3793
      3790      3788      3792      3793      3791      3788      3792      3793
      3792      3793      3796      3797      3792      3793      3796      3798
      3792      3793      3796      3804      3793      3796      3798      3799
      3793      3796      3804      3805      3793      3796      3804      3806
      3793      3796      3804      3807      3794      3793      3796      3797
      3794      3793      3796      3798      3794      3793      3796      3804
      3795      3793      3796      3797      3795      3793      3796      3798
      3795      3793      3796      3804      3796      3798      3799      3800
      3796      3798      3799      3801      3796      3804      3807      3808
      3797      3796      3798      3799      3797      3796      3804      3805
      3797      3796      3804      3806      3797      3796      3804      3807
      3798      3796      3804      3805      3798      3796      3804      3806
      3798      3796      3804      3807      3798      3799      3801      3802
      3798      3799      3801      3803      3798      3799      3801      3813
      3799      3798      3796      3804      3799      3801      3813      3814
      3799      3801      3813      3815      3799      3801      3813      3816
      3800      3799      3801      3802      3800      3799      3801      3803
      3800      3799      3801      3813      3801      3813      3816      3817
      3801      3813      3816      3818      3801      3813      3816      3819
      3802      3801      3813      3814      3802      3801      3813      3815
      3802      3801      3813      3816      3803      3801      3813      3814
      3803      3801      3813      3815      3803      3801      3813      3816
      3804      3807      3808      3809      3804      3807      3808      3810
      3805      3804      3807      3808      3806      3804      3807      3808
      3807      3808      3810      3811      3807      3808      3810      3812
      3807      3808      3810      3860      3808      3810      3860      3861
      3808      3810      3860      3862      3808      3810      3860      3863
      3809      3808      3810      3811      3809      3808      3810      3812
      3809      3808      3810      3860      3810      3860      3863      3864
      3810      3860      3863      3865      3810      3860      3863      3866
      3811      3810      3860      3861      3811      3810      3860      3862
      3811      3810      3860      3863      3812      3810      3860      3861
      3812      3810      3860      3862      3812      3810      3860      3863
      3813      3816      3819      3820      3813      3816      3819      3821
      3813      3816      3819      3822      3814      3813      3816      3817
      3814      3813      3816      3818      3814      3813      3816      3819
      3815      3813      3816      3817      3815      3813      3816      3818
      3815      3813      3816      3819      3816      3819      3822      3823
      3816      3819      3822      3824      3816      3819      3822      3825
      3817      3816      3819      3820      3817      3816      3819      3821
      3817      3816      3819      3822      3818      3816      3819      3820
      3818      3816      3819      3821      3818      3816      3819      3822
      3819      3822      3825      3826      3819      3822      3825      3827
      3819      3822      3825      3828      3820      3819      3822      3823
      3820      3819      3822      3824      3820      3819      3822      3825
      3821      3819      3822      3823      3821      3819      3822      3824
      3821      3819      3822      3825      3822      3825      3828      3829
      3822      3825      3828      3830      3822      3825      3828      3831
      3823      3822      3825      3826      3823      3822      3825      3827
      3823      3822      3825      3828      3824      3822      3825      3826
      3824      3822      3825      3827      3824      3822      3825      3828
      3825      3828      3831      3832      3825      3828      3831      3833
      3826      3825      3828      3829      3826      3825      3828      3830
      3826      3825      3828      3831      3827      3825      3828      3829
      3827      3825      3828      3830      3827      3825      3828      3831
      3828      3831      3833      3834      3828      3831      3833      3835
      3829      3828      3831      3832      3829      3828      3831      3833
      3830      3828      3831      3832      3830      3828      3831      3833
      3831      3833      3835      3836      3831      3833      3835      3837
      3831      3833      3835      3838      3832      3831      3833      3834
      3832      3831      3833      3835      3833      3835      3838      3839
      3833      3835      3838      3840      3833      3835      3838      3841
      3834      3833      3835      3836      3834      3833      3835      3837
      3834      3833      3835      3838      3835      3838      3841      3842
      3835      3838      3841      3843      3835      3838      3841      3844
      3836      3835      3838      3839      3836      3835      3838      3840
      3836      3835      3838      3841      3837      3835      3838      3839
      3837      3835      3838      3840      3837      3835      3838      3841
      3838      3841      3844      3845      3838      3841      3844      3846
      3838      3841      3844      3847      3839      3838      3841      3842
      3839      3838      3841      3843      3839      3838      3841      3844
      3840      3838      3841      3842      3840      3838      3841      3843
      3840      3838      3841      3844      3841      3844      3847      3848
      3841      3844      3847      3849      3841      3844      3847      3850
      3842      3841      3844      3845      3842      3841      3844      3846
      3842      3841      3844      3847      3843      3841      3844      3845
      3843      3841      3844      3846      3843      3841      3844      3847
      3844      3847      3850      3851      3844      3847      3850      3852
      3844      3847      3850      3853      3845      3844      3847      3848
      3845      3844      3847      3849      3845      3844      3847      3850
      3846      3844      3847      3848      3846      3844      3847      3849
      3846      3844      3847      3850      3847      3850      3853      3854
      3847      3850      3853      3855      3847      3850      3853      3856
      3848      3847      3850      3851      3848      3847      3850      3852
      3848      3847      3850      3853      3849      3847      3850      3851
      3849      3847      3850      3852      3849      3847      3850      3853
      3850      3853      3856      3857      3850      3853      3856      3858
      3850      3853      3856      3859      3851      3850      3853      3854
      3851      3850      3853      3855      3851      3850      3853      3856
      3852      3850      3853      3854      3852      3850      3853      3855
      3852      3850      3853      3856      3854      3853      3856      3857
      3854      3853      3856      3858      3854      3853      3856      3859
      3855      3853      3856      3857      3855      3853      3856      3858
      3855      3853      3856      3859      3860      3863      3866      3867
      3860      3863      3866      3868      3860      3863      3866      3869
      3861      3860      3863      3864      3861      3860      3863      3865
      3861      3860      3863      3866      3862      3860      3863      3864
      3862      3860      3863      3865      3862      3860      3863      3866
      3863      3866      3869      3870      3863      3866      3869      3871
      3863      3866      3869      3872      3864      3863      3866      3867
      3864      3863      3866      3868      3864      3863      3866      3869
      3865      3863      3866      3867      3865      3863      3866      3868
      3865      3863      3866      3869      3866      3869      3872      3873
      3866      3869      3872      3874      3866      3869      3872      3875
      3867      3866      3869      3870      3867      3866      3869      3871
      3867      3866      3869      3872      3868      3866      3869      3870
      3868      3866      3869      3871      3868      3866      3869      3872
      3869      3872      3875      3876      3869      3872      3875      3877
      3869      3872      3875      3878      3870      3869      3872      3873
      3870      3869      3872      3874      3870      3869      3872      3875
      3871      3869      3872      3873      3871      3869      3872      3874
      3871      3869      3872      3875      3872      3875      3878      3879
      3872      3875      3878      3880      3872      3875      3878      3881
      3873      3872      3875      3876      3873      3872      3875      3877
      3873      3872      3875      3878      3874      3872      3875      3876
      3874      3872      3875      3877      3874      3872      3875      3878
      3875      3878      3881      3882      3875      3878      3881      3883
      3875      3878      3881      3884      3876      3875      3878      3879
      3876      3875      3878      3880      3876      3875      3878      3881
      3877      3875      3878      3879      3877      3875      3878      3880
      3877      3875      3878      3881      3878      3881      3884      3885
      3878      3881      3884      3886      3878      3881      3884      3887
      3879      3878      3881      3882      3879      3878      3881      3883
      3879      3878      3881      3884      3880      3878      3881      3882
      3880      3878      3881      3883      3880      3878      3881      3884
      3881      3884      3887      3888      3881      3884      3887      3889
      3881      3884      3887      3890      3882      3881      3884      3885
      3882      3881      3884      3886      3882      3881      3884      3887
      3883      3881      3884      3885      3883      3881      3884      3886
      3883      3881      3884      3887      3884      3887      3890      3891
      3884      3887      3890      3892      3884      3887      3890      3893
      3885      3884      3887      3888      3885      3884      3887      3889
      3885      3884      3887      3890      3886      3884      3887      3888
      3886      3884      3887      3889      3886      3884      3887      3890
      3887      3890      3893      3894      3887      3890      3893      3895
      3887      3890      3893      3896      3888      3887      3890      3891
      3888      3887      3890      3892      3888      3887      3890      3893
      3889      3887      3890      3891      3889      3887      3890      3892
      3889      3887      3890      3893      3890      3893      3896      3897
      3890      3893      3896      3898      3890      3893      3896      3899
      3891      3890      3893      3894      3891      3890      3893      3895
      3891      3890      3893      3896      3892      3890      3893      3894
      3892      3890      3893      3895      3892      3890      3893      3896
      3893      3896      3899      3900      3893      3896      3899      3901
      3893      3896      3899      3902      3894      3893      3896      3897
      3894      3893      3896      3898      3894      3893      3896      3899
      3895      3893      3896      3897      3895      3893      3896      3898
      3895      3893      3896      3899      3897      3896      3899      3900
      3897      3896      3899      3901      3897      3896      3899      3902
      3898      3896      3899      3900      3898      3896      3899      3901
      3898      3896      3899      3902      3903      3904      3919      3920
      3903      3904      3919      3921      3903      3904      3919      3925
      3904      3903      3907      3908      3904      3903      3907      3909
      3904      3903      3907      3910      3904      3903      3911      3912
      3904      3903      3911      3913      3904      3903      3911      3914
      3904      3903      3915      3916      3904      3903      3915      3917
      3904      3903      3915      3918      3904      3919      3925      3922
      3905      3904      3903      3907      3905      3904      3903      3911
      3905      3904      3903      3915      3905      3904      3919      3920
      3905      3904      3919      3921      3905      3904      3919      3925
      3906      3904      3903      3907      3906      3904      3903      3911
      3906      3904      3903      3915      3906      3904      3919      3920
      3906      3904      3919      3921      3906      3904      3919      3925
      3907      3903      3904      3919      3907      3903      3911      3912
      3907      3903      3911      3913      3907      3903      3911      3914
      3907      3903      3915      3916      3907      3903      3915      3917
      3907      3903      3915      3918      3908      3907      3903      3911
      3908      3907      3903      3915      3909      3907      3903      3911
      3909      3907      3903      3915      3910      3907      3903      3911
      3910      3907      3903      3915      3911      3903      3904      3919
      3911      3903      3915      3916      3911      3903      3915      3917
      3911      3903      3915      3918      3912      3911      3903      3915
      3913      3911      3903      3915      3914      3911      3903      3915
      3915      3903      3904      3919      3919      3925      3922      3923
      3919      3925      3922      3924      3919      3925      3922      3926
      3920      3919      3925      3922      3921      3919      3925      3922
      3922      3926      3927      3928      3922      3926      3927      3929
      3922      3926      3927      3930      3923      3922      3926      3927
      3924      3922      3926      3927      3925      3922      3926      3927
      3926      3927      3930      3931      3926      3927      3930      3932
      3926      3927      3930      3938      3927      3930      3932      3933
      3927      3930      3938      3939      3927      3930      3938      3940
      3927      3930      3938      3941      3928      3927      3930      3931
      3928      3927      3930      3932      3928      3927      3930      3938
      3929      3927      3930      3931      3929      3927      3930      3932
      3929      3927      3930      3938      3930      3932      3933      3934
      3930      3932      3933      3935      3930      3938      3941      3942
      3931      3930      3932      3933      3931      3930      3938      3939
      3931      3930      3938      3940      3931      3930      3938      3941
      3932      3930      3938      3939      3932      3930      3938      3940
      3932      3930      3938      3941      3932      3933      3935      3936
      3932      3933      3935      3937      3932      3933      3935      3947
      3933      3932      3930      3938      3933      3935      3947      3948
      3933      3935      3947      3949      3933      3935      3947      3950
      3934      3933      3935      3936      3934      3933      3935      3937
      3934      3933      3935      3947      3935      3947      3950      3951
      3935      3947      3950      3952      3935      3947      3950      3953
      3936      3935      3947      3948      3936      3935      3947      3949
      3936      3935      3947      3950      3937      3935      3947      3948
      3937      3935      3947      3949      3937      3935      3947      3950
      3938      3941      3942      3943      3938      3941      3942      3944
      3939      3938      3941      3942      3940      3938      3941      3942
      3941      3942      3944      3945      3941      3942      3944      3946
      3941      3942      3944      3994      3942      3944      3994      3995
      3942      3944      3994      3996      3942      3944      3994      3997
      3943      3942      3944      3945      3943      3942      3944      3946
      3943      3942      3944      3994      3944      3994      3997      3998
      3944      3994      3997      3999      3944      3994      3997      4000
      3945      3944      3994      3995      3945      3944      3994      3996
      3945      3944      3994      3997      3946      3944      3994      3995
      3946      3944      3994      3996      3946      3944      3994      3997
      3947      3950      3953      3954      3947      3950      3953      3955
      3947      3950      3953      3956      3948      3947      3950      3951
      3948      3947      3950      3952      3948      3947      3950      3953
      3949      3947      3950      3951      3949      3947      3950      3952
      3949      3947      3950      3953      3950      3953      3956      3957
      3950      3953      3956      3958      3950      3953      3956      3959
      3951      3950      3953      3954      3951      3950      3953      3955
      3951      3950      3953      3956      3952      3950      3953      3954
      3952      3950      3953      3955      3952      3950      3953      3956
      3953      3956      3959      3960      3953      3956      3959      3961
      3953      3956      3959      3962      3954      3953      3956      3957
      3954      3953      3956      3958      3954      3953      3956      3959
      3955      3953      3956      3957      3955      3953      3956      3958
      3955      3953      3956      3959      3956      3959      3962      3963
      3956      3959      3962      3964      3956      3959      3962      3965
      3957      3956      3959      3960      3957      3956      3959      3961
      3957      3956      3959      3962      3958      3956      3959      3960
      3958      3956      3959      3961      3958      3956      3959      3962
      3959      3962      3965      3966      3959      3962      3965      3967
      3960      3959      3962      3963      3960      3959      3962      3964
      3960      3959      3962      3965      3961      3959      3962      3963
      3961      3959      3962      3964      3961      3959      3962      3965
      3962      3965      3967      3968      3962      3965      3967      3969
      3963      3962      3965      3966      3963      3962      3965      3967
      3964      3962      3965      3966      3964      3962      3965      3967
      3965      3967      3969      3970      3965      3967      3969      3971
      3965      3967      3969      3972      3966      3965      3967      3968
      3966      3965      3967      3969      3967      3969      3972      3973
      3967      3969      3972      3974      3967      3969      3972      3975
      3968      3967      3969      3970      3968      3967      3969      3971
      3968      3967      3969      3972      3969      3972      3975      3976
      3969      3972      3975      3977      3969      3972      3975      3978
      3970      3969      3972      3973      3970      3969      3972      3974
      3970      3969      3972      3975      3971      3969      3972      3973
      3971      3969      3972      3974      3971      3969      3972      3975
      3972      3975      3978      3979      3972      3975      3978      3980
      3972      3975      3978      3981      3973      3972      3975      3976
      3973      3972      3975      3977      3973      3972      3975      3978
      3974      3972      3975      3976      3974      3972      3975      3977
      3974      3972      3975      3978      3975      3978      3981      3982
      3975      3978      3981      3983      3975      3978      3981      3984
      3976      3975      3978      3979      3976      3975      3978      3980
      3976      3975      3978      3981      3977      3975      3978      3979
      3977      3975      3978      3980      3977      3975      3978      3981
      3978      3981      3984      3985      3978      3981      3984      3986
      3978      3981      3984      3987      3979      3978      3981      3982
      3979      3978      3981      3983      3979      3978      3981      3984
      3980      3978      3981      3982      3980      3978      3981      3983
      3980      3978      3981      3984      3981      3984      3987      3988
      3981      3984      3987      3989      3981      3984      3987      3990
      3982      3981      3984      3985      3982      3981      3984      3986
      3982      3981      3984      3987      3983      3981      3984      3985
      3983      3981      3984      3986      3983      3981      3984      3987
      3984      3987      3990      3991      3984      3987      3990      3992
      3984      3987      3990      3993      3985      3984      3987      3988
      3985      3984      3987      3989      3985      3984      3987      3990
      3986      3984      3987      3988      3986      3984      3987      3989
      3986      3984      3987      3990      3988      3987      3990      3991
      3988      3987      3990      3992      3988      3987      3990      3993
      3989      3987      3990      3991      3989      3987      3990      3992
      3989      3987      3990      3993      3994      3997      4000      4001
      3994      3997      4000      4002      3994      3997      4000      4003
      3995      3994      3997      3998      3995      3994      3997      3999
      3995      3994      3997      4000      3996      3994      3997      3998
      3996      3994      3997      3999      3996      3994      3997      4000
      3997      4000      4003      4004      3997      4000      4003      4005
      3997      4000      4003      4006      3998      3997      4000      4001
      3998      3997      4000      4002      3998      3997      4000      4003
      3999      3997      4000      4001      3999      3997      4000      4002
      3999      3997      4000      4003      4000      4003      4006      4007
      4000      4003      4006      4008      4000      4003      4006      4009
      4001      4000      4003      4004      4001      4000      4003      4005
      4001      4000      4003      4006      4002      4000      4003      4004
      4002      4000      4003      4005      4002      4000      4003      4006
      4003      4006      4009      4010      4003      4006      4009      4011
      4003      4006      4009      4012      4004      4003      4006      4007
      4004      4003      4006      4008      4004      4003      4006      4009
      4005      4003      4006      4007      4005      4003      4006      4008
      4005      4003      4006      4009      4006      4009      4012      4013
      4006      4009      4012      4014      4006      4009      4012      4015
      4007      4006      4009      4010      4007      4006      4009      4011
      4007      4006      4009      4012      4008      4006      4009      4010
      4008      4006      4009      4011      4008      4006      4009      4012
      4009      4012      4015      4016      4009      4012      4015      4017
      4009      4012      4015      4018      4010      4009      4012      4013
      4010      4009      4012      4014      4010      4009      4012      4015
      4011      4009      4012      4013      4011      4009      4012      4014
      4011      4009      4012      4015      4012      4015      4018      4019
      4012      4015      4018      4020      4012      4015      4018      4021
      4013      4012      4015      4016      4013      4012      4015      4017
      4013      4012      4015      4018      4014      4012      4015      4016
      4014      4012      4015      4017      4014      4012      4015      4018
      4015      4018      4021      4022      4015      4018      4021      4023
      4015      4018      4021      4024      4016      4015      4018      4019
      4016      4015      4018      4020      4016      4015      4018      4021
      4017      4015      4018      4019      4017      4015      4018      4020
      4017      4015      4018      4021      4018      4021      4024      4025
      4018      4021      4024      4026      4018      4021      4024      4027
      4019      4018      4021      4022      4019      4018      4021      4023
      4019      4018      4021      4024      4020      4018      4021      4022
      4020      4018      4021      4023      4020      4018      4021      4024
      4021      4024      4027      4028      4021      4024      4027      4029
      4021      4024      4027      4030      4022      4021      4024      4025
      4022      4021      4024      4026      4022      4021      4024      4027
      4023      4021      4024      4025      4023      4021      4024      4026
      4023      4021      4024      4027      4024      4027      4030      4031
      4024      4027      4030      4032      4024      4027      4030      4033
      4025      4024      4027      4028      4025      4024      4027      4029
      4025      4024      4027      4030      4026      4024      4027      4028
      4026      4024      4027      4029      4026      4024      4027      4030
      4027      4030      4033      4034      4027      4030      4033      4035
      4027      4030      4033      4036      4028      4027      4030      4031
      4028      4027      4030      4032      4028      4027      4030      4033
      4029      4027      4030      4031      4029      4027      4030      4032
      4029      4027      4030      4033      4031      4030      4033      4034
      4031      4030      4033      4035      4031      4030      4033      4036
      4032      4030      4033      4034      4032      4030      4033      4035
      4032      4030      4033      4036      4037      4038      4053      4054
      4037      4038      4053      4055      4037      4038      4053      4059
      4038      4037      4041      4042      4038      4037      4041      4043
      4038      4037      4041      4044      4038      4037      4045      4046
      4038      4037      4045      4047      4038      4037      4045      4048
      4038      4037      4049      4050      4038      4037      4049      4051
      4038      4037      4049      4052      4038      4053      4059      4056
      4039      4038      4037      4041      4039      4038      4037      4045
      4039      4038      4037      4049      4039      4038      4053      4054
      4039      4038      4053      4055      4039      4038      4053      4059
      4040      4038      4037      4041      4040      4038      4037      4045
      4040      4038      4037      4049      4040      4038      4053      4054
      4040      4038      4053      4055      4040      4038      4053      4059
      4041      4037      4038      4053      4041      4037      4045      4046
      4041      4037      4045      4047      4041      4037      4045      4048
      4041      4037      4049      4050      4041      4037      4049      4051
      4041      4037      4049      4052      4042      4041      4037      4045
      4042      4041      4037      4049      4043      4041      4037      4045
      4043      4041      4037      4049      4044      4041      4037      4045
      4044      4041      4037      4049      4045      4037      4038      4053
      4045      4037      4049      4050      4045      4037      4049      4051
      4045      4037      4049      4052      4046      4045      4037      4049
      4047      4045      4037      4049      4048      4045      4037      4049
      4049      4037      4038      4053      4053      4059      4056      4057
      4053      4059      4056      4058      4053      4059      4056      4060
      4054      4053      4059      4056      4055      4053      4059      4056
      4056      4060      4061      4062      4056      4060      4061      4063
      4056      4060      4061      4064      4057      4056      4060      4061
      4058      4056      4060      4061      4059      4056      4060      4061
      4060      4061      4064      4065      4060      4061      4064      4066
      4060      4061      4064      4072      4061      4064      4066      4067
      4061      4064      4072      4073      4061      4064      4072      4074
      4061      4064      4072      4075      4062      4061      4064      4065
      4062      4061      4064      4066      4062      4061      4064      4072
      4063      4061      4064      4065      4063      4061      4064      4066
      4063      4061      4064      4072      4064      4066      4067      4068
      4064      4066      4067      4069      4064      4072      4075      4076
      4065      4064      4066      4067      4065      4064      4072      4073
      4065      4064      4072      4074      4065      4064      4072      4075
      4066      4064      4072      4073      4066      4064      4072      4074
      4066      4064      4072      4075      4066      4067      4069      4070
      4066      4067      4069      4071      4066      4067      4069      4081
      4067      4066      4064      4072      4067      4069      4081      4082
      4067      4069      4081      4083      4067      4069      4081      4084
      4068      4067      4069      4070      4068      4067      4069      4071
      4068      4067      4069      4081      4069      4081      4084      4085
      4069      4081      4084      4086      4069      4081      4084      4087
      4070      4069      4081      4082      4070      4069      4081      4083
      4070      4069      4081      4084      4071      4069      4081      4082
      4071      4069      4081      4083      4071      4069      4081      4084
      4072      4075      4076      4077      4072      4075      4076      4078
      4073      4072      4075      4076      4074      4072      4075      4076
      4075      4076      4078      4079      4075      4076      4078      4080
      4075      4076      4078      4128      4076      4078      4128      4129
      4076      4078      4128      4130      4076      4078      4128      4131
      4077      4076      4078      4079      4077      4076      4078      4080
      4077      4076      4078      4128      4078      4128      4131      4132
      4078      4128      4131      4133      4078      4128      4131      4134
      4079      4078      4128      4129      4079      4078      4128      4130
      4079      4078      4128      4131      4080      4078      4128      4129
      4080      4078      4128      4130      4080      4078      4128      4131
      4081      4084      4087      4088      4081      4084      4087      4089
      4081      4084      4087      4090      4082      4081      4084      4085
      4082      4081      4084      4086      4082      4081      4084      4087
      4083      4081      4084      4085      4083      4081      4084      4086
      4083      4081      4084      4087      4084      4087      4090      4091
      4084      4087      4090      4092      4084      4087      4090      4093
      4085      4084      4087      4088      4085      4084      4087      4089
      4085      4084      4087      4090      4086      4084      4087      4088
      4086      4084      4087      4089      4086      4084      4087      4090
      4087      4090      4093      4094      4087      4090      4093      4095
      4087      4090      4093      4096      4088      4087      4090      4091
      4088      4087      4090      4092      4088      4087      4090      4093
      4089      4087      4090      4091      4089      4087      4090      4092
      4089      4087      4090      4093      4090      4093      4096      4097
      4090      4093      4096      4098      4090      4093      4096      4099
      4091      4090      4093      4094      4091      4090      4093      4095
      4091      4090      4093      4096      4092      4090      4093      4094
      4092      4090      4093      4095      4092      4090      4093      4096
      4093      4096      4099      4100      4093      4096      4099      4101
      4094      4093      4096      4097      4094      4093      4096      4098
      4094      4093      4096      4099      4095      4093      4096      4097
      4095      4093      4096      4098      4095      4093      4096      4099
      4096      4099      4101      4102      4096      4099      4101      4103
      4097      4096      4099      4100      4097      4096      4099      4101
      4098      4096      4099      4100      4098      4096      4099      4101
      4099      4101      4103      4104      4099      4101      4103      4105
      4099      4101      4103      4106      4100      4099      4101      4102
      4100      4099      4101      4103      4101      4103      4106      4107
      4101      4103      4106      4108      4101      4103      4106      4109
      4102      4101      4103      4104      4102      4101      4103      4105
      4102      4101      4103      4106      4103      4106      4109      4110
      4103      4106      4109      4111      4103      4106      4109      4112
      4104      4103      4106      4107      4104      4103      4106      4108
      4104      4103      4106      4109      4105      4103      4106      4107
      4105      4103      4106      4108      4105      4103      4106      4109
      4106      4109      4112      4113      4106      4109      4112      4114
      4106      4109      4112      4115      4107      4106      4109      4110
      4107      4106      4109      4111      4107      4106      4109      4112
      4108      4106      4109      4110      4108      4106      4109      4111
      4108      4106      4109      4112      4109      4112      4115      4116
      4109      4112      4115      4117      4109      4112      4115      4118
      4110      4109      4112      4113      4110      4109      4112      4114
      4110      4109      4112      4115      4111      4109      4112      4113
      4111      4109      4112      4114      4111      4109      4112      4115
      4112      4115      4118      4119      4112      4115      4118      4120
      4112      4115      4118      4121      4113      4112      4115      4116
      4113      4112      4115      4117      4113      4112      4115      4118
      4114      4112      4115      4116      4114      4112      4115      4117
      4114      4112      4115      4118      4115      4118      4121      4122
      4115      4118      4121      4123      4115      4118      4121      4124
      4116      4115      4118      4119      4116      4115      4118      4120
      4116      4115      4118      4121      4117      4115      4118      4119
      4117      4115      4118      4120      4117      4115      4118      4121
      4118      4121      4124      4125      4118      4121      4124      4126
      4118      4121      4124      4127      4119      4118      4121      4122
      4119      4118      4121      4123      4119      4118      4121      4124
      4120      4118      4121      4122      4120      4118      4121      4123
      4120      4118      4121      4124      4122      4121      4124      4125
      4122      4121      4124      4126      4122      4121      4124      4127
      4123      4121      4124      4125      4123      4121      4124      4126
      4123      4121      4124      4127      4128      4131      4134      4135
      4128      4131      4134      4136      4128      4131      4134      4137
      4129      4128      4131      4132      4129      4128      4131      4133
      4129      4128      4131      4134      4130      4128      4131      4132
      4130      4128      4131      4133      4130      4128      4131      4134
      4131      4134      4137      4138      4131      4134      4137      4139
      4131      4134      4137      4140      4132      4131      4134      4135
      4132      4131      4134      4136      4132      4131      4134      4137
      4133      4131      4134      4135      4133      4131      4134      4136
      4133      4131      4134      4137      4134      4137      4140      4141
      4134      4137      4140      4142      4134      4137      4140      4143
      4135      4134      4137      4138      4135      4134      4137      4139
      4135      4134      4137      4140      4136      4134      4137      4138
      4136      4134      4137      4139      4136      4134      4137      4140
      4137      4140      4143      4144      4137      4140      4143      4145
      4137      4140      4143      4146      4138      4137      4140      4141
      4138      4137      4140      4142      4138      4137      4140      4143
      4139      4137      4140      4141      4139      4137      4140      4142
      4139      4137      4140      4143      4140      4143      4146      4147
      4140      4143      4146      4148      4140      4143      4146      4149
      4141      4140      4143      4144      4141      4140      4143      4145
      4141      4140      4143      4146      4142      4140      4143      4144
      4142      4140      4143      4145      4142      4140      4143      4146
      4143      4146      4149      4150      4143      4146      4149      4151
      4143      4146      4149      4152      4144      4143      4146      4147
      4144      4143      4146      4148      4144      4143      4146      4149
      4145      4143      4146      4147      4145      4143      4146      4148
      4145      4143      4146      4149      4146      4149      4152      4153
      4146      4149      4152      4154      4146      4149      4152      4155
      4147      4146      4149      4150      4147      4146      4149      4151
      4147      4146      4149      4152      4148      4146      4149      4150
      4148      4146      4149      4151      4148      4146      4149      4152
      4149      4152      4155      4156      4149      4152      4155      4157
      4149      4152      4155      4158      4150      4149      4152      4153
      4150      4149      4152      4154      4150      4149      4152      4155
      4151      4149      4152      4153      4151      4149      4152      4154
      4151      4149      4152      4155      4152      4155      4158      4159
      4152      4155      4158      4160      4152      4155      4158      4161
      4153      4152      4155      4156      4153      4152      4155      4157
      4153      4152      4155      4158      4154      4152      4155      4156
      4154      4152      4155      4157      4154      4152      4155      4158
      4155      4158      4161      4162      4155      4158      4161      4163
      4155      4158      4161      4164      4156      4155      4158      4159
      4156      4155      4158      4160      4156      4155      4158      4161
      4157      4155      4158      4159      4157      4155      4158      4160
      4157      4155      4158      4161      4158      4161      4164      4165
      4158      4161      4164      4166      4158      4161      4164      4167
      4159      4158      4161      4162      4159      4158      4161      4163
      4159      4158      4161      4164      4160      4158      4161      4162
      4160      4158      4161      4163      4160      4158      4161      4164
      4161      4164      4167      4168      4161      4164      4167      4169
      4161      4164      4167      4170      4162      4161      4164      4165
      4162      4161      4164      4166      4162      4161      4164      4167
      4163      4161      4164      4165      4163      4161      4164      4166
      4163      4161      4164      4167      4165      4164      4167      4168
      4165      4164      4167      4169      4165      4164      4167      4170
      4166      4164      4167      4168      4166      4164      4167      4169
      4166      4164      4167      4170      4171      4172      4187      4188
      4171      4172      4187      4189      4171      4172      4187      4193
      4172      4171      4175      4176      4172      4171      4175      4177
      4172      4171      4175      4178      4172      4171      4179      4180
      4172      4171      4179      4181      4172      4171      4179      4182
      4172      4171      4183      4184      4172      4171      4183      4185
      4172      4171      4183      4186      4172      4187      4193      4190
      4173      4172      4171      4175      4173      4172      4171      4179
      4173      4172      4171      4183      4173      4172      4187      4188
      4173      4172      4187      4189      4173      4172      4187      4193
      4174      4172      4171      4175      4174      4172      4171      4179
      4174      4172      4171      4183      4174      4172      4187      4188
      4174      4172      4187      4189      4174      4172      4187      4193
      4175      4171      4172      4187      4175      4171      4179      4180
      4175      4171      4179      4181      4175      4171      4179      4182
      4175      4171      4183      4184      4175      4171      4183      4185
      4175      4171      4183      4186      4176      4175      4171      4179
      4176      4175      4171      4183      4177      4175      4171      4179
      4177      4175      4171      4183      4178      4175      4171      4179
      4178      4175      4171      4183      4179      4171      4172      4187
      4179      4171      4183      4184      4179      4171      4183      4185
      4179      4171      4183      4186      4180      4179      4171      4183
      4181      4179      4171      4183      4182      4179      4171      4183
      4183      4171      4172      4187      4187      4193      4190      4191
      4187      4193      4190      4192      4187      4193      4190      4194
      4188      4187      4193      4190      4189      4187      4193      4190
      4190      4194      4195      4196      4190      4194      4195      4197
      4190      4194      4195      4198      4191      4190      4194      4195
      4192      4190      4194      4195      4193      4190      4194      4195
      4194      4195      4198      4199      4194      4195      4198      4200
      4194      4195      4198      4206      4195      4198      4200      4201
      4195      4198      4206      4207      4195      4198      4206      4208
      4195      4198      4206      4209      4196      4195      4198      4199
      4196      4195      4198      4200      4196      4195      4198      4206
      4197      4195      4198      4199      4197      4195      4198      4200
      4197      4195      4198      4206      4198      4200      4201      4202
      4198      4200      4201      4203      4198      4206      4209      4210
      4199      4198      4200      4201      4199      4198      4206      4207
      4199      4198      4206      4208      4199      4198      4206      4209
      4200      4198      4206      4207      4200      4198      4206      4208
      4200      4198      4206      4209      4200      4201      4203      4204
      4200      4201      4203      4205      4200      4201      4203      4215
      4201      4200      4198      4206      4201      4203      4215      4216
      4201      4203      4215      4217      4201      4203      4215      4218
      4202      4201      4203      4204      4202      4201      4203      4205
      4202      4201      4203      4215      4203      4215      4218      4219
      4203      4215      4218      4220      4203      4215      4218      4221
      4204      4203      4215      4216      4204      4203      4215      4217
      4204      4203      4215      4218      4205      4203      4215      4216
      4205      4203      4215      4217      4205      4203      4215      4218
      4206      4209      4210      4211      4206      4209      4210      4212
      4207      4206      4209      4210      4208      4206      4209      4210
      4209      4210      4212      4213      4209      4210      4212      4214
      4209      4210      4212      4262      4210      4212      4262      4263
      4210      4212      4262      4264      4210      4212      4262      4265
      4211      4210      4212      4213      4211      4210      4212      4214
      4211      4210      4212      4262      4212      4262      4265      4266
      4212      4262      4265      4267      4212      4262      4265      4268
      4213      4212      4262      4263      4213      4212      4262      4264
      4213      4212      4262      4265      4214      4212      4262      4263
      4214      4212      4262      4264      4214      4212      4262      4265
      4215      4218      4221      4222      4215      4218      4221      4223
      4215      4218      4221      4224      4216      4215      4218      4219
      4216      4215      4218      4220      4216      4215      4218      4221
      4217      4215      4218      4219      4217      4215      4218      4220
      4217      4215      4218      4221      4218      4221      4224      4225
      4218      4221      4224      4226      4218      4221      4224      4227
      4219      4218      4221      4222      4219      4218      4221      4223
      4219      4218      4221      4224      4220      4218      4221      4222
      4220      4218      4221      4223      4220      4218      4221      4224
      4221      4224      4227      4228      4221      4224      4227      4229
      4221      4224      4227      4230      4222      4221      4224      4225
      4222      4221      4224      4226      4222      4221      4224      4227
      4223      4221      4224      4225      4223      4221      4224      4226
      4223      4221      4224      4227      4224      4227      4230      4231
      4224      4227      4230      4232      4224      4227      4230      4233
      4225      4224      4227      4228      4225      4224      4227      4229
      4225      4224      4227      4230      4226      4224      4227      4228
      4226      4224      4227      4229      4226      4224      4227      4230
      4227      4230      4233      4234      4227      4230      4233      4235
      4228      4227      4230      4231      4228      4227      4230      4232
      4228      4227      4230      4233      4229      4227      4230      4231
      4229      4227      4230      4232      4229      4227      4230      4233
      4230      4233      4235      4236      4230      4233      4235      4237
      4231      4230      4233      4234      4231      4230      4233      4235
      4232      4230      4233      4234      4232      4230      4233      4235
      4233      4235      4237      4238      4233      4235      4237      4239
      4233      4235      4237      4240      4234      4233      4235      4236
      4234      4233      4235      4237      4235      4237      4240      4241
      4235      4237      4240      4242      4235      4237      4240      4243
      4236      4235      4237      4238      4236      4235      4237      4239
      4236      4235      4237      4240      4237      4240      4243      4244
      4237      4240      4243      4245      4237      4240      4243      4246
      4238      4237      4240      4241      4238      4237      4240      4242
      4238      4237      4240      4243      4239      4237      4240      4241
      4239      4237      4240      4242      4239      4237      4240      4243
      4240      4243      4246      4247      4240      4243      4246      4248
      4240      4243      4246      4249      4241      4240      4243      4244
      4241      4240      4243      4245      4241      4240      4243      4246
      4242      4240      4243      4244      4242      4240      4243      4245
      4242      4240      4243      4246      4243      4246      4249      4250
      4243      4246      4249      4251      4243      4246      4249      4252
      4244      4243      4246      4247      4244      4243      4246      4248
      4244      4243      4246      4249      4245      4243      4246      4247
      4245      4243      4246      4248      4245      4243      4246      4249
      4246      4249      4252      4253      4246      4249      4252      4254
      4246      4249      4252      4255      4247      4246      4249      4250
      4247      4246      4249      4251      4247      4246      4249      4252
      4248      4246      4249      4250      4248      4246      4249      4251
      4248      4246      4249      4252      4249      4252      4255      4256
      4249      4252      4255      4257      4249      4252      4255      4258
      4250      4249      4252      4253      4250      4249      4252      4254
      4250      4249      4252      4255      4251      4249      4252      4253
      4251      4249      4252      4254      4251      4249      4252      4255
      4252      4255      4258      4259      4252      4255      4258      4260
      4252      4255      4258      4261      4253      4252      4255      4256
      4253      4252      4255      4257      4253      4252      4255      4258
      4254      4252      4255      4256      4254      4252      4255      4257
      4254      4252      4255      4258      4256      4255      4258      4259
      4256      4255      4258      4260      4256      4255      4258      4261
      4257      4255      4258      4259      4257      4255      4258      4260
      4257      4255      4258      4261      4262      4265      4268      4269
      4262      4265      4268      4270      4262      4265      4268      4271
      4263      4262      4265      4266      4263      4262      4265      4267
      4263      4262      4265      4268      4264      4262      4265      4266
      4264      4262      4265      4267      4264      4262      4265      4268
      4265      4268      4271      4272      4265      4268      4271      4273
      4265      4268      4271      4274      4266      4265      4268      4269
      4266      4265      4268      4270      4266      4265      4268      4271
      4267      4265      4268      4269      4267      4265      4268      4270
      4267      4265      4268      4271      4268      4271      4274      4275
      4268      4271      4274      4276      4268      4271      4274      4277
      4269      4268      4271      4272      4269      4268      4271      4273
      4269      4268      4271      4274      4270      4268      4271      4272
      4270      4268      4271      4273      4270      4268      4271      4274
      4271      4274      4277      4278      4271      4274      4277      4279
      4271      4274      4277      4280      4272      4271      4274      4275
      4272      4271      4274      4276      4272      4271      4274      4277
      4273      4271      4274      4275      4273      4271      4274      4276
      4273      4271      4274      4277      4274      4277      4280      4281
      4274      4277      4280      4282      4274      4277      4280      4283
      4275      4274      4277      4278      4275      4274      4277      4279
      4275      4274      4277      4280      4276      4274      4277      4278
      4276      4274      4277      4279      4276      4274      4277      4280
      4277      4280      4283      4284      4277      4280      4283      4285
      4277      4280      4283      4286      4278      4277      4280      4281
      4278      4277      4280      4282      4278      4277      4280      4283
      4279      4277      4280      4281      4279      4277      4280      4282
      4279      4277      4280      4283      4280      4283      4286      4287
      4280      4283      4286      4288      4280      4283      4286      4289
      4281      4280      4283      4284      4281      4280      4283      4285
      4281      4280      4283      4286      4282      4280      4283      4284
      4282      4280      4283      4285      4282      4280      4283      4286
      4283      4286      4289      4290      4283      4286      4289      4291
      4283      4286      4289      4292      4284      4283      4286      4287
      4284      4283      4286      4288      4284      4283      4286      4289
      4285      4283      4286      4287      4285      4283      4286      4288
      4285      4283      4286      4289      4286      4289      4292      4293
      4286      4289      4292      4294      4286      4289      4292      4295
      4287      4286      4289      4290      4287      4286      4289      4291
      4287      4286      4289      4292      4288      4286      4289      4290
      4288      4286      4289      4291      4288      4286      4289      4292
      4289      4292      4295      4296      4289      4292      4295      4297
      4289      4292      4295      4298      4290      4289      4292      4293
      4290      4289      4292      4294      4290      4289      4292      4295
      4291      4289      4292      4293      4291      4289      4292      4294
      4291      4289      4292      4295      4292      4295      4298      4299
      4292      4295      4298      4300      4292      4295      4298      4301
      4293      4292      4295      4296      4293      4292      4295      4297
      4293      4292      4295      4298      4294      4292      4295      4296
      4294      4292      4295      4297      4294      4292      4295      4298
      4295      4298      4301      4302      4295      4298      4301      4303
      4295      4298      4301      4304      4296      4295      4298      4299
      4296      4295      4298      4300      4296      4295      4298      4301
      4297      4295      4298      4299      4297      4295      4298      4300
      4297      4295      4298      4301      4299      4298      4301      4302
      4299      4298      4301      4303      4299      4298      4301      4304
      4300      4298      4301      4302      4300      4298      4301      4303
      4300      4298      4301      4304      4305      4306      4321      4322
      4305      4306      4321      4323      4305      4306      4321      4327
      4306      4305      4309      4310      4306      4305      4309      4311
      4306      4305      4309      4312      4306      4305      4313      4314
      4306      4305      4313      4315      4306      4305      4313      4316
      4306      4305      4317      4318      4306      4305      4317      4319
      4306      4305      4317      4320      4306      4321      4327      4324
      4307      4306      4305      4309      4307      4306      4305      4313
      4307      4306      4305      4317      4307      4306      4321      4322
      4307      4306      4321      4323      4307      4306      4321      4327
      4308      4306      4305      4309      4308      4306      4305      4313
      4308      4306      4305      4317      4308      4306      4321      4322
      4308      4306      4321      4323      4308      4306      4321      4327
      4309      4305      4306      4321      4309      4305      4313      4314
      4309      4305      4313      4315      4309      4305      4313      4316
      4309      4305      4317      4318      4309      4305      4317      4319
      4309      4305      4317      4320      4310      4309      4305      4313
      4310      4309      4305      4317      4311      4309      4305      4313
      4311      4309      4305      4317      4312      4309      4305      4313
      4312      4309      4305      4317      4313      4305      4306      4321
      4313      4305      4317      4318      4313      4305      4317      4319
      4313      4305      4317      4320      4314      4313      4305      4317
      4315      4313      4305      4317      4316      4313      4305      4317
      4317      4305      4306      4321      4321      4327      4324      4325
      4321      4327      4324      4326      4321      4327      4324      4328
      4322      4321      4327      4324      4323      4321      4327      4324
      4324      4328      4329      4330      4324      4328      4329      4331
      4324      4328      4329      4332      4325      4324      4328      4329
      4326      4324      4328      4329      4327      4324      4328      4329
      4328      4329      4332      4333      4328      4329      4332      4334
      4328      4329      4332      4340      4329      4332      4334      4335
      4329      4332      4340      4341      4329      4332      4340      4342
      4329      4332      4340      4343      4330      4329      4332      4333
      4330      4329      4332      4334      4330      4329      4332      4340
      4331      4329      4332      4333      4331      4329      4332      4334
      4331      4329      4332      4340      4332      4334      4335      4336
      4332      4334      4335      4337      4332      4340      4343      4344
      4333      4332      4334      4335      4333      4332      4340      4341
      4333      4332      4340      4342      4333      4332      4340      4343
      4334      4332      4340      4341      4334      4332      4340      4342
      4334      4332      4340      4343      4334      4335      4337      4338
      4334      4335      4337      4339      4334      4335      4337      4349
      4335      4334      4332      4340      4335      4337      4349      4350
      4335      4337      4349      4351      4335      4337      4349      4352
      4336      4335      4337      4338      4336      4335      4337      4339
      4336      4335      4337      4349      4337      4349      4352      4353
      4337      4349      4352      4354      4337      4349      4352      4355
      4338      4337      4349      4350      4338      4337      4349      4351
      4338      4337      4349      4352      4339      4337      4349      4350
      4339      4337      4349      4351      4339      4337      4349      4352
      4340      4343      4344      4345      4340      4343      4344      4346
      4341      4340      4343      4344      4342      4340      4343      4344
      4343      4344      4346      4347      4343      4344      4346      4348
      4343      4344      4346      4396      4344      4346      4396      4397
      4344      4346      4396      4398      4344      4346      4396      4399
      4345      4344      4346      4347      4345      4344      4346      4348
      4345      4344      4346      4396      4346      4396      4399      4400
      4346      4396      4399      4401      4346      4396      4399      4402
      4347      4346      4396      4397      4347      4346      4396      4398
      4347      4346      4396      4399      4348      4346      4396      4397
      4348      4346      4396      4398      4348      4346      4396      4399
      4349      4352      4355      4356      4349      4352      4355      4357
      4349      4352      4355      4358      4350      4349      4352      4353
      4350      4349      4352      4354      4350      4349      4352      4355
      4351      4349      4352      4353      4351      4349      4352      4354
      4351      4349      4352      4355      4352      4355      4358      4359
      4352      4355      4358      4360      4352      4355      4358      4361
      4353      4352      4355      4356      4353      4352      4355      4357
      4353      4352      4355      4358      4354      4352      4355      4356
      4354      4352      4355      4357      4354      4352      4355      4358
      4355      4358      4361      4362      4355      4358      4361      4363
      4355      4358      4361      4364      4356      4355      4358      4359
      4356      4355      4358      4360      4356      4355      4358      4361
      4357      4355      4358      4359      4357      4355      4358      4360
      4357      4355      4358      4361      4358      4361      4364      4365
      4358      4361      4364      4366      4358      4361      4364      4367
      4359      4358      4361      4362      4359      4358      4361      4363
      4359      4358      4361      4364      4360      4358      4361      4362
      4360      4358      4361      4363      4360      4358      4361      4364
      4361      4364      4367      4368      4361      4364      4367      4369
      4362      4361      4364      4365      4362      4361      4364      4366
      4362      4361      4364      4367      4363      4361      4364      4365
      4363      4361      4364      4366      4363      4361      4364      4367
      4364      4367      4369      4370      4364      4367      4369      4371
      4365      4364      4367      4368      4365      4364      4367      4369
      4366      4364      4367      4368      4366      4364      4367      4369
      4367      4369      4371      4372      4367      4369      4371      4373
      4367      4369      4371      4374      4368      4367      4369      4370
      4368      4367      4369      4371      4369      4371      4374      4375
      4369      4371      4374      4376      4369      4371      4374      4377
      4370      4369      4371      4372      4370      4369      4371      4373
      4370      4369      4371      4374      4371      4374      4377      4378
      4371      4374      4377      4379      4371      4374      4377      4380
      4372      4371      4374      4375      4372      4371      4374      4376
      4372      4371      4374      4377      4373      4371      4374      4375
      4373      4371      4374      4376      4373      4371      4374      4377
      4374      4377      4380      4381      4374      4377      4380      4382
      4374      4377      4380      4383      4375      4374      4377      4378
      4375      4374      4377      4379      4375      4374      4377      4380
      4376      4374      4377      4378      4376      4374      4377      4379
      4376      4374      4377      4380      4377      4380      4383      4384
      4377      4380      4383      4385      4377      4380      4383      4386
      4378      4377      4380      4381      4378      4377      4380      4382
      4378      4377      4380      4383      4379      4377      4380      4381
      4379      4377      4380      4382      4379      4377      4380      4383
      4380      4383      4386      4387      4380      4383      4386      4388
      4380      4383      4386      4389      4381      4380      4383      4384
      4381      4380      4383      4385      4381      4380      4383      4386
      4382      4380      4383      4384      4382      4380      4383      4385
      4382      4380      4383      4386      4383      4386      4389      4390
      4383      4386      4389      4391      4383      4386      4389      4392
      4384      4383      4386      4387      4384      4383      4386      4388
      4384      4383      4386      4389      4385      4383      4386      4387
      4385      4383      4386      4388      4385      4383      4386      4389
      4386      4389      4392      4393      4386      4389      4392      4394
      4386      4389      4392      4395      4387      4386      4389      4390
      4387      4386      4389      4391      4387      4386      4389      4392
      4388      4386      4389      4390      4388      4386      4389      4391
      4388      4386      4389      4392      4390      4389      4392      4393
      4390      4389      4392      4394      4390      4389      4392      4395
      4391      4389      4392      4393      4391      4389      4392      4394
      4391      4389      4392      4395      4396      4399      4402      4403
      4396      4399      4402      4404      4396      4399      4402      4405
      4397      4396      4399      4400      4397      4396      4399      4401
      4397      4396      4399      4402      4398      4396      4399      4400
      4398      4396      4399      4401      4398      4396      4399      4402
      4399      4402      4405      4406      4399      4402      4405      4407
      4399      4402      4405      4408      4400      4399      4402      4403
      4400      4399      4402      4404      4400      4399      4402      4405
      4401      4399      4402      4403      4401      4399      4402      4404
      4401      4399      4402      4405      4402      4405      4408      4409
      4402      4405      4408      4410      4402      4405      4408      4411
      4403      4402      4405      4406      4403      4402      4405      4407
      4403      4402      4405      4408      4404      4402      4405      4406
      4404      4402      4405      4407      4404      4402      4405      4408
      4405      4408      4411      4412      4405      4408      4411      4413
      4405      4408      4411      4414      4406      4405      4408      4409
      4406      4405      4408      4410      4406      4405      4408      4411
      4407      4405      4408      4409      4407      4405      4408      4410
      4407      4405      4408      4411      4408      4411      4414      4415
      4408      4411      4414      4416      4408      4411      4414      4417
      4409      4408      4411      4412      4409      4408      4411      4413
      4409      4408      4411      4414      4410      4408      4411      4412
      4410      4408      4411      4413      4410      4408      4411      4414
      4411      4414      4417      4418      4411      4414      4417      4419
      4411      4414      4417      4420      4412      4411      4414      4415
      4412      4411      4414      4416      4412      4411      4414      4417
      4413      4411      4414      4415      4413      4411      4414      4416
      4413      4411      4414      4417      4414      4417      4420      4421
      4414      4417      4420      4422      4414      4417      4420      4423
      4415      4414      4417      4418      4415      4414      4417      4419
      4415      4414      4417      4420      4416      4414      4417      4418
      4416      4414      4417      4419      4416      4414      4417      4420
      4417      4420      4423      4424      4417      4420      4423      4425
      4417      4420      4423      4426      4418      4417      4420      4421
      4418      4417      4420      4422      4418      4417      4420      4423
      4419      4417      4420      4421      4419      4417      4420      4422
      4419      4417      4420      4423      4420      4423      4426      4427
      4420      4423      4426      4428      4420      4423      4426      4429
      4421      4420      4423      4424      4421      4420      4423      4425
      4421      4420      4423      4426      4422      4420      4423      4424
      4422      4420      4423      4425      4422      4420      4423      4426
      4423      4426      4429      4430      4423      4426      4429      4431
      4423      4426      4429      4432      4424      4423      4426      4427
      4424      4423      4426      4428      4424      4423      4426      4429
      4425      4423      4426      4427      4425      4423      4426      4428
      4425      4423      4426      4429      4426      4429      4432      4433
      4426      4429      4432      4434      4426      4429      4432      4435
      4427      4426      4429      4430      4427      4426      4429      4431
      4427      4426      4429      4432      4428      4426      4429      4430
      4428      4426      4429      4431      4428      4426      4429      4432
      4429      4432      4435      4436      4429      4432      4435      4437
      4429      4432      4435      4438      4430      4429      4432      4433
      4430      4429      4432      4434      4430      4429      4432      4435
      4431      4429      4432      4433      4431      4429      4432      4434
      4431      4429      4432      4435      4433      4432      4435      4436
      4433      4432      4435      4437      4433      4432      4435      4438
      4434      4432      4435      4436      4434      4432      4435      4437
      4434      4432      4435      4438      4439      4440      4455      4456
      4439      4440      4455      4457      4439      4440      4455      4461
      4440      4439      4443      4444      4440      4439      4443      4445
      4440      4439      4443      4446      4440      4439      4447      4448
      4440      4439      4447      4449      4440      4439      4447      4450
      4440      4439      4451      4452      4440      4439      4451      4453
      4440      4439      4451      4454      4440      4455      4461      4458
      4441      4440      4439      4443      4441      4440      4439      4447
      4441      4440      4439      4451      4441      4440      4455      4456
      4441      4440      4455      4457      4441      4440      4455      4461
      4442      4440      4439      4443      4442      4440      4439      4447
      4442      4440      4439      4451      4442      4440      4455      4456
      4442      4440      4455      4457      4442      4440      4455      4461
      4443      4439      4440      4455      4443      4439      4447      4448
      4443      4439      4447      4449      4443      4439      4447      4450
      4443      4439      4451      4452      4443      4439      4451      4453
      4443      4439      4451      4454      4444      4443      4439      4447
      4444      4443      4439      4451      4445      4443      4439      4447
      4445      4443      4439      4451      4446      4443      4439      4447
      4446      4443      4439      4451      4447      4439      4440      4455
      4447      4439      4451      4452      4447      4439      4451      4453
      4447      4439      4451      4454      4448      4447      4439      4451
      4449      4447      4439      4451      4450      4447      4439      4451
      4451      4439      4440      4455      4455      4461      4458      4459
      4455      4461      4458      4460      4455      4461      4458      4462
      4456      4455      4461      4458      4457      4455      4461      4458
      4458      4462      4463      4464      4458      4462      4463      4465
      4458      4462      4463      4466      4459      4458      4462      4463
      4460      4458      4462      4463      4461      4458      4462      4463
      4462      4463      4466      4467      4462      4463      4466      4468
      4462      4463      4466      4474      4463      4466      4468      4469
      4463      4466      4474      4475      4463      4466      4474      4476
      4463      4466      4474      4477      4464      4463      4466      4467
      4464      4463      4466      4468      4464      4463      4466      4474
      4465      4463      4466      4467      4465      4463      4466      4468
      4465      4463      4466      4474      4466      4468      4469      4470
      4466      4468      4469      4471      4466      4474      4477      4478
      4467      4466      4468      4469      4467      4466      4474      4475
      4467      4466      4474      4476      4467      4466      4474      4477
      4468      4466      4474      4475      4468      4466      4474      4476
      4468      4466      4474      4477      4468      4469      4471      4472
      4468      4469      4471      4473      4468      4469      4471      4483
      4469      4468      4466      4474      4469      4471      4483      4484
      4469      4471      4483      4485      4469      4471      4483      4486
      4470      4469      4471      4472      4470      4469      4471      4473
      4470      4469      4471      4483      4471      4483      4486      4487
      4471      4483      4486      4488      4471      4483      4486      4489
      4472      4471      4483      4484      4472      4471      4483      4485
      4472      4471      4483      4486      4473      4471      4483      4484
      4473      4471      4483      4485      4473      4471      4483      4486
      4474      4477      4478      4479      4474      4477      4478      4480
      4475      4474      4477      4478      4476      4474      4477      4478
      4477      4478      4480      4481      4477      4478      4480      4482
      4477      4478      4480      4530      4478      4480      4530      4531
      4478      4480      4530      4532      4478      4480      4530      4533
      4479      4478      4480      4481      4479      4478      4480      4482
      4479      4478      4480      4530      4480      4530      4533      4534
      4480      4530      4533      4535      4480      4530      4533      4536
      4481      4480      4530      4531      4481      4480      4530      4532
      4481      4480      4530      4533      4482      4480      4530      4531
      4482      4480      4530      4532      4482      4480      4530      4533
      4483      4486      4489      4490      4483      4486      4489      4491
      4483      4486      4489      4492      4484      4483      4486      4487
      4484      4483      4486      4488      4484      4483      4486      4489
      4485      4483      4486      4487      4485      4483      4486      4488
      4485      4483      4486      4489      4486      4489      4492      4493
      4486      4489      4492      4494      4486      4489      4492      4495
      4487      4486      4489      4490      4487      4486      4489      4491
      4487      4486      4489      4492      4488      4486      4489      4490
      4488      4486      4489      4491      4488      4486      4489      4492
      4489      4492      4495      4496      4489      4492      4495      4497
      4489      4492      4495      4498      4490      4489      4492      4493
      4490      4489      4492      4494      4490      4489      4492      4495
      4491      4489      4492      4493      4491      4489      4492      4494
      4491      4489      4492      4495      4492      4495      4498      4499
      4492      4495      4498      4500      4492      4495      4498      4501
      4493      4492      4495      4496      4493      4492      4495      4497
      4493      4492      4495      4498      4494      4492      4495      4496
      4494      4492      4495      4497      4494      4492      4495      4498
      4495      4498      4501      4502      4495      4498      4501      4503
      4496      4495      4498      4499      4496      4495      4498      4500
      4496      4495      4498      4501      4497      4495      4498      4499
      4497      4495      4498      4500      4497      4495      4498      4501
      4498      4501      4503      4504      4498      4501      4503      4505
      4499      4498      4501      4502      4499      4498      4501      4503
      4500      4498      4501      4502      4500      4498      4501      4503
      4501      4503      4505      4506      4501      4503      4505      4507
      4501      4503      4505      4508      4502      4501      4503      4504
      4502      4501      4503      4505      4503      4505      4508      4509
      4503      4505      4508      4510      4503      4505      4508      4511
      4504      4503      4505      4506      4504      4503      4505      4507
      4504      4503      4505      4508      4505      4508      4511      4512
      4505      4508      4511      4513      4505      4508      4511      4514
      4506      4505      4508      4509      4506      4505      4508      4510
      4506      4505      4508      4511      4507      4505      4508      4509
      4507      4505      4508      4510      4507      4505      4508      4511
      4508      4511      4514      4515      4508      4511      4514      4516
      4508      4511      4514      4517      4509      4508      4511      4512
      4509      4508      4511      4513      4509      4508      4511      4514
      4510      4508      4511      4512      4510      4508      4511      4513
      4510      4508      4511      4514      4511      4514      4517      4518
      4511      4514      4517      4519      4511      4514      4517      4520
      4512      4511      4514      4515      4512      4511      4514      4516
      4512      4511      4514      4517      4513      4511      4514      4515
      4513      4511      4514      4516      4513      4511      4514      4517
      4514      4517      4520      4521      4514      4517      4520      4522
      4514      4517      4520      4523      4515      4514      4517      4518
      4515      4514      4517      4519      4515      4514      4517      4520
      4516      4514      4517      4518      4516      4514      4517      4519
      4516      4514      4517      4520      4517      4520      4523      4524
      4517      4520      4523      4525      4517      4520      4523      4526
      4518      4517      4520      4521      4518      4517      4520      4522
      4518      4517      4520      4523      4519      4517      4520      4521
      4519      4517      4520      4522      4519      4517      4520      4523
      4520      4523      4526      4527      4520      4523      4526      4528
      4520      4523      4526      4529      4521      4520      4523      4524
      4521      4520      4523      4525      4521      4520      4523      4526
      4522      4520      4523      4524      4522      4520      4523      4525
      4522      4520      4523      4526      4524      4523      4526      4527
      4524      4523      4526      4528      4524      4523      4526      4529
      4525      4523      4526      4527      4525      4523      4526      4528
      4525      4523      4526      4529      4530      4533      4536      4537
      4530      4533      4536      4538      4530      4533      4536      4539
      4531      4530      4533      4534      4531      4530      4533      4535
      4531      4530      4533      4536      4532      4530      4533      4534
      4532      4530      4533      4535      4532      4530      4533      4536
      4533      4536      4539      4540      4533      4536      4539      4541
      4533      4536      4539      4542      4534      4533      4536      4537
      4534      4533      4536      4538      4534      4533      4536      4539
      4535      4533      4536      4537      4535      4533      4536      4538
      4535      4533      4536      4539      4536      4539      4542      4543
      4536      4539      4542      4544      4536      4539      4542      4545
      4537      4536      4539      4540      4537      4536      4539      4541
      4537      4536      4539      4542      4538      4536      4539      4540
      4538      4536      4539      4541      4538      4536      4539      4542
      4539      4542      4545      4546      4539      4542      4545      4547
      4539      4542      4545      4548      4540      4539      4542      4543
      4540      4539      4542      4544      4540      4539      4542      4545
      4541      4539      4542      4543      4541      4539      4542      4544
      4541      4539      4542      4545      4542      4545      4548      4549
      4542      4545      4548      4550      4542      4545      4548      4551
      4543      4542      4545      4546      4543      4542      4545      4547
      4543      4542      4545      4548      4544      4542      4545      4546
      4544      4542      4545      4547      4544      4542      4545      4548
      4545      4548      4551      4552      4545      4548      4551      4553
      4545      4548      4551      4554      4546      4545      4548      4549
      4546      4545      4548      4550      4546      4545      4548      4551
      4547      4545      4548      4549      4547      4545      4548      4550
      4547      4545      4548      4551      4548      4551      4554      4555
      4548      4551      4554      4556      4548      4551      4554      4557
      4549      4548      4551      4552      4549      4548      4551      4553
      4549      4548      4551      4554      4550      4548      4551      4552
      4550      4548      4551      4553      4550      4548      4551      4554
      4551      4554      4557      4558      4551      4554      4557      4559
      4551      4554      4557      4560      4552      4551      4554      4555
      4552      4551      4554      4556      4552      4551      4554      4557
      4553      4551      4554      4555      4553      4551      4554      4556
      4553      4551      4554      4557      4554      4557      4560      4561
      4554      4557      4560      4562      4554      4557      4560      4563
      4555      4554      4557      4558      4555      4554      4557      4559
      4555      4554      4557      4560      4556      4554      4557      4558
      4556      4554      4557      4559      4556      4554      4557      4560
      4557      4560      4563      4564      4557      4560      4563      4565
      4557      4560      4563      4566      4558      4557      4560      4561
      4558      4557      4560      4562      4558      4557      4560      4563
      4559      4557      4560      4561      4559      4557      4560      4562
      4559      4557      4560      4563      4560      4563      4566      4567
      4560      4563      4566      4568      4560      4563      4566      4569
      4561      4560      4563      4564      4561      4560      4563      4565
      4561      4560      4563      4566      4562      4560      4563      4564
      4562      4560      4563      4565      4562      4560      4563      4566
      4563      4566      4569      4570      4563      4566      4569      4571
      4563      4566      4569      4572      4564      4563      4566      4567
      4564      4563      4566      4568      4564      4563      4566      4569
      4565      4563      4566      4567      4565      4563      4566      4568
      4565      4563      4566      4569      4567      4566      4569      4570
      4567      4566      4569      4571      4567      4566      4569      4572
      4568      4566      4569      4570      4568      4566      4569      4571
      4568      4566      4569      4572      4573      4574      4589      4590
      4573      4574      4589      4591      4573      4574      4589      4595
      4574      4573      4577      4578      4574      4573      4577      4579
      4574      4573      4577      4580      4574      4573      4581      4582
      4574      4573      4581      4583      4574      4573      4581      4584
      4574      4573      4585      4586      4574      4573      4585      4587
      4574      4573      4585      4588      4574      4589      4595      4592
      4575      4574      4573      4577      4575      4574      4573      4581
      4575      4574      4573      4585      4575      4574      4589      4590
      4575      4574      4589      4591      4575      4574      4589      4595
      4576      4574      4573      4577      4576      4574      4573      4581
      4576      4574      4573      4585      4576      4574      4589      4590
      4576      4574      4589      4591      4576      4574      4589      4595
      4577      4573      4574      4589      4577      4573      4581      4582
      4577      4573      4581      4583      4577      4573      4581      4584
      4577      4573      4585      4586      4577      4573      4585      4587
      4577      4573      4585      4588      4578      4577      4573      4581
      4578      4577      4573      4585      4579      4577      4573      4581
      4579      4577      4573      4585      4580      4577      4573      4581
      4580      4577      4573      4585      4581      4573      4574      4589
      4581      4573      4585      4586      4581      4573      4585      4587
      4581      4573      4585      4588      4582      4581      4573      4585
      4583      4581      4573      4585      4584      4581      4573      4585
      4585      4573      4574      4589      4589      4595      4592      4593
      4589      4595      4592      4594      4589      4595      4592      4596
      4590      4589      4595      4592      4591      4589      4595      4592
      4592      4596      4597      4598      4592      4596      4597      4599
      4592      4596      4597      4600      4593      4592      4596      4597
      4594      4592      4596      4597      4595      4592      4596      4597
      4596      4597      4600      4601      4596      4597      4600      4602
      4596      4597      4600      4608      4597      4600      4602      4603
      4597      4600      4608      4609      4597      4600      4608      4610
      4597      4600      4608      4611      4598      4597      4600      4601
      4598      4597      4600      4602      4598      4597      4600      4608
      4599      4597      4600      4601      4599      4597      4600      4602
      4599      4597      4600      4608      4600      4602      4603      4604
      4600      4602      4603      4605      4600      4608      4611      4612
      4601      4600      4602      4603      4601      4600      4608      4609
      4601      4600      4608      4610      4601      4600      4608      4611
      4602      4600      4608      4609      4602      4600      4608      4610
      4602      4600      4608      4611      4602      4603      4605      4606
      4602      4603      4605      4607      4602      4603      4605      4617
      4603      4602      4600      4608      4603      4605      4617      4618
      4603      4605      4617      4619      4603      4605      4617      4620
      4604      4603      4605      4606      4604      4603      4605      4607
      4604      4603      4605      4617      4605      4617      4620      4621
      4605      4617      4620      4622      4605      4617      4620      4623
      4606      4605      4617      4618      4606      4605      4617      4619
      4606      4605      4617      4620      4607      4605      4617      4618
      4607      4605      4617      4619      4607      4605      4617      4620
      4608      4611      4612      4613      4608      4611      4612      4614
      4609      4608      4611      4612      4610      4608      4611      4612
      4611      4612      4614      4615      4611      4612      4614      4616
      4611      4612      4614      4664      4612      4614      4664      4665
      4612      4614      4664      4666      4612      4614      4664      4667
      4613      4612      4614      4615      4613      4612      4614      4616
      4613      4612      4614      4664      4614      4664      4667      4668
      4614      4664      4667      4669      4614      4664      4667      4670
      4615      4614      4664      4665      4615      4614      4664      4666
      4615      4614      4664      4667      4616      4614      4664      4665
      4616      4614      4664      4666      4616      4614      4664      4667
      4617      4620      4623      4624      4617      4620      4623      4625
      4617      4620      4623      4626      4618      4617      4620      4621
      4618      4617      4620      4622      4618      4617      4620      4623
      4619      4617      4620      4621      4619      4617      4620      4622
      4619      4617      4620      4623      4620      4623      4626      4627
      4620      4623      4626      4628      4620      4623      4626      4629
      4621      4620      4623      4624      4621      4620      4623      4625
      4621      4620      4623      4626      4622      4620      4623      4624
      4622      4620      4623      4625      4622      4620      4623      4626
      4623      4626      4629      4630      4623      4626      4629      4631
      4623      4626      4629      4632      4624      4623      4626      4627
      4624      4623      4626      4628      4624      4623      4626      4629
      4625      4623      4626      4627      4625      4623      4626      4628
      4625      4623      4626      4629      4626      4629      4632      4633
      4626      4629      4632      4634      4626      4629      4632      4635
      4627      4626      4629      4630      4627      4626      4629      4631
      4627      4626      4629      4632      4628      4626      4629      4630
      4628      4626      4629      4631      4628      4626      4629      4632
      4629      4632      4635      4636      4629      4632      4635      4637
      4630      4629      4632      4633      4630      4629      4632      4634
      4630      4629      4632      4635      4631      4629      4632      4633
      4631      4629      4632      4634      4631      4629      4632      4635
      4632      4635      4637      4638      4632      4635      4637      4639
      4633      4632      4635      4636      4633      4632      4635      4637
      4634      4632      4635      4636      4634      4632      4635      4637
      4635      4637      4639      4640      4635      4637      4639      4641
      4635      4637      4639      4642      4636      4635      4637      4638
      4636      4635      4637      4639      4637      4639      4642      4643
      4637      4639      4642      4644      4637      4639      4642      4645
      4638      4637      4639      4640      4638      4637      4639      4641
      4638      4637      4639      4642      4639      4642      4645      4646
      4639      4642      4645      4647      4639      4642      4645      4648
      4640      4639      4642      4643      4640      4639      4642      4644
      4640      4639      4642      4645      4641      4639      4642      4643
      4641      4639      4642      4644      4641      4639      4642      4645
      4642      4645      4648      4649      4642      4645      4648      4650
      4642      4645      4648      4651      4643      4642      4645      4646
      4643      4642      4645      4647      4643      4642      4645      4648
      4644      4642      4645      4646      4644      4642      4645      4647
      4644      4642      4645      4648      4645      4648      4651      4652
      4645      4648      4651      4653      4645      4648      4651      4654
      4646      4645      4648      4649      4646      4645      4648      4650
      4646      4645      4648      4651      4647      4645      4648      4649
      4647      4645      4648      4650      4647      4645      4648      4651
      4648      4651      4654      4655      4648      4651      4654      4656
      4648      4651      4654      4657      4649      4648      4651      4652
      4649      4648      4651      4653      4649      4648      4651      4654
      4650      4648      4651      4652      4650      4648      4651      4653
      4650      4648      4651      4654      4651      4654      4657      4658
      4651      4654      4657      4659      4651      4654      4657      4660
      4652      4651      4654      4655      4652      4651      4654      4656
      4652      4651      4654      4657      4653      4651      4654      4655
      4653      4651      4654      4656      4653      4651      4654      4657
      4654      4657      4660      4661      4654      4657      4660      4662
      4654      4657      4660      4663      4655      4654      4657      4658
      4655      4654      4657      4659      4655      4654      4657      4660
      4656      4654      4657      4658      4656      4654      4657      4659
      4656      4654      4657      4660      4658      4657      4660      4661
      4658      4657      4660      4662      4658      4657      4660      4663
      4659      4657      4660      4661      4659      4657      4660      4662
      4659      4657      4660      4663      4664      4667      4670      4671
      4664      4667      4670      4672      4664      4667      4670      4673
      4665      4664      4667      4668      4665      4664      4667      4669
      4665      4664      4667      4670      4666      4664      4667      4668
      4666      4664      4667      4669      4666      4664      4667      4670
      4667      4670      4673      4674      4667      4670      4673      4675
      4667      4670      4673      4676      4668      4667      4670      4671
      4668      4667      4670      4672      4668      4667      4670      4673
      4669      4667      4670      4671      4669      4667      4670      4672
      4669      4667      4670      4673      4670      4673      4676      4677
      4670      4673      4676      4678      4670      4673      4676      4679
      4671      4670      4673      4674      4671      4670      4673      4675
      4671      4670      4673      4676      4672      4670      4673      4674
      4672      4670      4673      4675      4672      4670      4673      4676
      4673      4676      4679      4680      4673      4676      4679      4681
      4673      4676      4679      4682      4674      4673      4676      4677
      4674      4673      4676      4678      4674      4673      4676      4679
      4675      4673      4676      4677      4675      4673      4676      4678
      4675      4673      4676      4679      4676      4679      4682      4683
      4676      4679      4682      4684      4676      4679      4682      4685
      4677      4676      4679      4680      4677      4676      4679      4681
      4677      4676      4679      4682      4678      4676      4679      4680
      4678      4676      4679      4681      4678      4676      4679      4682
      4679      4682      4685      4686      4679      4682      4685      4687
      4679      4682      4685      4688      4680      4679      4682      4683
      4680      4679      4682      4684      4680      4679      4682      4685
      4681      4679      4682      4683      4681      4679      4682      4684
      4681      4679      4682      4685      4682      4685      4688      4689
      4682      4685      4688      4690      4682      4685      4688      4691
      4683      4682      4685      4686      4683      4682      4685      4687
      4683      4682      4685      4688      4684      4682      4685      4686
      4684      4682      4685      4687      4684      4682      4685      4688
      4685      4688      4691      4692      4685      4688      4691      4693
      4685      4688      4691      4694      4686      4685      4688      4689
      4686      4685      4688      4690      4686      4685      4688      4691
      4687      4685      4688      4689      4687      4685      4688      4690
      4687      4685      4688      4691      4688      4691      4694      4695
      4688      4691      4694      4696      4688      4691      4694      4697
      4689      4688      4691      4692      4689      4688      4691      4693
      4689      4688      4691      4694      4690      4688      4691      4692
      4690      4688      4691      4693      4690      4688      4691      4694
      4691      4694      4697      4698      4691      4694      4697      4699
      4691      4694      4697      4700      4692      4691      4694      4695
      4692      4691      4694      4696      4692      4691      4694      4697
      4693      4691      4694      4695      4693      4691      4694      4696
      4693      4691      4694      4697      4694      4697      4700      4701
      4694      4697      4700      4702      4694      4697      4700      4703
      4695      4694      4697      4698      4695      4694      4697      4699
      4695      4694      4697      4700      4696      4694      4697      4698
      4696      4694      4697      4699      4696      4694      4697      4700
      4697      4700      4703      4704      4697      4700      4703      4705
      4697      4700      4703      4706      4698      4697      4700      4701
      4698      4697      4700      4702      4698      4697      4700      4703
      4699      4697      4700      4701      4699      4697      4700      4702
      4699      4697      4700      4703      4701      4700      4703      4704
      4701      4700      4703      4705      4701      4700      4703      4706
      4702      4700      4703      4704      4702      4700      4703      4705
      4702      4700      4703      4706      4707      4708      4723      4724
      4707      4708      4723      4725      4707      4708      4723      4729
      4708      4707      4711      4712      4708      4707      4711      4713
      4708      4707      4711      4714      4708      4707      4715      4716
      4708      4707      4715      4717      4708      4707      4715      4718
      4708      4707      4719      4720      4708      4707      4719      4721
      4708      4707      4719      4722      4708      4723      4729      4726
      4709      4708      4707      4711      4709      4708      4707      4715
      4709      4708      4707      4719      4709      4708      4723      4724
      4709      4708      4723      4725      4709      4708      4723      4729
      4710      4708      4707      4711      4710      4708      4707      4715
      4710      4708      4707      4719      4710      4708      4723      4724
      4710      4708      4723      4725      4710      4708      4723      4729
      4711      4707      4708      4723      4711      4707      4715      4716
      4711      4707      4715      4717      4711      4707      4715      4718
      4711      4707      4719      4720      4711      4707      4719      4721
      4711      4707      4719      4722      4712      4711      4707      4715
      4712      4711      4707      4719      4713      4711      4707      4715
      4713      4711      4707      4719      4714      4711      4707      4715
      4714      4711      4707      4719      4715      4707      4708      4723
      4715      4707      4719      4720      4715      4707      4719      4721
      4715      4707      4719      4722      4716      4715      4707      4719
      4717      4715      4707      4719      4718      4715      4707      4719
      4719      4707      4708      4723      4723      4729      4726      4727
      4723      4729      4726      4728      4723      4729      4726      4730
      4724      4723      4729      4726      4725      4723      4729      4726
      4726      4730      4731      4732      4726      4730      4731      4733
      4726      4730      4731      4734      4727      4726      4730      4731
      4728      4726      4730      4731      4729      4726      4730      4731
      4730      4731      4734      4735      4730      4731      4734      4736
      4730      4731      4734      4742      4731      4734      4736      4737
      4731      4734      4742      4743      4731      4734      4742      4744
      4731      4734      4742      4745      4732      4731      4734      4735
      4732      4731      4734      4736      4732      4731      4734      4742
      4733      4731      4734      4735      4733      4731      4734      4736
      4733      4731      4734      4742      4734      4736      4737      4738
      4734      4736      4737      4739      4734      4742      4745      4746
      4735      4734      4736      4737      4735      4734      4742      4743
      4735      4734      4742      4744      4735      4734      4742      4745
      4736      4734      4742      4743      4736      4734      4742      4744
      4736      4734      4742      4745      4736      4737      4739      4740
      4736      4737      4739      4741      4736      4737      4739      4751
      4737      4736      4734      4742      4737      4739      4751      4752
      4737      4739      4751      4753      4737      4739      4751      4754
      4738      4737      4739      4740      4738      4737      4739      4741
      4738      4737      4739      4751      4739      4751      4754      4755
      4739      4751      4754      4756      4739      4751      4754      4757
      4740      4739      4751      4752      4740      4739      4751      4753
      4740      4739      4751      4754      4741      4739      4751      4752
      4741      4739      4751      4753      4741      4739      4751      4754
      4742      4745      4746      4747      4742      4745      4746      4748
      4743      4742      4745      4746      4744      4742      4745      4746
      4745      4746      4748      4749      4745      4746      4748      4750
      4745      4746      4748      4798      4746      4748      4798      4799
      4746      4748      4798      4800      4746      4748      4798      4801
      4747      4746      4748      4749      4747      4746      4748      4750
      4747      4746      4748      4798      4748      4798      4801      4802
      4748      4798      4801      4803      4748      4798      4801      4804
      4749      4748      4798      4799      4749      4748      4798      4800
      4749      4748      4798      4801      4750      4748      4798      4799
      4750      4748      4798      4800      4750      4748      4798      4801
      4751      4754      4757      4758      4751      4754      4757      4759
      4751      4754      4757      4760      4752      4751      4754      4755
      4752      4751      4754      4756      4752      4751      4754      4757
      4753      4751      4754      4755      4753      4751      4754      4756
      4753      4751      4754      4757      4754      4757      4760      4761
      4754      4757      4760      4762      4754      4757      4760      4763
      4755      4754      4757      4758      4755      4754      4757      4759
      4755      4754      4757      4760      4756      4754      4757      4758
      4756      4754      4757      4759      4756      4754      4757      4760
      4757      4760      4763      4764      4757      4760      4763      4765
      4757      4760      4763      4766      4758      4757      4760      4761
      4758      4757      4760      4762      4758      4757      4760      4763
      4759      4757      4760      4761      4759      4757      4760      4762
      4759      4757      4760      4763      4760      4763      4766      4767
      4760      4763      4766      4768      4760      4763      4766      4769
      4761      4760      4763      4764      4761      4760      4763      4765
      4761      4760      4763      4766      4762      4760      4763      4764
      4762      4760      4763      4765      4762      4760      4763      4766
      4763      4766      4769      4770      4763      4766      4769      4771
      4764      4763      4766      4767      4764      4763      4766      4768
      4764      4763      4766      4769      4765      4763      4766      4767
      4765      4763      4766      4768      4765      4763      4766      4769
      4766      4769      4771      4772      4766      4769      4771      4773
      4767      4766      4769      4770      4767      4766      4769      4771
      4768      4766      4769      4770      4768      4766      4769      4771
      4769      4771      4773      4774      4769      4771      4773      4775
      4769      4771      4773      4776      4770      4769      4771      4772
      4770      4769      4771      4773      4771      4773      4776      4777
      4771      4773      4776      4778      4771      4773      4776      4779
      4772      4771      4773      4774      4772      4771      4773      4775
      4772      4771      4773      4776      4773      4776      4779      4780
      4773      4776      4779      4781      4773      4776      4779      4782
      4774      4773      4776      4777      4774      4773      4776      4778
      4774      4773      4776      4779      4775      4773      4776      4777
      4775      4773      4776      4778      4775      4773      4776      4779
      4776      4779      4782      4783      4776      4779      4782      4784
      4776      4779      4782      4785      4777      4776      4779      4780
      4777      4776      4779      4781      4777      4776      4779      4782
      4778      4776      4779      4780      4778      4776      4779      4781
      4778      4776      4779      4782      4779      4782      4785      4786
      4779      4782      4785      4787      4779      4782      4785      4788
      4780      4779      4782      4783      4780      4779      4782      4784
      4780      4779      4782      4785      4781      4779      4782      4783
      4781      4779      4782      4784      4781      4779      4782      4785
      4782      4785      4788      4789      4782      4785      4788      4790
      4782      4785      4788      4791      4783      4782      4785      4786
      4783      4782      4785      4787      4783      4782      4785      4788
      4784      4782      4785      4786      4784      4782      4785      4787
      4784      4782      4785      4788      4785      4788      4791      4792
      4785      4788      4791      4793      4785      4788      4791      4794
      4786      4785      4788      4789      4786      4785      4788      4790
      4786      4785      4788      4791      4787      4785      4788      4789
      4787      4785      4788      4790      4787      4785      4788      4791
      4788      4791      4794      4795      4788      4791      4794      4796
      4788      4791      4794      4797      4789      4788      4791      4792
      4789      4788      4791      4793      4789      4788      4791      4794
      4790      4788      4791      4792      4790      4788      4791      4793
      4790      4788      4791      4794      4792      4791      4794      4795
      4792      4791      4794      4796      4792      4791      4794      4797
      4793      4791      4794      4795      4793      4791      4794      4796
      4793      4791      4794      4797      4798      4801      4804      4805
      4798      4801      4804      4806      4798      4801      4804      4807
      4799      4798      4801      4802      4799      4798      4801      4803
      4799      4798      4801      4804      4800      4798      4801      4802
      4800      4798      4801      4803      4800      4798      4801      4804
      4801      4804      4807      4808      4801      4804      4807      4809
      4801      4804      4807      4810      4802      4801      4804      4805
      4802      4801      4804      4806      4802      4801      4804      4807
      4803      4801      4804      4805      4803      4801      4804      4806
      4803      4801      4804      4807      4804      4807      4810      4811
      4804      4807      4810      4812      4804      4807      4810      4813
      4805      4804      4807      4808      4805      4804      4807      4809
      4805      4804      4807      4810      4806      4804      4807      4808
      4806      4804      4807      4809      4806      4804      4807      4810
      4807      4810      4813      4814      4807      4810      4813      4815
      4807      4810      4813      4816      4808      4807      4810      4811
      4808      4807      4810      4812      4808      4807      4810      4813
      4809      4807      4810      4811      4809      4807      4810      4812
      4809      4807      4810      4813      4810      4813      4816      4817
      4810      4813      4816      4818      4810      4813      4816      4819
      4811      4810      4813      4814      4811      4810      4813      4815
      4811      4810      4813      4816      4812      4810      4813      4814
      4812      4810      4813      4815      4812      4810      4813      4816
      4813      4816      4819      4820      4813      4816      4819      4821
      4813      4816      4819      4822      4814      4813      4816      4817
      4814      4813      4816      4818      4814      4813      4816      4819
      4815      4813      4816      4817      4815      4813      4816      4818
      4815      4813      4816      4819      4816      4819      4822      4823
      4816      4819      4822      4824      4816      4819      4822      4825
      4817      4816      4819      4820      4817      4816      4819      4821
      4817      4816      4819      4822      4818      4816      4819      4820
      4818      4816      4819      4821      4818      4816      4819      4822
      4819      4822      4825      4826      4819      4822      4825      4827
      4819      4822      4825      4828      4820      4819      4822      4823
      4820      4819      4822      4824      4820      4819      4822      4825
      4821      4819      4822      4823      4821      4819      4822      4824
      4821      4819      4822      4825      4822      4825      4828      4829
      4822      4825      4828      4830      4822      4825      4828      4831
      4823      4822      4825      4826      4823      4822      4825      4827
      4823      4822      4825      4828      4824      4822      4825      4826
      4824      4822      4825      4827      4824      4822      4825      4828
      4825      4828      4831      4832      4825      4828      4831      4833
      4825      4828      4831      4834      4826      4825      4828      4829
      4826      4825      4828      4830      4826      4825      4828      4831
      4827      4825      4828      4829      4827      4825      4828      4830
      4827      4825      4828      4831      4828      4831      4834      4835
      4828      4831      4834      4836      4828      4831      4834      4837
      4829      4828      4831      4832      4829      4828      4831      4833
      4829      4828      4831      4834      4830      4828      4831      4832
      4830      4828      4831      4833      4830      4828      4831      4834
      4831      4834      4837      4838      4831      4834      4837      4839
      4831      4834      4837      4840      4832      4831      4834      4835
      4832      4831      4834      4836      4832      4831      4834      4837
      4833      4831      4834      4835      4833      4831      4834      4836
      4833      4831      4834      4837      4835      4834      4837      4838
      4835      4834      4837      4839      4835      4834      4837      4840
      4836      4834      4837      4838      4836      4834      4837      4839
      4836      4834      4837      4840      4841      4842      4857      4858
      4841      4842      4857      4859      4841      4842      4857      4863
      4842      4841      4845      4846      4842      4841      4845      4847
      4842      4841      4845      4848      4842      4841      4849      4850
      4842      4841      4849      4851      4842      4841      4849      4852
      4842      4841      4853      4854      4842      4841      4853      4855
      4842      4841      4853      4856      4842      4857      4863      4860
      4843      4842      4841      4845      4843      4842      4841      4849
      4843      4842      4841      4853      4843      4842      4857      4858
      4843      4842      4857      4859      4843      4842      4857      4863
      4844      4842      4841      4845      4844      4842      4841      4849
      4844      4842      4841      4853      4844      4842      4857      4858
      4844      4842      4857      4859      4844      4842      4857      4863
      4845      4841      4842      4857      4845      4841      4849      4850
      4845      4841      4849      4851      4845      4841      4849      4852
      4845      4841      4853      4854      4845      4841      4853      4855
      4845      4841      4853      4856      4846      4845      4841      4849
      4846      4845      4841      4853      4847      4845      4841      4849
      4847      4845      4841      4853      4848      4845      4841      4849
      4848      4845      4841      4853      4849      4841      4842      4857
      4849      4841      4853      4854      4849      4841      4853      4855
      4849      4841      4853      4856      4850      4849      4841      4853
      4851      4849      4841      4853      4852      4849      4841      4853
      4853      4841      4842      4857      4857      4863      4860      4861
      4857      4863      4860      4862      4857      4863      4860      4864
      4858      4857      4863      4860      4859      4857      4863      4860
      4860      4864      4865      4866      4860      4864      4865      4867
      4860      4864      4865      4868      4861      4860      4864      4865
      4862      4860      4864      4865      4863      4860      4864      4865
      4864      4865      4868      4869      4864      4865      4868      4870
      4864      4865      4868      4876      4865      4868      4870      4871
      4865      4868      4876      4877      4865      4868      4876      4878
      4865      4868      4876      4879      4866      4865      4868      4869
      4866      4865      4868      4870      4866      4865      4868      4876
      4867      4865      4868      4869      4867      4865      4868      4870
      4867      4865      4868      4876      4868      4870      4871      4872
      4868      4870      4871      4873      4868      4876      4879      4880
      4869      4868      4870      4871      4869      4868      4876      4877
      4869      4868      4876      4878      4869      4868      4876      4879
      4870      4868      4876      4877      4870      4868      4876      4878
      4870      4868      4876      4879      4870      4871      4873      4874
      4870      4871      4873      4875      4870      4871      4873      4885
      4871      4870      4868      4876      4871      4873      4885      4886
      4871      4873      4885      4887      4871      4873      4885      4888
      4872      4871      4873      4874      4872      4871      4873      4875
      4872      4871      4873      4885      4873      4885      4888      4889
      4873      4885      4888      4890      4873      4885      4888      4891
      4874      4873      4885      4886      4874      4873      4885      4887
      4874      4873      4885      4888      4875      4873      4885      4886
      4875      4873      4885      4887      4875      4873      4885      4888
      4876      4879      4880      4881      4876      4879      4880      4882
      4877      4876      4879      4880      4878      4876      4879      4880
      4879      4880      4882      4883      4879      4880      4882      4884
      4879      4880      4882      4932      4880      4882      4932      4933
      4880      4882      4932      4934      4880      4882      4932      4935
      4881      4880      4882      4883      4881      4880      4882      4884
      4881      4880      4882      4932      4882      4932      4935      4936
      4882      4932      4935      4937      4882      4932      4935      4938
      4883      4882      4932      4933      4883      4882      4932      4934
      4883      4882      4932      4935      4884      4882      4932      4933
      4884      4882      4932      4934      4884      4882      4932      4935
      4885      4888      4891      4892      4885      4888      4891      4893
      4885      4888      4891      4894      4886      4885      4888      4889
      4886      4885      4888      4890      4886      4885      4888      4891
      4887      4885      4888      4889      4887      4885      4888      4890
      4887      4885      4888      4891      4888      4891      4894      4895
      4888      4891      4894      4896      4888      4891      4894      4897
      4889      4888      4891      4892      4889      4888      4891      4893
      4889      4888      4891      4894      4890      4888      4891      4892
      4890      4888      4891      4893      4890      4888      4891      4894
      4891      4894      4897      4898      4891      4894      4897      4899
      4891      4894      4897      4900      4892      4891      4894      4895
      4892      4891      4894      4896      4892      4891      4894      4897
      4893      4891      4894      4895      4893      4891      4894      4896
      4893      4891      4894      4897      4894      4897      4900      4901
      4894      4897      4900      4902      4894      4897      4900      4903
      4895      4894      4897      4898      4895      4894      4897      4899
      4895      4894      4897      4900      4896      4894      4897      4898
      4896      4894      4897      4899      4896      4894      4897      4900
      4897      4900      4903      4904      4897      4900      4903      4905
      4898      4897      4900      4901      4898      4897      4900      4902
      4898      4897      4900      4903      4899      4897      4900      4901
      4899      4897      4900      4902      4899      4897      4900      4903
      4900      4903      4905      4906      4900      4903      4905      4907
      4901      4900      4903      4904      4901      4900      4903      4905
      4902      4900      4903      4904      4902      4900      4903      4905
      4903      4905      4907      4908      4903      4905      4907      4909
      4903      4905      4907      4910      4904      4903      4905      4906
      4904      4903      4905      4907      4905      4907      4910      4911
      4905      4907      4910      4912      4905      4907      4910      4913
      4906      4905      4907      4908      4906      4905      4907      4909
      4906      4905      4907      4910      4907      4910      4913      4914
      4907      4910      4913      4915      4907      4910      4913      4916
      4908      4907      4910      4911      4908      4907      4910      4912
      4908      4907      4910      4913      4909      4907      4910      4911
      4909      4907      4910      4912      4909      4907      4910      4913
      4910      4913      4916      4917      4910      4913      4916      4918
      4910      4913      4916      4919      4911      4910      4913      4914
      4911      4910      4913      4915      4911      4910      4913      4916
      4912      4910      4913      4914      4912      4910      4913      4915
      4912      4910      4913      4916      4913      4916      4919      4920
      4913      4916      4919      4921      4913      4916      4919      4922
      4914      4913      4916      4917      4914      4913      4916      4918
      4914      4913      4916      4919      4915      4913      4916      4917
      4915      4913      4916      4918      4915      4913      4916      4919
      4916      4919      4922      4923      4916      4919      4922      4924
      4916      4919      4922      4925      4917      4916      4919      4920
      4917      4916      4919      4921      4917      4916      4919      4922
      4918      4916      4919      4920      4918      4916      4919      4921
      4918      4916      4919      4922      4919      4922      4925      4926
      4919      4922      4925      4927      4919      4922      4925      4928
      4920      4919      4922      4923      4920      4919      4922      4924
      4920      4919      4922      4925      4921      4919      4922      4923
      4921      4919      4922      4924      4921      4919      4922      4925
      4922      4925      4928      4929      4922      4925      4928      4930
      4922      4925      4928      4931      4923      4922      4925      4926
      4923      4922      4925      4927      4923      4922      4925      4928
      4924      4922      4925      4926      4924      4922      4925      4927
      4924      4922      4925      4928      4926      4925      4928      4929
      4926      4925      4928      4930      4926      4925      4928      4931
      4927      4925      4928      4929      4927      4925      4928      4930
      4927      4925      4928      4931      4932      4935      4938      4939
      4932      4935      4938      4940      4932      4935      4938      4941
      4933      4932      4935      4936      4933      4932      4935      4937
      4933      4932      4935      4938      4934      4932      4935      4936
      4934      4932      4935      4937      4934      4932      4935      4938
      4935      4938      4941      4942      4935      4938      4941      4943
      4935      4938      4941      4944      4936      4935      4938      4939
      4936      4935      4938      4940      4936      4935      4938      4941
      4937      4935      4938      4939      4937      4935      4938      4940
      4937      4935      4938      4941      4938      4941      4944      4945
      4938      4941      4944      4946      4938      4941      4944      4947
      4939      4938      4941      4942      4939      4938      4941      4943
      4939      4938      4941      4944      4940      4938      4941      4942
      4940      4938      4941      4943      4940      4938      4941      4944
      4941      4944      4947      4948      4941      4944      4947      4949
      4941      4944      4947      4950      4942      4941      4944      4945
      4942      4941      4944      4946      4942      4941      4944      4947
      4943      4941      4944      4945      4943      4941      4944      4946
      4943      4941      4944      4947      4944      4947      4950      4951
      4944      4947      4950      4952      4944      4947      4950      4953
      4945      4944      4947      4948      4945      4944      4947      4949
      4945      4944      4947      4950      4946      4944      4947      4948
      4946      4944      4947      4949      4946      4944      4947      4950
      4947      4950      4953      4954      4947      4950      4953      4955
      4947      4950      4953      4956      4948      4947      4950      4951
      4948      4947      4950      4952      4948      4947      4950      4953
      4949      4947      4950      4951      4949      4947      4950      4952
      4949      4947      4950      4953      4950      4953      4956      4957
      4950      4953      4956      4958      4950      4953      4956      4959
      4951      4950      4953      4954      4951      4950      4953      4955
      4951      4950      4953      4956      4952      4950      4953      4954
      4952      4950      4953      4955      4952      4950      4953      4956
      4953      4956      4959      4960      4953      4956      4959      4961
      4953      4956      4959      4962      4954      4953      4956      4957
      4954      4953      4956      4958      4954      4953      4956      4959
      4955      4953      4956      4957      4955      4953      4956      4958
      4955      4953      4956      4959      4956      4959      4962      4963
      4956      4959      4962      4964      4956      4959      4962      4965
      4957      4956      4959      4960      4957      4956      4959      4961
      4957      4956      4959      4962      4958      4956      4959      4960
      4958      4956      4959      4961      4958      4956      4959      4962
      4959      4962      4965      4966      4959      4962      4965      4967
      4959      4962      4965      4968      4960      4959      4962      4963
      4960      4959      4962      4964      4960      4959      4962      4965
      4961      4959      4962      4963      4961      4959      4962      4964
      4961      4959      4962      4965      4962      4965      4968      4969
      4962      4965      4968      4970      4962      4965      4968      4971
      4963      4962      4965      4966      4963      4962      4965      4967
      4963      4962      4965      4968      4964      4962      4965      4966
      4964      4962      4965      4967      4964      4962      4965      4968
      4965      4968      4971      4972      4965      4968      4971      4973
      4965      4968      4971      4974      4966      4965      4968      4969
      4966      4965      4968      4970      4966      4965      4968      4971
      4967      4965      4968      4969      4967      4965      4968      4970
      4967      4965      4968      4971      4969      4968      4971      4972
      4969      4968      4971      4973      4969      4968      4971      4974
      4970      4968      4971      4972      4970      4968      4971      4973
      4970      4968      4971      4974      4975      4976      4991      4992
      4975      4976      4991      4993      4975      4976      4991      4997
      4976      4975      4979      4980      4976      4975      4979      4981
      4976      4975      4979      4982      4976      4975      4983      4984
      4976      4975      4983      4985      4976      4975      4983      4986
      4976      4975      4987      4988      4976      4975      4987      4989
      4976      4975      4987      4990      4976      4991      4997      4994
      4977      4976      4975      4979      4977      4976      4975      4983
      4977      4976      4975      4987      4977      4976      4991      4992
      4977      4976      4991      4993      4977      4976      4991      4997
      4978      4976      4975      4979      4978      4976      4975      4983
      4978      4976      4975      4987      4978      4976      4991      4992
      4978      4976      4991      4993      4978      4976      4991      4997
      4979      4975      4976      4991      4979      4975      4983      4984
      4979      4975      4983      4985      4979      4975      4983      4986
      4979      4975      4987      4988      4979      4975      4987      4989
      4979      4975      4987      4990      4980      4979      4975      4983
      4980      4979      4975      4987      4981      4979      4975      4983
      4981      4979      4975      4987      4982      4979      4975      4983
      4982      4979      4975      4987      4983      4975      4976      4991
      4983      4975      4987      4988      4983      4975      4987      4989
      4983      4975      4987      4990      4984      4983      4975      4987
      4985      4983      4975      4987      4986      4983      4975      4987
      4987      4975      4976      4991      4991      4997      4994      4995
      4991      4997      4994      4996      4991      4997      4994      4998
      4992      4991      4997      4994      4993      4991      4997      4994
      4994      4998      4999      5000      4994      4998      4999      5001
      4994      4998      4999      5002      4995      4994      4998      4999
      4996      4994      4998      4999      4997      4994      4998      4999
      4998      4999      5002      5003      4998      4999      5002      5004
      4998      4999      5002      5010      4999      5002      5004      5005
      4999      5002      5010      5011      4999      5002      5010      5012
      4999      5002      5010      5013      5000      4999      5002      5003
      5000      4999      5002      5004      5000      4999      5002      5010
      5001      4999      5002      5003      5001      4999      5002      5004
      5001      4999      5002      5010      5002      5004      5005      5006
      5002      5004      5005      5007      5002      5010      5013      5014
      5003      5002      5004      5005      5003      5002      5010      5011
      5003      5002      5010      5012      5003      5002      5010      5013
      5004      5002      5010      5011      5004      5002      5010      5012
      5004      5002      5010      5013      5004      5005      5007      5008
      5004      5005      5007      5009      5004      5005      5007      5019
      5005      5004      5002      5010      5005      5007      5019      5020
      5005      5007      5019      5021      5005      5007      5019      5022
      5006      5005      5007      5008      5006      5005      5007      5009
      5006      5005      5007      5019      5007      5019      5022      5023
      5007      5019      5022      5024      5007      5019      5022      5025
      5008      5007      5019      5020      5008      5007      5019      5021
      5008      5007      5019      5022      5009      5007      5019      5020
      5009      5007      5019      5021      5009      5007      5019      5022
      5010      5013      5014      5015      5010      5013      5014      5016
      5011      5010      5013      5014      5012      5010      5013      5014
      5013      5014      5016      5017      5013      5014      5016      5018
      5013      5014      5016      5066      5014      5016      5066      5067
      5014      5016      5066      5068      5014      5016      5066      5069
      5015      5014      5016      5017      5015      5014      5016      5018
      5015      5014      5016      5066      5016      5066      5069      5070
      5016      5066      5069      5071      5016      5066      5069      5072
      5017      5016      5066      5067      5017      5016      5066      5068
      5017      5016      5066      5069      5018      5016      5066      5067
      5018      5016      5066      5068      5018      5016      5066      5069
      5019      5022      5025      5026      5019      5022      5025      5027
      5019      5022      5025      5028      5020      5019      5022      5023
      5020      5019      5022      5024      5020      5019      5022      5025
      5021      5019      5022      5023      5021      5019      5022      5024
      5021      5019      5022      5025      5022      5025      5028      5029
      5022      5025      5028      5030      5022      5025      5028      5031
      5023      5022      5025      5026      5023      5022      5025      5027
      5023      5022      5025      5028      5024      5022      5025      5026
      5024      5022      5025      5027      5024      5022      5025      5028
      5025      5028      5031      5032      5025      5028      5031      5033
      5025      5028      5031      5034      5026      5025      5028      5029
      5026      5025      5028      5030      5026      5025      5028      5031
      5027      5025      5028      5029      5027      5025      5028      5030
      5027      5025      5028      5031      5028      5031      5034      5035
      5028      5031      5034      5036      5028      5031      5034      5037
      5029      5028      5031      5032      5029      5028      5031      5033
      5029      5028      5031      5034      5030      5028      5031      5032
      5030      5028      5031      5033      5030      5028      5031      5034
      5031      5034      5037      5038      5031      5034      5037      5039
      5032      5031      5034      5035      5032      5031      5034      5036
      5032      5031      5034      5037      5033      5031      5034      5035
      5033      5031      5034      5036      5033      5031      5034      5037
      5034      5037      5039      5040      5034      5037      5039      5041
      5035      5034      5037      5038      5035      5034      5037      5039
      5036      5034      5037      5038      5036      5034      5037      5039
      5037      5039      5041      5042      5037      5039      5041      5043
      5037      5039      5041      5044      5038      5037      5039      5040
      5038      5037      5039      5041      5039      5041      5044      5045
      5039      5041      5044      5046      5039      5041      5044      5047
      5040      5039      5041      5042      5040      5039      5041      5043
      5040      5039      5041      5044      5041      5044      5047      5048
      5041      5044      5047      5049      5041      5044      5047      5050
      5042      5041      5044      5045      5042      5041      5044      5046
      5042      5041      5044      5047      5043      5041      5044      5045
      5043      5041      5044      5046      5043      5041      5044      5047
      5044      5047      5050      5051      5044      5047      5050      5052
      5044      5047      5050      5053      5045      5044      5047      5048
      5045      5044      5047      5049      5045      5044      5047      5050
      5046      5044      5047      5048      5046      5044      5047      5049
      5046      5044      5047      5050      5047      5050      5053      5054
      5047      5050      5053      5055      5047      5050      5053      5056
      5048      5047      5050      5051      5048      5047      5050      5052
      5048      5047      5050      5053      5049      5047      5050      5051
      5049      5047      5050      5052      5049      5047      5050      5053
      5050      5053      5056      5057      5050      5053      5056      5058
      5050      5053      5056      5059      5051      5050      5053      5054
      5051      5050      5053      5055      5051      5050      5053      5056
      5052      5050      5053      5054      5052      5050      5053      5055
      5052      5050      5053      5056      5053      5056      5059      5060
      5053      5056      5059      5061      5053      5056      5059      5062
      5054      5053      5056      5057      5054      5053      5056      5058
      5054      5053      5056      5059      5055      5053      5056      5057
      5055      5053      5056      5058      5055      5053      5056      5059
      5056      5059      5062      5063      5056      5059      5062      5064
      5056      5059      5062      5065      5057      5056      5059      5060
      5057      5056      5059      5061      5057      5056      5059      5062
      5058      5056      5059      5060      5058      5056      5059      5061
      5058      5056      5059      5062      5060      5059      5062      5063
      5060      5059      5062      5064      5060      5059      5062      5065
      5061      5059      5062      5063      5061      5059      5062      5064
      5061      5059      5062      5065      5066      5069      5072      5073
      5066      5069      5072      5074      5066      5069      5072      5075
      5067      5066      5069      5070      5067      5066      5069      5071
      5067      5066      5069      5072      5068      5066      5069      5070
      5068      5066      5069      5071      5068      5066      5069      5072
      5069      5072      5075      5076      5069      5072      5075      5077
      5069      5072      5075      5078      5070      5069      5072      5073
      5070      5069      5072      5074      5070      5069      5072      5075
      5071      5069      5072      5073      5071      5069      5072      5074
      5071      5069      5072      5075      5072      5075      5078      5079
      5072      5075      5078      5080      5072      5075      5078      5081
      5073      5072      5075      5076      5073      5072      5075      5077
      5073      5072      5075      5078      5074      5072      5075      5076
      5074      5072      5075      5077      5074      5072      5075      5078
      5075      5078      5081      5082      5075      5078      5081      5083
      5075      5078      5081      5084      5076      5075      5078      5079
      5076      5075      5078      5080      5076      5075      5078      5081
      5077      5075      5078      5079      5077      5075      5078      5080
      5077      5075      5078      5081      5078      5081      5084      5085
      5078      5081      5084      5086      5078      5081      5084      5087
      5079      5078      5081      5082      5079      5078      5081      5083
      5079      5078      5081      5084      5080      5078      5081      5082
      5080      5078      5081      5083      5080      5078      5081      5084
      5081      5084      5087      5088      5081      5084      5087      5089
      5081      5084      5087      5090      5082      5081      5084      5085
      5082      5081      5084      5086      5082      5081      5084      5087
      5083      5081      5084      5085      5083      5081      5084      5086
      5083      5081      5084      5087      5084      5087      5090      5091
      5084      5087      5090      5092      5084      5087      5090      5093
      5085      5084      5087      5088      5085      5084      5087      5089
      5085      5084      5087      5090      5086      5084      5087      5088
      5086      5084      5087      5089      5086      5084      5087      5090
      5087      5090      5093      5094      5087      5090      5093      5095
      5087      5090      5093      5096      5088      5087      5090      5091
      5088      5087      5090      5092      5088      5087      5090      5093
      5089      5087      5090      5091      5089      5087      5090      5092
      5089      5087      5090      5093      5090      5093      5096      5097
      5090      5093      5096      5098      5090      5093      5096      5099
      5091      5090      5093      5094      5091      5090      5093      5095
      5091      5090      5093      5096      5092      5090      5093      5094
      5092      5090      5093      5095      5092      5090      5093      5096
      5093      5096      5099      5100      5093      5096      5099      5101
      5093      5096      5099      5102      5094      5093      5096      5097
      5094      5093      5096      5098      5094      5093      5096      5099
      5095      5093      5096      5097      5095      5093      5096      5098
      5095      5093      5096      5099      5096      5099      5102      5103
      5096      5099      5102      5104      5096      5099      5102      5105
      5097      5096      5099      5100      5097      5096      5099      5101
      5097      5096      5099      5102      5098      5096      5099      5100
      5098      5096      5099      5101      5098      5096      5099      5102
      5099      5102      5105      5106      5099      5102      5105      5107
      5099      5102      5105      5108      5100      5099      5102      5103
      5100      5099      5102      5104      5100      5099      5102      5105
      5101      5099      5102      5103      5101      5099      5102      5104
      5101      5099      5102      5105      5103      5102      5105      5106
      5103      5102      5105      5107      5103      5102      5105      5108
      5104      5102      5105      5106      5104      5102      5105      5107
      5104      5102      5105      5108      5109      5110      5125      5126
      5109      5110      5125      5127      5109      5110      5125      5131
      5110      5109      5113      5114      5110      5109      5113      5115
      5110      5109      5113      5116      5110      5109      5117      5118
      5110      5109      5117      5119      5110      5109      5117      5120
      5110      5109      5121      5122      5110      5109      5121      5123
      5110      5109      5121      5124      5110      5125      5131      5128
      5111      5110      5109      5113      5111      5110      5109      5117
      5111      5110      5109      5121      5111      5110      5125      5126
      5111      5110      5125      5127      5111      5110      5125      5131
      5112      5110      5109      5113      5112      5110      5109      5117
      5112      5110      5109      5121      5112      5110      5125      5126
      5112      5110      5125      5127      5112      5110      5125      5131
      5113      5109      5110      5125      5113      5109      5117      5118
      5113      5109      5117      5119      5113      5109      5117      5120
      5113      5109      5121      5122      5113      5109      5121      5123
      5113      5109      5121      5124      5114      5113      5109      5117
      5114      5113      5109      5121      5115      5113      5109      5117
      5115      5113      5109      5121      5116      5113      5109      5117
      5116      5113      5109      5121      5117      5109      5110      5125
      5117      5109      5121      5122      5117      5109      5121      5123
      5117      5109      5121      5124      5118      5117      5109      5121
      5119      5117      5109      5121      5120      5117      5109      5121
      5121      5109      5110      5125      5125      5131      5128      5129
      5125      5131      5128      5130      5125      5131      5128      5132
      5126      5125      5131      5128      5127      5125      5131      5128
      5128      5132      5133      5134      5128      5132      5133      5135
      5128      5132      5133      5136      5129      5128      5132      5133
      5130      5128      5132      5133      5131      5128      5132      5133
      5132      5133      5136      5137      5132      5133      5136      5138
      5132      5133      5136      5144      5133      5136      5138      5139
      5133      5136      5144      5145      5133      5136      5144      5146
      5133      5136      5144      5147      5134      5133      5136      5137
      5134      5133      5136      5138      5134      5133      5136      5144
      5135      5133      5136      5137      5135      5133      5136      5138
      5135      5133      5136      5144      5136      5138      5139      5140
      5136      5138      5139      5141      5136      5144      5147      5148
      5137      5136      5138      5139      5137      5136      5144      5145
      5137      5136      5144      5146      5137      5136      5144      5147
      5138      5136      5144      5145      5138      5136      5144      5146
      5138      5136      5144      5147      5138      5139      5141      5142
      5138      5139      5141      5143      5138      5139      5141      5153
      5139      5138      5136      5144      5139      5141      5153      5154
      5139      5141      5153      5155      5139      5141      5153      5156
      5140      5139      5141      5142      5140      5139      5141      5143
      5140      5139      5141      5153      5141      5153      5156      5157
      5141      5153      5156      5158      5141      5153      5156      5159
      5142      5141      5153      5154      5142      5141      5153      5155
      5142      5141      5153      5156      5143      5141      5153      5154
      5143      5141      5153      5155      5143      5141      5153      5156
      5144      5147      5148      5149      5144      5147      5148      5150
      5145      5144      5147      5148      5146      5144      5147      5148
      5147      5148      5150      5151      5147      5148      5150      5152
      5147      5148      5150      5200      5148      5150      5200      5201
      5148      5150      5200      5202      5148      5150      5200      5203
      5149      5148      5150      5151      5149      5148      5150      5152
      5149      5148      5150      5200      5150      5200      5203      5204
      5150      5200      5203      5205      5150      5200      5203      5206
      5151      5150      5200      5201      5151      5150      5200      5202
      5151      5150      5200      5203      5152      5150      5200      5201
      5152      5150      5200      5202      5152      5150      5200      5203
      5153      5156      5159      5160      5153      5156      5159      5161
      5153      5156      5159      5162      5154      5153      5156      5157
      5154      5153      5156      5158      5154      5153      5156      5159
      5155      5153      5156      5157      5155      5153      5156      5158
      5155      5153      5156      5159      5156      5159      5162      5163
      5156      5159      5162      5164      5156      5159      5162      5165
      5157      5156      5159      5160      5157      5156      5159      5161
      5157      5156      5159      5162      5158      5156      5159      5160
      5158      5156      5159      5161      5158      5156      5159      5162
      5159      5162      5165      5166      5159      5162      5165      5167
      5159      5162      5165      5168      5160      5159      5162      5163
      5160      5159      5162      5164      5160      5159      5162      5165
      5161      5159      5162      5163      5161      5159      5162      5164
      5161      5159      5162      5165      5162      5165      5168      5169
      5162      5165      5168      5170      5162      5165      5168      5171
      5163      5162      5165      5166      5163      5162      5165      5167
      5163      5162      5165      5168      5164      5162      5165      5166
      5164      5162      5165      5167      5164      5162      5165      5168
      5165      5168      5171      5172      5165      5168      5171      5173
      5166      5165      5168      5169      5166      5165      5168      5170
      5166      5165      5168      5171      5167      5165      5168      5169
      5167      5165      5168      5170      5167      5165      5168      5171
      5168      5171      5173      5174      5168      5171      5173      5175
      5169      5168      5171      5172      5169      5168      5171      5173
      5170      5168      5171      5172      5170      5168      5171      5173
      5171      5173      5175      5176      5171      5173      5175      5177
      5171      5173      5175      5178      5172      5171      5173      5174
      5172      5171      5173      5175      5173      5175      5178      5179
      5173      5175      5178      5180      5173      5175      5178      5181
      5174      5173      5175      5176      5174      5173      5175      5177
      5174      5173      5175      5178      5175      5178      5181      5182
      5175      5178      5181      5183      5175      5178      5181      5184
      5176      5175      5178      5179      5176      5175      5178      5180
      5176      5175      5178      5181      5177      5175      5178      5179
      5177      5175      5178      5180      5177      5175      5178      5181
      5178      5181      5184      5185      5178      5181      5184      5186
      5178      5181      5184      5187      5179      5178      5181      5182
      5179      5178      5181      5183      5179      5178      5181      5184
      5180      5178      5181      5182      5180      5178      5181      5183
      5180      5178      5181      5184      5181      5184      5187      5188
      5181      5184      5187      5189      5181      5184      5187      5190
      5182      5181      5184      5185      5182      5181      5184      5186
      5182      5181      5184      5187      5183      5181      5184      5185
      5183      5181      5184      5186      5183      5181      5184      5187
      5184      5187      5190      5191      5184      5187      5190      5192
      5184      5187      5190      5193      5185      5184      5187      5188
      5185      5184      5187      5189      5185      5184      5187      5190
      5186      5184      5187      5188      5186      5184      5187      5189
      5186      5184      5187      5190      5187      5190      5193      5194
      5187      5190      5193      5195      5187      5190      5193      5196
      5188      5187      5190      5191      5188      5187      5190      5192
      5188      5187      5190      5193      5189      5187      5190      5191
      5189      5187      5190      5192      5189      5187      5190      5193
      5190      5193      5196      5197      5190      5193      5196      5198
      5190      5193      5196      5199      5191      5190      5193      5194
      5191      5190      5193      5195      5191      5190      5193      5196
      5192      5190      5193      5194      5192      5190      5193      5195
      5192      5190      5193      5196      5194      5193      5196      5197
      5194      5193      5196      5198      5194      5193      5196      5199
      5195      5193      5196      5197      5195      5193      5196      5198
      5195      5193      5196      5199      5200      5203      5206      5207
      5200      5203      5206      5208      5200      5203      5206      5209
      5201      5200      5203      5204      5201      5200      5203      5205
      5201      5200      5203      5206      5202      5200      5203      5204
      5202      5200      5203      5205      5202      5200      5203      5206
      5203      5206      5209      5210      5203      5206      5209      5211
      5203      5206      5209      5212      5204      5203      5206      5207
      5204      5203      5206      5208      5204      5203      5206      5209
      5205      5203      5206      5207      5205      5203      5206      5208
      5205      5203      5206      5209      5206      5209      5212      5213
      5206      5209      5212      5214      5206      5209      5212      5215
      5207      5206      5209      5210      5207      5206      5209      5211
      5207      5206      5209      5212      5208      5206      5209      5210
      5208      5206      5209      5211      5208      5206      5209      5212
      5209      5212      5215      5216      5209      5212      5215      5217
      5209      5212      5215      5218      5210      5209      5212      5213
      5210      5209      5212      5214      5210      5209      5212      5215
      5211      5209      5212      5213      5211      5209      5212      5214
      5211      5209      5212      5215      5212      5215      5218      5219
      5212      5215      5218      5220      5212      5215      5218      5221
      5213      5212      5215      5216      5213      5212      5215      5217
      5213      5212      5215      5218      5214      5212      5215      5216
      5214      5212      5215      5217      5214      5212      5215      5218
      5215      5218      5221      5222      5215      5218      5221      5223
      5215      5218      5221      5224      5216      5215      5218      5219
      5216      5215      5218      5220      5216      5215      5218      5221
      5217      5215      5218      5219      5217      5215      5218      5220
      5217      5215      5218      5221      5218      5221      5224      5225
      5218      5221      5224      5226      5218      5221      5224      5227
      5219      5218      5221      5222      5219      5218      5221      5223
      5219      5218      5221      5224      5220      5218      5221      5222
      5220      5218      5221      5223      5220      5218      5221      5224
      5221      5224      5227      5228      5221      5224      5227      5229
      5221      5224      5227      5230      5222      5221      5224      5225
      5222      5221      5224      5226      5222      5221      5224      5227
      5223      5221      5224      5225      5223      5221      5224      5226
      5223      5221      5224      5227      5224      5227      5230      5231
      5224      5227      5230      5232      5224      5227      5230      5233
      5225      5224      5227      5228      5225      5224      5227      5229
      5225      5224      5227      5230      5226      5224      5227      5228
      5226      5224      5227      5229      5226      5224      5227      5230
      5227      5230      5233      5234      5227      5230      5233      5235
      5227      5230      5233      5236      5228      5227      5230      5231
      5228      5227      5230      5232      5228      5227      5230      5233
      5229      5227      5230      5231      5229      5227      5230      5232
      5229      5227      5230      5233      5230      5233      5236      5237
      5230      5233      5236      5238      5230      5233      5236      5239
      5231      5230      5233      5234      5231      5230      5233      5235
      5231      5230      5233      5236      5232      5230      5233      5234
      5232      5230      5233      5235      5232      5230      5233      5236
      5233      5236      5239      5240      5233      5236      5239      5241
      5233      5236      5239      5242      5234      5233      5236      5237
      5234      5233      5236      5238      5234      5233      5236      5239
      5235      5233      5236      5237      5235      5233      5236      5238
      5235      5233      5236      5239      5237      5236      5239      5240
      5237      5236      5239      5241      5237      5236      5239      5242
      5238      5236      5239      5240      5238      5236      5239      5241
      5238      5236      5239      5242      5243      5244      5259      5260
      5243      5244      5259      5261      5243      5244      5259      5265
      5244      5243      5247      5248      5244      5243      5247      5249
      5244      5243      5247      5250      5244      5243      5251      5252
      5244      5243      5251      5253      5244      5243      5251      5254
      5244      5243      5255      5256      5244      5243      5255      5257
      5244      5243      5255      5258      5244      5259      5265      5262
      5245      5244      5243      5247      5245      5244      5243      5251
      5245      5244      5243      5255      5245      5244      5259      5260
      5245      5244      5259      5261      5245      5244      5259      5265
      5246      5244      5243      5247      5246      5244      5243      5251
      5246      5244      5243      5255      5246      5244      5259      5260
      5246      5244      5259      5261      5246      5244      5259      5265
      5247      5243      5244      5259      5247      5243      5251      5252
      5247      5243      5251      5253      5247      5243      5251      5254
      5247      5243      5255      5256      5247      5243      5255      5257
      5247      5243      5255      5258      5248      5247      5243      5251
      5248      5247      5243      5255      5249      5247      5243      5251
      5249      5247      5243      5255      5250      5247      5243      5251
      5250      5247      5243      5255      5251      5243      5244      5259
      5251      5243      5255      5256      5251      5243      5255      5257
      5251      5243      5255      5258      5252      5251      5243      5255
      5253      5251      5243      5255      5254      5251      5243      5255
      5255      5243      5244      5259      5259      5265      5262      5263
      5259      5265      5262      5264      5259      5265      5262      5266
      5260      5259      5265      5262      5261      5259      5265      5262
      5262      5266      5267      5268      5262      5266      5267      5269
      5262      5266      5267      5270      5263      5262      5266      5267
      5264      5262      5266      5267      5265      5262      5266      5267
      5266      5267      5270      5271      5266      5267      5270      5272
      5266      5267      5270      5278      5267      5270      5272      5273
      5267      5270      5278      5279      5267      5270      5278      5280
      5267      5270      5278      5281      5268      5267      5270      5271
      5268      5267      5270      5272      5268      5267      5270      5278
      5269      5267      5270      5271      5269      5267      5270      5272
      5269      5267      5270      5278      5270      5272      5273      5274
      5270      5272      5273      5275      5270      5278      5281      5282
      5271      5270      5272      5273      5271      5270      5278      5279
      5271      5270      5278      5280      5271      5270      5278      5281
      5272      5270      5278      5279      5272      5270      5278      5280
      5272      5270      5278      5281      5272      5273      5275      5276
      5272      5273      5275      5277      5272      5273      5275      5287
      5273      5272      5270      5278      5273      5275      5287      5288
      5273      5275      5287      5289      5273      5275      5287      5290
      5274      5273      5275      5276      5274      5273      5275      5277
      5274      5273      5275      5287      5275      5287      5290      5291
      5275      5287      5290      5292      5275      5287      5290      5293
      5276      5275      5287      5288      5276      5275      5287      5289
      5276      5275      5287      5290      5277      5275      5287      5288
      5277      5275      5287      5289      5277      5275      5287      5290
      5278      5281      5282      5283      5278      5281      5282      5284
      5279      5278      5281      5282      5280      5278      5281      5282
      5281      5282      5284      5285      5281      5282      5284      5286
      5281      5282      5284      5334      5282      5284      5334      5335
      5282      5284      5334      5336      5282      5284      5334      5337
      5283      5282      5284      5285      5283      5282      5284      5286
      5283      5282      5284      5334      5284      5334      5337      5338
      5284      5334      5337      5339      5284      5334      5337      5340
      5285      5284      5334      5335      5285      5284      5334      5336
      5285      5284      5334      5337      5286      5284      5334      5335
      5286      5284      5334      5336      5286      5284      5334      5337
      5287      5290      5293      5294      5287      5290      5293      5295
      5287      5290      5293      5296      5288      5287      5290      5291
      5288      5287      5290      5292      5288      5287      5290      5293
      5289      5287      5290      5291      5289      5287      5290      5292
      5289      5287      5290      5293      5290      5293      5296      5297
      5290      5293      5296      5298      5290      5293      5296      5299
      5291      5290      5293      5294      5291      5290      5293      5295
      5291      5290      5293      5296      5292      5290      5293      5294
      5292      5290      5293      5295      5292      5290      5293      5296
      5293      5296      5299      5300      5293      5296      5299      5301
      5293      5296      5299      5302      5294      5293      5296      5297
      5294      5293      5296      5298      5294      5293      5296      5299
      5295      5293      5296      5297      5295      5293      5296      5298
      5295      5293      5296      5299      5296      5299      5302      5303
      5296      5299      5302      5304      5296      5299      5302      5305
      5297      5296      5299      5300      5297      5296      5299      5301
      5297      5296      5299      5302      5298      5296      5299      5300
      5298      5296      5299      5301      5298      5296      5299      5302
      5299      5302      5305      5306      5299      5302      5305      5307
      5300      5299      5302      5303      5300      5299      5302      5304
      5300      5299      5302      5305      5301      5299      5302      5303
      5301      5299      5302      5304      5301      5299      5302      5305
      5302      5305      5307      5308      5302      5305      5307      5309
      5303      5302      5305      5306      5303      5302      5305      5307
      5304      5302      5305      5306      5304      5302      5305      5307
      5305      5307      5309      5310      5305      5307      5309      5311
      5305      5307      5309      5312      5306      5305      5307      5308
      5306      5305      5307      5309      5307      5309      5312      5313
      5307      5309      5312      5314      5307      5309      5312      5315
      5308      5307      5309      5310      5308      5307      5309      5311
      5308      5307      5309      5312      5309      5312      5315      5316
      5309      5312      5315      5317      5309      5312      5315      5318
      5310      5309      5312      5313      5310      5309      5312      5314
      5310      5309      5312      5315      5311      5309      5312      5313
      5311      5309      5312      5314      5311      5309      5312      5315
      5312      5315      5318      5319      5312      5315      5318      5320
      5312      5315      5318      5321      5313      5312      5315      5316
      5313      5312      5315      5317      5313      5312      5315      5318
      5314      5312      5315      5316      5314      5312      5315      5317
      5314      5312      5315      5318      5315      5318      5321      5322
      5315      5318      5321      5323      5315      5318      5321      5324
      5316      5315      5318      5319      5316      5315      5318      5320
      5316      5315      5318      5321      5317      5315      5318      5319
      5317      5315      5318      5320      5317      5315      5318      5321
      5318      5321      5324      5325      5318      5321      5324      5326
      5318      5321      5324      5327      5319      5318      5321      5322
      5319      5318      5321      5323      5319      5318      5321      5324
      5320      5318      5321      5322      5320      5318      5321      5323
      5320      5318      5321      5324      5321      5324      5327      5328
      5321      5324      5327      5329      5321      5324      5327      5330
      5322      5321      5324      5325      5322      5321      5324      5326
      5322      5321      5324      5327      5323      5321      5324      5325
      5323      5321      5324      5326      5323      5321      5324      5327
      5324      5327      5330      5331      5324      5327      5330      5332
      5324      5327      5330      5333      5325      5324      5327      5328
      5325      5324      5327      5329      5325      5324      5327      5330
      5326      5324      5327      5328      5326      5324      5327      5329
      5326      5324      5327      5330      5328      5327      5330      5331
      5328      5327      5330      5332      5328      5327      5330      5333
      5329      5327      5330      5331      5329      5327      5330      5332
      5329      5327      5330      5333      5334      5337      5340      5341
      5334      5337      5340      5342      5334      5337      5340      5343
      5335      5334      5337      5338      5335      5334      5337      5339
      5335      5334      5337      5340      5336      5334      5337      5338
      5336      5334      5337      5339      5336      5334      5337      5340
      5337      5340      5343      5344      5337      5340      5343      5345
      5337      5340      5343      5346      5338      5337      5340      5341
      5338      5337      5340      5342      5338      5337      5340      5343
      5339      5337      5340      5341      5339      5337      5340      5342
      5339      5337      5340      5343      5340      5343      5346      5347
      5340      5343      5346      5348      5340      5343      5346      5349
      5341      5340      5343      5344      5341      5340      5343      5345
      5341      5340      5343      5346      5342      5340      5343      5344
      5342      5340      5343      5345      5342      5340      5343      5346
      5343      5346      5349      5350      5343      5346      5349      5351
      5343      5346      5349      5352      5344      5343      5346      5347
      5344      5343      5346      5348      5344      5343      5346      5349
      5345      5343      5346      5347      5345      5343      5346      5348
      5345      5343      5346      5349      5346      5349      5352      5353
      5346      5349      5352      5354      5346      5349      5352      5355
      5347      5346      5349      5350      5347      5346      5349      5351
      5347      5346      5349      5352      5348      5346      5349      5350
      5348      5346      5349      5351      5348      5346      5349      5352
      5349      5352      5355      5356      5349      5352      5355      5357
      5349      5352      5355      5358      5350      5349      5352      5353
      5350      5349      5352      5354      5350      5349      5352      5355
      5351      5349      5352      5353      5351      5349      5352      5354
      5351      5349      5352      5355      5352      5355      5358      5359
      5352      5355      5358      5360      5352      5355      5358      5361
      5353      5352      5355      5356      5353      5352      5355      5357
      5353      5352      5355      5358      5354      5352      5355      5356
      5354      5352      5355      5357      5354      5352      5355      5358
      5355      5358      5361      5362      5355      5358      5361      5363
      5355      5358      5361      5364      5356      5355      5358      5359
      5356      5355      5358      5360      5356      5355      5358      5361
      5357      5355      5358      5359      5357      5355      5358      5360
      5357      5355      5358      5361      5358      5361      5364      5365
      5358      5361      5364      5366      5358      5361      5364      5367
      5359      5358      5361      5362      5359      5358      5361      5363
      5359      5358      5361      5364      5360      5358      5361      5362
      5360      5358      5361      5363      5360      5358      5361      5364
      5361      5364      5367      5368      5361      5364      5367      5369
      5361      5364      5367      5370      5362      5361      5364      5365
      5362      5361      5364      5366      5362      5361      5364      5367
      5363      5361      5364      5365      5363      5361      5364      5366
      5363      5361      5364      5367      5364      5367      5370      5371
      5364      5367      5370      5372      5364      5367      5370      5373
      5365      5364      5367      5368      5365      5364      5367      5369
      5365      5364      5367      5370      5366      5364      5367      5368
      5366      5364      5367      5369      5366      5364      5367      5370
      5367      5370      5373      5374      5367      5370      5373      5375
      5367      5370      5373      5376      5368      5367      5370      5371
      5368      5367      5370      5372      5368      5367      5370      5373
      5369      5367      5370      5371      5369      5367      5370      5372
      5369      5367      5370      5373      5371      5370      5373      5374
      5371      5370      5373      5375      5371      5370      5373      5376
      5372      5370      5373      5374      5372      5370      5373      5375
      5372      5370      5373      5376      5377      5378      5393      5394
      5377      5378      5393      5395      5377      5378      5393      5399
      5378      5377      5381      5382      5378      5377      5381      5383
      5378      5377      5381      5384      5378      5377      5385      5386
      5378      5377      5385      5387      5378      5377      5385      5388
      5378      5377      5389      5390      5378      5377      5389      5391
      5378      5377      5389      5392      5378      5393      5399      5396
      5379      5378      5377      5381      5379      5378      5377      5385
      5379      5378      5377      5389      5379      5378      5393      5394
      5379      5378      5393      5395      5379      5378      5393      5399
      5380      5378      5377      5381      5380      5378      5377      5385
      5380      5378      5377      5389      5380      5378      5393      5394
      5380      5378      5393      5395      5380      5378      5393      5399
      5381      5377      5378      5393      5381      5377      5385      5386
      5381      5377      5385      5387      5381      5377      5385      5388
      5381      5377      5389      5390      5381      5377      5389      5391
      5381      5377      5389      5392      5382      5381      5377      5385
      5382      5381      5377      5389      5383      5381      5377      5385
      5383      5381      5377      5389      5384      5381      5377      5385
      5384      5381      5377      5389      5385      5377      5378      5393
      5385      5377      5389      5390      5385      5377      5389      5391
      5385      5377      5389      5392      5386      5385      5377      5389
      5387      5385      5377      5389      5388      5385      5377      5389
      5389      5377      5378      5393      5393      5399      5396      5397
      5393      5399      5396      5398      5393      5399      5396      5400
      5394      5393      5399      5396      5395      5393      5399      5396
      5396      5400      5401      5402      5396      5400      5401      5403
      5396      5400      5401      5404      5397      5396      5400      5401
      5398      5396      5400      5401      5399      5396      5400      5401
      5400      5401      5404      5405      5400      5401      5404      5406
      5400      5401      5404      5412      5401      5404      5406      5407
      5401      5404      5412      5413      5401      5404      5412      5414
      5401      5404      5412      5415      5402      5401      5404      5405
      5402      5401      5404      5406      5402      5401      5404      5412
      5403      5401      5404      5405      5403      5401      5404      5406
      5403      5401      5404      5412      5404      5406      5407      5408
      5404      5406      5407      5409      5404      5412      5415      5416
      5405      5404      5406      5407      5405      5404      5412      5413
      5405      5404      5412      5414      5405      5404      5412      5415
      5406      5404      5412      5413      5406      5404      5412      5414
      5406      5404      5412      5415      5406      5407      5409      5410
      5406      5407      5409      5411      5406      5407      5409      5421
      5407      5406      5404      5412      5407      5409      5421      5422
      5407      5409      5421      5423      5407      5409      5421      5424
      5408      5407      5409      5410      5408      5407      5409      5411
      5408      5407      5409      5421      5409      5421      5424      5425
      5409      5421      5424      5426      5409      5421      5424      5427
      5410      5409      5421      5422      5410      5409      5421      5423
      5410      5409      5421      5424      5411      5409      5421      5422
      5411      5409      5421      5423      5411      5409      5421      5424
      5412      5415      5416      5417      5412      5415      5416      5418
      5413      5412      5415      5416      5414      5412      5415      5416
      5415      5416      5418      5419      5415      5416      5418      5420
      5415      5416      5418      5468      5416      5418      5468      5469
      5416      5418      5468      5470      5416      5418      5468      5471
      5417      5416      5418      5419      5417      5416      5418      5420
      5417      5416      5418      5468      5418      5468      5471      5472
      5418      5468      5471      5473      5418      5468      5471      5474
      5419      5418      5468      5469      5419      5418      5468      5470
      5419      5418      5468      5471      5420      5418      5468      5469
      5420      5418      5468      5470      5420      5418      5468      5471
      5421      5424      5427      5428      5421      5424      5427      5429
      5421      5424      5427      5430      5422      5421      5424      5425
      5422      5421      5424      5426      5422      5421      5424      5427
      5423      5421      5424      5425      5423      5421      5424      5426
      5423      5421      5424      5427      5424      5427      5430      5431
      5424      5427      5430      5432      5424      5427      5430      5433
      5425      5424      5427      5428      5425      5424      5427      5429
      5425      5424      5427      5430      5426      5424      5427      5428
      5426      5424      5427      5429      5426      5424      5427      5430
      5427      5430      5433      5434      5427      5430      5433      5435
      5427      5430      5433      5436      5428      5427      5430      5431
      5428      5427      5430      5432      5428      5427      5430      5433
      5429      5427      5430      5431      5429      5427      5430      5432
      5429      5427      5430      5433      5430      5433      5436      5437
      5430      5433      5436      5438      5430      5433      5436      5439
      5431      5430      5433      5434      5431      5430      5433      5435
      5431      5430      5433      5436      5432      5430      5433      5434
      5432      5430      5433      5435      5432      5430      5433      5436
      5433      5436      5439      5440      5433      5436      5439      5441
      5434      5433      5436      5437      5434      5433      5436      5438
      5434      5433      5436      5439      5435      5433      5436      5437
      5435      5433      5436      5438      5435      5433      5436      5439
      5436      5439      5441      5442      5436      5439      5441      5443
      5437      5436      5439      5440      5437      5436      5439      5441
      5438      5436      5439      5440      5438      5436      5439      5441
      5439      5441      5443      5444      5439      5441      5443      5445
      5439      5441      5443      5446      5440      5439      5441      5442
      5440      5439      5441      5443      5441      5443      5446      5447
      5441      5443      5446      5448      5441      5443      5446      5449
      5442      5441      5443      5444      5442      5441      5443      5445
      5442      5441      5443      5446      5443      5446      5449      5450
      5443      5446      5449      5451      5443      5446      5449      5452
      5444      5443      5446      5447      5444      5443      5446      5448
      5444      5443      5446      5449      5445      5443      5446      5447
      5445      5443      5446      5448      5445      5443      5446      5449
      5446      5449      5452      5453      5446      5449      5452      5454
      5446      5449      5452      5455      5447      5446      5449      5450
      5447      5446      5449      5451      5447      5446      5449      5452
      5448      5446      5449      5450      5448      5446      5449      5451
      5448      5446      5449      5452      5449      5452      5455      5456
      5449      5452      5455      5457      5449      5452      5455      5458
      5450      5449      5452      5453      5450      5449      5452      5454
      5450      5449      5452      5455      5451      5449      5452      5453
      5451      5449      5452      5454      5451      5449      5452      5455
      5452      5455      5458      5459      5452      5455      5458      5460
      5452      5455      5458      5461      5453      5452      5455      5456
      5453      5452      5455      5457      5453      5452      5455      5458
      5454      5452      5455      5456      5454      5452      5455      5457
      5454      5452      5455      5458      5455      5458      5461      5462
      5455      5458      5461      5463      5455      5458      5461      5464
      5456      5455      5458      5459      5456      5455      5458      5460
      5456      5455      5458      5461      5457      5455      5458      5459
      5457      5455      5458      5460      5457      5455      5458      5461
      5458      5461      5464      5465      5458      5461      5464      5466
      5458      5461      5464      5467      5459      5458      5461      5462
      5459      5458      5461      5463      5459      5458      5461      5464
      5460      5458      5461      5462      5460      5458      5461      5463
      5460      5458      5461      5464      5462      5461      5464      5465
      5462      5461      5464      5466      5462      5461      5464      5467
      5463      5461      5464      5465      5463      5461      5464      5466
      5463      5461      5464      5467      5468      5471      5474      5475
      5468      5471      5474      5476      5468      5471      5474      5477
      5469      5468      5471      5472      5469      5468      5471      5473
      5469      5468      5471      5474      5470      5468      5471      5472
      5470      5468      5471      5473      5470      5468      5471      5474
      5471      5474      5477      5478      5471      5474      5477      5479
      5471      5474      5477      5480      5472      5471      5474      5475
      5472      5471      5474      5476      5472      5471      5474      5477
      5473      5471      5474      5475      5473      5471      5474      5476
      5473      5471      5474      5477      5474      5477      5480      5481
      5474      5477      5480      5482      5474      5477      5480      5483
      5475      5474      5477      5478      5475      5474      5477      5479
      5475      5474      5477      5480      5476      5474      5477      5478
      5476      5474      5477      5479      5476      5474      5477      5480
      5477      5480      5483      5484      5477      5480      5483      5485
      5477      5480      5483      5486      5478      5477      5480      5481
      5478      5477      5480      5482      5478      5477      5480      5483
      5479      5477      5480      5481      5479      5477      5480      5482
      5479      5477      5480      5483      5480      5483      5486      5487
      5480      5483      5486      5488      5480      5483      5486      5489
      5481      5480      5483      5484      5481      5480      5483      5485
      5481      5480      5483      5486      5482      5480      5483      5484
      5482      5480      5483      5485      5482      5480      5483      5486
      5483      5486      5489      5490      5483      5486      5489      5491
      5483      5486      5489      5492      5484      5483      5486      5487
      5484      5483      5486      5488      5484      5483      5486      5489
      5485      5483      5486      5487      5485      5483      5486      5488
      5485      5483      5486      5489      5486      5489      5492      5493
      5486      5489      5492      5494      5486      5489      5492      5495
      5487      5486      5489      5490      5487      5486      5489      5491
      5487      5486      5489      5492      5488      5486      5489      5490
      5488      5486      5489      5491      5488      5486      5489      5492
      5489      5492      5495      5496      5489      5492      5495      5497
      5489      5492      5495      5498      5490      5489      5492      5493
      5490      5489      5492      5494      5490      5489      5492      5495
      5491      5489      5492      5493      5491      5489      5492      5494
      5491      5489      5492      5495      5492      5495      5498      5499
      5492      5495      5498      5500      5492      5495      5498      5501
      5493      5492      5495      5496      5493      5492      5495      5497
      5493      5492      5495      5498      5494      5492      5495      5496
      5494      5492      5495      5497      5494      5492      5495      5498
      5495      5498      5501      5502      5495      5498      5501      5503
      5495      5498      5501      5504      5496      5495      5498      5499
      5496      5495      5498      5500      5496      5495      5498      5501
      5497      5495      5498      5499      5497      5495      5498      5500
      5497      5495      5498      5501      5498      5501      5504      5505
      5498      5501      5504      5506      5498      5501      5504      5507
      5499      5498      5501      5502      5499      5498      5501      5503
      5499      5498      5501      5504      5500      5498      5501      5502
      5500      5498      5501      5503      5500      5498      5501      5504
      5501      5504      5507      5508      5501      5504      5507      5509
      5501      5504      5507      5510      5502      5501      5504      5505
      5502      5501      5504      5506      5502      5501      5504      5507
      5503      5501      5504      5505      5503      5501      5504      5506
      5503      5501      5504      5507      5505      5504      5507      5508
      5505      5504      5507      5509      5505      5504      5507      5510
      5506      5504      5507      5508      5506      5504      5507      5509
      5506      5504      5507      5510      5511      5512      5527      5528
      5511      5512      5527      5529      5511      5512      5527      5533
      5512      5511      5515      5516      5512      5511      5515      5517
      5512      5511      5515      5518      5512      5511      5519      5520
      5512      5511      5519      5521      5512      5511      5519      5522
      5512      5511      5523      5524      5512      5511      5523      5525
      5512      5511      5523      5526      5512      5527      5533      5530
      5513      5512      5511      5515      5513      5512      5511      5519
      5513      5512      5511      5523      5513      5512      5527      5528
      5513      5512      5527      5529      5513      5512      5527      5533
      5514      5512      5511      5515      5514      5512      5511      5519
      5514      5512      5511      5523      5514      5512      5527      5528
      5514      5512      5527      5529      5514      5512      5527      5533
      5515      5511      5512      5527      5515      5511      5519      5520
      5515      5511      5519      5521      5515      5511      5519      5522
      5515      5511      5523      5524      5515      5511      5523      5525
      5515      5511      5523      5526      5516      5515      5511      5519
      5516      5515      5511      5523      5517      5515      5511      5519
      5517      5515      5511      5523      5518      5515      5511      5519
      5518      5515      5511      5523      5519      5511      5512      5527
      5519      5511      5523      5524      5519      5511      5523      5525
      5519      5511      5523      5526      5520      5519      5511      5523
      5521      5519      5511      5523      5522      5519      5511      5523
      5523      5511      5512      5527      5527      5533      5530      5531
      5527      5533      5530      5532      5527      5533      5530      5534
      5528      5527      5533      5530      5529      5527      5533      5530
      5530      5534      5535      5536      5530      5534      5535      5537
      5530      5534      5535      5538      5531      5530      5534      5535
      5532      5530      5534      5535      5533      5530      5534      5535
      5534      5535      5538      5539      5534      5535      5538      5540
      5534      5535      5538      5546      5535      5538      5540      5541
      5535      5538      5546      5547      5535      5538      5546      5548
      5535      5538      5546      5549      5536      5535      5538      5539
      5536      5535      5538      5540      5536      5535      5538      5546
      5537      5535      5538      5539      5537      5535      5538      5540
      5537      5535      5538      5546      5538      5540      5541      5542
      5538      5540      5541      5543      5538      5546      5549      5550
      5539      5538      5540      5541      5539      5538      5546      5547
      5539      5538      5546      5548      5539      5538      5546      5549
      5540      5538      5546      5547      5540      5538      5546      5548
      5540      5538      5546      5549      5540      5541      5543      5544
      5540      5541      5543      5545      5540      5541      5543      5555
      5541      5540      5538      5546      5541      5543      5555      5556
      5541      5543      5555      5557      5541      5543      5555      5558
      5542      5541      5543      5544      5542      5541      5543      5545
      5542      5541      5543      5555      5543      5555      5558      5559
      5543      5555      5558      5560      5543      5555      5558      5561
      5544      5543      5555      5556      5544      5543      5555      5557
      5544      5543      5555      5558      5545      5543      5555      5556
      5545      5543      5555      5557      5545      5543      5555      5558
      5546      5549      5550      5551      5546      5549      5550      5552
      5547      5546      5549      5550      5548      5546      5549      5550
      5549      5550      5552      5553      5549      5550      5552      5554
      5549      5550      5552      5602      5550      5552      5602      5603
      5550      5552      5602      5604      5550      5552      5602      5605
      5551      5550      5552      5553      5551      5550      5552      5554
      5551      5550      5552      5602      5552      5602      5605      5606
      5552      5602      5605      5607      5552      5602      5605      5608
      5553      5552      5602      5603      5553      5552      5602      5604
      5553      5552      5602      5605      5554      5552      5602      5603
      5554      5552      5602      5604      5554      5552      5602      5605
      5555      5558      5561      5562      5555      5558      5561      5563
      5555      5558      5561      5564      5556      5555      5558      5559
      5556      5555      5558      5560      5556      5555      5558      5561
      5557      5555      5558      5559      5557      5555      5558      5560
      5557      5555      5558      5561      5558      5561      5564      5565
      5558      5561      5564      5566      5558      5561      5564      5567
      5559      5558      5561      5562      5559      5558      5561      5563
      5559      5558      5561      5564      5560      5558      5561      5562
      5560      5558      5561      5563      5560      5558      5561      5564
      5561      5564      5567      5568      5561      5564      5567      5569
      5561      5564      5567      5570      5562      5561      5564      5565
      5562      5561      5564      5566      5562      5561      5564      5567
      5563      5561      5564      5565      5563      5561      5564      5566
      5563      5561      5564      5567      5564      5567      5570      5571
      5564      5567      5570      5572      5564      5567      5570      5573
      5565      5564      5567      5568      5565      5564      5567      5569
      5565      5564      5567      5570      5566      5564      5567      5568
      5566      5564      5567      5569      5566      5564      5567      5570
      5567      5570      5573      5574      5567      5570      5573      5575
      5568      5567      5570      5571      5568      5567      5570      5572
      5568      5567      5570      5573      5569      5567      5570      5571
      5569      5567      5570      5572      5569      5567      5570      5573
      5570      5573      5575      5576      5570      5573      5575      5577
      5571      5570      5573      5574      5571      5570      5573      5575
      5572      5570      5573      5574      5572      5570      5573      5575
      5573      5575      5577      5578      5573      5575      5577      5579
      5573      5575      5577      5580      5574      5573      5575      5576
      5574      5573      5575      5577      5575      5577      5580      5581
      5575      5577      5580      5582      5575      5577      5580      5583
      5576      5575      5577      5578      5576      5575      5577      5579
      5576      5575      5577      5580      5577      5580      5583      5584
      5577      5580      5583      5585      5577      5580      5583      5586
      5578      5577      5580      5581      5578      5577      5580      5582
      5578      5577      5580      5583      5579      5577      5580      5581
      5579      5577      5580      5582      5579      5577      5580      5583
      5580      5583      5586      5587      5580      5583      5586      5588
      5580      5583      5586      5589      5581      5580      5583      5584
      5581      5580      5583      5585      5581      5580      5583      5586
      5582      5580      5583      5584      5582      5580      5583      5585
      5582      5580      5583      5586      5583      5586      5589      5590
      5583      5586      5589      5591      5583      5586      5589      5592
      5584      5583      5586      5587      5584      5583      5586      5588
      5584      5583      5586      5589      5585      5583      5586      5587
      5585      5583      5586      5588      5585      5583      5586      5589
      5586      5589      5592      5593      5586      5589      5592      5594
      5586      5589      5592      5595      5587      5586      5589      5590
      5587      5586      5589      5591      5587      5586      5589      5592
      5588      5586      5589      5590      5588      5586      5589      5591
      5588      5586      5589      5592      5589      5592      5595      5596
      5589      5592      5595      5597      5589      5592      5595      5598
      5590      5589      5592      5593      5590      5589      5592      5594
      5590      5589      5592      5595      5591      5589      5592      5593
      5591      5589      5592      5594      5591      5589      5592      5595
      5592      5595      5598      5599      5592      5595      5598      5600
      5592      5595      5598      5601      5593      5592      5595      5596
      5593      5592      5595      5597      5593      5592      5595      5598
      5594      5592      5595      5596      5594      5592      5595      5597
      5594      5592      5595      5598      5596      5595      5598      5599
      5596      5595      5598      5600      5596      5595      5598      5601
      5597      5595      5598      5599      5597      5595      5598      5600
      5597      5595      5598      5601      5602      5605      5608      5609
      5602      5605      5608      5610      5602      5605      5608      5611
      5603      5602      5605      5606      5603      5602      5605      5607
      5603      5602      5605      5608      5604      5602      5605      5606
      5604      5602      5605      5607      5604      5602      5605      5608
      5605      5608      5611      5612      5605      5608      5611      5613
      5605      5608      5611      5614      5606      5605      5608      5609
      5606      5605      5608      5610      5606      5605      5608      5611
      5607      5605      5608      5609      5607      5605      5608      5610
      5607      5605      5608      5611      5608      5611      5614      5615
      5608      5611      5614      5616      5608      5611      5614      5617
      5609      5608      5611      5612      5609      5608      5611      5613
      5609      5608      5611      5614      5610      5608      5611      5612
      5610      5608      5611      5613      5610      5608      5611      5614
      5611      5614      5617      5618      5611      5614      5617      5619
      5611      5614      5617      5620      5612      5611      5614      5615
      5612      5611      5614      5616      5612      5611      5614      5617
      5613      5611      5614      5615      5613      5611      5614      5616
      5613      5611      5614      5617      5614      5617      5620      5621
      5614      5617      5620      5622      5614      5617      5620      5623
      5615      5614      5617      5618      5615      5614      5617      5619
      5615      5614      5617      5620      5616      5614      5617      5618
      5616      5614      5617      5619      5616      5614      5617      5620
      5617      5620      5623      5624      5617      5620      5623      5625
      5617      5620      5623      5626      5618      5617      5620      5621
      5618      5617      5620      5622      5618      5617      5620      5623
      5619      5617      5620      5621      5619      5617      5620      5622
      5619      5617      5620      5623      5620      5623      5626      5627
      5620      5623      5626      5628      5620      5623      5626      5629
      5621      5620      5623      5624      5621      5620      5623      5625
      5621      5620      5623      5626      5622      5620      5623      5624
      5622      5620      5623      5625      5622      5620      5623      5626
      5623      5626      5629      5630      5623      5626      5629      5631
      5623      5626      5629      5632      5624      5623      5626      5627
      5624      5623      5626      5628      5624      5623      5626      5629
      5625      5623      5626      5627      5625      5623      5626      5628
      5625      5623      5626      5629      5626      5629      5632      5633
      5626      5629      5632      5634      5626      5629      5632      5635
      5627      5626      5629      5630      5627      5626      5629      5631
      5627      5626      5629      5632      5628      5626      5629      5630
      5628      5626      5629      5631      5628      5626      5629      5632
      5629      5632      5635      5636      5629      5632      5635      5637
      5629      5632      5635      5638      5630      5629      5632      5633
      5630      5629      5632      5634      5630      5629      5632      5635
      5631      5629      5632      5633      5631      5629      5632      5634
      5631      5629      5632      5635      5632      5635      5638      5639
      5632      5635      5638      5640      5632      5635      5638      5641
      5633      5632      5635      5636      5633      5632      5635      5637
      5633      5632      5635      5638      5634      5632      5635      5636
      5634      5632      5635      5637      5634      5632      5635      5638
      5635      5638      5641      5642      5635      5638      5641      5643
      5635      5638      5641      5644      5636      5635      5638      5639
      5636      5635      5638      5640      5636      5635      5638      5641
      5637      5635      5638      5639      5637      5635      5638      5640
      5637      5635      5638      5641      5639      5638      5641      5642
      5639      5638      5641      5643      5639      5638      5641      5644
      5640      5638      5641      5642      5640      5638      5641      5643
      5640      5638      5641      5644      5645      5646      5661      5662
      5645      5646      5661      5663      5645      5646      5661      5667
      5646      5645      5649      5650      5646      5645      5649      5651
      5646      5645      5649      5652      5646      5645      5653      5654
      5646      5645      5653      5655      5646      5645      5653      5656
      5646      5645      5657      5658      5646      5645      5657      5659
      5646      5645      5657      5660      5646      5661      5667      5664
      5647      5646      5645      5649      5647      5646      5645      5653
      5647      5646      5645      5657      5647      5646      5661      5662
      5647      5646      5661      5663      5647      5646      5661      5667
      5648      5646      5645      5649      5648      5646      5645      5653
      5648      5646      5645      5657      5648      5646      5661      5662
      5648      5646      5661      5663      5648      5646      5661      5667
      5649      5645      5646      5661      5649      5645      5653      5654
      5649      5645      5653      5655      5649      5645      5653      5656
      5649      5645      5657      5658      5649      5645      5657      5659
      5649      5645      5657      5660      5650      5649      5645      5653
      5650      5649      5645      5657      5651      5649      5645      5653
      5651      5649      5645      5657      5652      5649      5645      5653
      5652      5649      5645      5657      5653      5645      5646      5661
      5653      5645      5657      5658      5653      5645      5657      5659
      5653      5645      5657      5660      5654      5653      5645      5657
      5655      5653      5645      5657      5656      5653      5645      5657
      5657      5645      5646      5661      5661      5667      5664      5665
      5661      5667      5664      5666      5661      5667      5664      5668
      5662      5661      5667      5664      5663      5661      5667      5664
      5664      5668      5669      5670      5664      5668      5669      5671
      5664      5668      5669      5672      5665      5664      5668      5669
      5666      5664      5668      5669      5667      5664      5668      5669
      5668      5669      5672      5673      5668      5669      5672      5674
      5668      5669      5672      5680      5669      5672      5674      5675
      5669      5672      5680      5681      5669      5672      5680      5682
      5669      5672      5680      5683      5670      5669      5672      5673
      5670      5669      5672      5674      5670      5669      5672      5680
      5671      5669      5672      5673      5671      5669      5672      5674
      5671      5669      5672      5680      5672      5674      5675      5676
      5672      5674      5675      5677      5672      5680      5683      5684
      5673      5672      5674      5675      5673      5672      5680      5681
      5673      5672      5680      5682      5673      5672      5680      5683
      5674      5672      5680      5681      5674      5672      5680      5682
      5674      5672      5680      5683      5674      5675      5677      5678
      5674      5675      5677      5679      5674      5675      5677      5689
      5675      5674      5672      5680      5675      5677      5689      5690
      5675      5677      5689      5691      5675      5677      5689      5692
      5676      5675      5677      5678      5676      5675      5677      5679
      5676      5675      5677      5689      5677      5689      5692      5693
      5677      5689      5692      5694      5677      5689      5692      5695
      5678      5677      5689      5690      5678      5677      5689      5691
      5678      5677      5689      5692      5679      5677      5689      5690
      5679      5677      5689      5691      5679      5677      5689      5692
      5680      5683      5684      5685      5680      5683      5684      5686
      5681      5680      5683      5684      5682      5680      5683      5684
      5683      5684      5686      5687      5683      5684      5686      5688
      5683      5684      5686      5736      5684      5686      5736      5737
      5684      5686      5736      5738      5684      5686      5736      5739
      5685      5684      5686      5687      5685      5684      5686      5688
      5685      5684      5686      5736      5686      5736      5739      5740
      5686      5736      5739      5741      5686      5736      5739      5742
      5687      5686      5736      5737      5687      5686      5736      5738
      5687      5686      5736      5739      5688      5686      5736      5737
      5688      5686      5736      5738      5688      5686      5736      5739
      5689      5692      5695      5696      5689      5692      5695      5697
      5689      5692      5695      5698      5690      5689      5692      5693
      5690      5689      5692      5694      5690      5689      5692      5695
      5691      5689      5692      5693      5691      5689      5692      5694
      5691      5689      5692      5695      5692      5695      5698      5699
      5692      5695      5698      5700      5692      5695      5698      5701
      5693      5692      5695      5696      5693      5692      5695      5697
      5693      5692      5695      5698      5694      5692      5695      5696
      5694      5692      5695      5697      5694      5692      5695      5698
      5695      5698      5701      5702      5695      5698      5701      5703
      5695      5698      5701      5704      5696      5695      5698      5699
      5696      5695      5698      5700      5696      5695      5698      5701
      5697      5695      5698      5699      5697      5695      5698      5700
      5697      5695      5698      5701      5698      5701      5704      5705
      5698      5701      5704      5706      5698      5701      5704      5707
      5699      5698      5701      5702      5699      5698      5701      5703
      5699      5698      5701      5704      5700      5698      5701      5702
      5700      5698      5701      5703      5700      5698      5701      5704
      5701      5704      5707      5708      5701      5704      5707      5709
      5702      5701      5704      5705      5702      5701      5704      5706
      5702      5701      5704      5707      5703      5701      5704      5705
      5703      5701      5704      5706      5703      5701      5704      5707
      5704      5707      5709      5710      5704      5707      5709      5711
      5705      5704      5707      5708      5705      5704      5707      5709
      5706      5704      5707      5708      5706      5704      5707      5709
      5707      5709      5711      5712      5707      5709      5711      5713
      5707      5709      5711      5714      5708      5707      5709      5710
      5708      5707      5709      5711      5709      5711      5714      5715
      5709      5711      5714      5716      5709      5711      5714      5717
      5710      5709      5711      5712      5710      5709      5711      5713
      5710      5709      5711      5714      5711      5714      5717      5718
      5711      5714      5717      5719      5711      5714      5717      5720
      5712      5711      5714      5715      5712      5711      5714      5716
      5712      5711      5714      5717      5713      5711      5714      5715
      5713      5711      5714      5716      5713      5711      5714      5717
      5714      5717      5720      5721      5714      5717      5720      5722
      5714      5717      5720      5723      5715      5714      5717      5718
      5715      5714      5717      5719      5715      5714      5717      5720
      5716      5714      5717      5718      5716      5714      5717      5719
      5716      5714      5717      5720      5717      5720      5723      5724
      5717      5720      5723      5725      5717      5720      5723      5726
      5718      5717      5720      5721      5718      5717      5720      5722
      5718      5717      5720      5723      5719      5717      5720      5721
      5719      5717      5720      5722      5719      5717      5720      5723
      5720      5723      5726      5727      5720      5723      5726      5728
      5720      5723      5726      5729      5721      5720      5723      5724
      5721      5720      5723      5725      5721      5720      5723      5726
      5722      5720      5723      5724      5722      5720      5723      5725
      5722      5720      5723      5726      5723      5726      5729      5730
      5723      5726      5729      5731      5723      5726      5729      5732
      5724      5723      5726      5727      5724      5723      5726      5728
      5724      5723      5726      5729      5725      5723      5726      5727
      5725      5723      5726      5728      5725      5723      5726      5729
      5726      5729      5732      5733      5726      5729      5732      5734
      5726      5729      5732      5735      5727      5726      5729      5730
      5727      5726      5729      5731      5727      5726      5729      5732
      5728      5726      5729      5730      5728      5726      5729      5731
      5728      5726      5729      5732      5730      5729      5732      5733
      5730      5729      5732      5734      5730      5729      5732      5735
      5731      5729      5732      5733      5731      5729      5732      5734
      5731      5729      5732      5735      5736      5739      5742      5743
      5736      5739      5742      5744      5736      5739      5742      5745
      5737      5736      5739      5740      5737      5736      5739      5741
      5737      5736      5739      5742      5738      5736      5739      5740
      5738      5736      5739      5741      5738      5736      5739      5742
      5739      5742      5745      5746      5739      5742      5745      5747
      5739      5742      5745      5748      5740      5739      5742      5743
      5740      5739      5742      5744      5740      5739      5742      5745
      5741      5739      5742      5743      5741      5739      5742      5744
      5741      5739      5742      5745      5742      5745      5748      5749
      5742      5745      5748      5750      5742      5745      5748      5751
      5743      5742      5745      5746      5743      5742      5745      5747
      5743      5742      5745      5748      5744      5742      5745      5746
      5744      5742      5745      5747      5744      5742      5745      5748
      5745      5748      5751      5752      5745      5748      5751      5753
      5745      5748      5751      5754      5746      5745      5748      5749
      5746      5745      5748      5750      5746      5745      5748      5751
      5747      5745      5748      5749      5747      5745      5748      5750
      5747      5745      5748      5751      5748      5751      5754      5755
      5748      5751      5754      5756      5748      5751      5754      5757
      5749      5748      5751      5752      5749      5748      5751      5753
      5749      5748      5751      5754      5750      5748      5751      5752
      5750      5748      5751      5753      5750      5748      5751      5754
      5751      5754      5757      5758      5751      5754      5757      5759
      5751      5754      5757      5760      5752      5751      5754      5755
      5752      5751      5754      5756      5752      5751      5754      5757
      5753      5751      5754      5755      5753      5751      5754      5756
      5753      5751      5754      5757      5754      5757      5760      5761
      5754      5757      5760      5762      5754      5757      5760      5763
      5755      5754      5757      5758      5755      5754      5757      5759
      5755      5754      5757      5760      5756      5754      5757      5758
      5756      5754      5757      5759      5756      5754      5757      5760
      5757      5760      5763      5764      5757      5760      5763      5765
      5757      5760      5763      5766      5758      5757      5760      5761
      5758      5757      5760      5762      5758      5757      5760      5763
      5759      5757      5760      5761      5759      5757      5760      5762
      5759      5757      5760      5763      5760      5763      5766      5767
      5760      5763      5766      5768      5760      5763      5766      5769
      5761      5760      5763      5764      5761      5760      5763      5765
      5761      5760      5763      5766      5762      5760      5763      5764
      5762      5760      5763      5765      5762      5760      5763      5766
      5763      5766      5769      5770      5763      5766      5769      5771
      5763      5766      5769      5772      5764      5763      5766      5767
      5764      5763      5766      5768      5764      5763      5766      5769
      5765      5763      5766      5767      5765      5763      5766      5768
      5765      5763      5766      5769      5766      5769      5772      5773
      5766      5769      5772      5774      5766      5769      5772      5775
      5767      5766      5769      5770      5767      5766      5769      5771
      5767      5766      5769      5772      5768      5766      5769      5770
      5768      5766      5769      5771      5768      5766      5769      5772
      5769      5772      5775      5776      5769      5772      5775      5777
      5769      5772      5775      5778      5770      5769      5772      5773
      5770      5769      5772      5774      5770      5769      5772      5775
      5771      5769      5772      5773      5771      5769      5772      5774
      5771      5769      5772      5775      5773      5772      5775      5776
      5773      5772      5775      5777      5773      5772      5775      5778
      5774      5772      5775      5776      5774      5772      5775      5777
      5774      5772      5775      5778      5779      5780      5795      5796
      5779      5780      5795      5797      5779      5780      5795      5801
      5780      5779      5783      5784      5780      5779      5783      5785
      5780      5779      5783      5786      5780      5779      5787      5788
      5780      5779      5787      5789      5780      5779      5787      5790
      5780      5779      5791      5792      5780      5779      5791      5793
      5780      5779      5791      5794      5780      5795      5801      5798
      5781      5780      5779      5783      5781      5780      5779      5787
      5781      5780      5779      5791      5781      5780      5795      5796
      5781      5780      5795      5797      5781      5780      5795      5801
      5782      5780      5779      5783      5782      5780      5779      5787
      5782      5780      5779      5791      5782      5780      5795      5796
      5782      5780      5795      5797      5782      5780      5795      5801
      5783      5779      5780      5795      5783      5779      5787      5788
      5783      5779      5787      5789      5783      5779      5787      5790
      5783      5779      5791      5792      5783      5779      5791      5793
      5783      5779      5791      5794      5784      5783      5779      5787
      5784      5783      5779      5791      5785      5783      5779      5787
      5785      5783      5779      5791      5786      5783      5779      5787
      5786      5783      5779      5791      5787      5779      5780      5795
      5787      5779      5791      5792      5787      5779      5791      5793
      5787      5779      5791      5794      5788      5787      5779      5791
      5789      5787      5779      5791      5790      5787      5779      5791
      5791      5779      5780      5795      5795      5801      5798      5799
      5795      5801      5798      5800      5795      5801      5798      5802
      5796      5795      5801      5798      5797      5795      5801      5798
      5798      5802      5803      5804      5798      5802      5803      5805
      5798      5802      5803      5806      5799      5798      5802      5803
      5800      5798      5802      5803      5801      5798      5802      5803
      5802      5803      5806      5807      5802      5803      5806      5808
      5802      5803      5806      5814      5803      5806      5808      5809
      5803      5806      5814      5815      5803      5806      5814      5816
      5803      5806      5814      5817      5804      5803      5806      5807
      5804      5803      5806      5808      5804      5803      5806      5814
      5805      5803      5806      5807      5805      5803      5806      5808
      5805      5803      5806      5814      5806      5808      5809      5810
      5806      5808      5809      5811      5806      5814      5817      5818
      5807      5806      5808      5809      5807      5806      5814      5815
      5807      5806      5814      5816      5807      5806      5814      5817
      5808      5806      5814      5815      5808      5806      5814      5816
      5808      5806      5814      5817      5808      5809      5811      5812
      5808      5809      5811      5813      5808      5809      5811      5823
      5809      5808      5806      5814      5809      5811      5823      5824
      5809      5811      5823      5825      5809      5811      5823      5826
      5810      5809      5811      5812      5810      5809      5811      5813
      5810      5809      5811      5823      5811      5823      5826      5827
      5811      5823      5826      5828      5811      5823      5826      5829
      5812      5811      5823      5824      5812      5811      5823      5825
      5812      5811      5823      5826      5813      5811      5823      5824
      5813      5811      5823      5825      5813      5811      5823      5826
      5814      5817      5818      5819      5814      5817      5818      5820
      5815      5814      5817      5818      5816      5814      5817      5818
      5817      5818      5820      5821      5817      5818      5820      5822
      5817      5818      5820      5870      5818      5820      5870      5871
      5818      5820      5870      5872      5818      5820      5870      5873
      5819      5818      5820      5821      5819      5818      5820      5822
      5819      5818      5820      5870      5820      5870      5873      5874
      5820      5870      5873      5875      5820      5870      5873      5876
      5821      5820      5870      5871      5821      5820      5870      5872
      5821      5820      5870      5873      5822      5820      5870      5871
      5822      5820      5870      5872      5822      5820      5870      5873
      5823      5826      5829      5830      5823      5826      5829      5831
      5823      5826      5829      5832      5824      5823      5826      5827
      5824      5823      5826      5828      5824      5823      5826      5829
      5825      5823      5826      5827      5825      5823      5826      5828
      5825      5823      5826      5829      5826      5829      5832      5833
      5826      5829      5832      5834      5826      5829      5832      5835
      5827      5826      5829      5830      5827      5826      5829      5831
      5827      5826      5829      5832      5828      5826      5829      5830
      5828      5826      5829      5831      5828      5826      5829      5832
      5829      5832      5835      5836      5829      5832      5835      5837
      5829      5832      5835      5838      5830      5829      5832      5833
      5830      5829      5832      5834      5830      5829      5832      5835
      5831      5829      5832      5833      5831      5829      5832      5834
      5831      5829      5832      5835      5832      5835      5838      5839
      5832      5835      5838      5840      5832      5835      5838      5841
      5833      5832      5835      5836      5833      5832      5835      5837
      5833      5832      5835      5838      5834      5832      5835      5836
      5834      5832      5835      5837      5834      5832      5835      5838
      5835      5838      5841      5842      5835      5838      5841      5843
      5836      5835      5838      5839      5836      5835      5838      5840
      5836      5835      5838      5841      5837      5835      5838      5839
      5837      5835      5838      5840      5837      5835      5838      5841
      5838      5841      5843      5844      5838      5841      5843      5845
      5839      5838      5841      5842      5839      5838      5841      5843
      5840      5838      5841      5842      5840      5838      5841      5843
      5841      5843      5845      5846      5841      5843      5845      5847
      5841      5843      5845      5848      5842      5841      5843      5844
      5842      5841      5843      5845      5843      5845      5848      5849
      5843      5845      5848      5850      5843      5845      5848      5851
      5844      5843      5845      5846      5844      5843      5845      5847
      5844      5843      5845      5848      5845      5848      5851      5852
      5845      5848      5851      5853      5845      5848      5851      5854
      5846      5845      5848      5849      5846      5845      5848      5850
      5846      5845      5848      5851      5847      5845      5848      5849
      5847      5845      5848      5850      5847      5845      5848      5851
      5848      5851      5854      5855      5848      5851      5854      5856
      5848      5851      5854      5857      5849      5848      5851      5852
      5849      5848      5851      5853      5849      5848      5851      5854
      5850      5848      5851      5852      5850      5848      5851      5853
      5850      5848      5851      5854      5851      5854      5857      5858
      5851      5854      5857      5859      5851      5854      5857      5860
      5852      5851      5854      5855      5852      5851      5854      5856
      5852      5851      5854      5857      5853      5851      5854      5855
      5853      5851      5854      5856      5853      5851      5854      5857
      5854      5857      5860      5861      5854      5857      5860      5862
      5854      5857      5860      5863      5855      5854      5857      5858
      5855      5854      5857      5859      5855      5854      5857      5860
      5856      5854      5857      5858      5856      5854      5857      5859
      5856      5854      5857      5860      5857      5860      5863      5864
      5857      5860      5863      5865      5857      5860      5863      5866
      5858      5857      5860      5861      5858      5857      5860      5862
      5858      5857      5860      5863      5859      5857      5860      5861
      5859      5857      5860      5862      5859      5857      5860      5863
      5860      5863      5866      5867      5860      5863      5866      5868
      5860      5863      5866      5869      5861      5860      5863      5864
      5861      5860      5863      5865      5861      5860      5863      5866
      5862      5860      5863      5864      5862      5860      5863      5865
      5862      5860      5863      5866      5864      5863      5866      5867
      5864      5863      5866      5868      5864      5863      5866      5869
      5865      5863      5866      5867      5865      5863      5866      5868
      5865      5863      5866      5869      5870      5873      5876      5877
      5870      5873      5876      5878      5870      5873      5876      5879
      5871      5870      5873      5874      5871      5870      5873      5875
      5871      5870      5873      5876      5872      5870      5873      5874
      5872      5870      5873      5875      5872      5870      5873      5876
      5873      5876      5879      5880      5873      5876      5879      5881
      5873      5876      5879      5882      5874      5873      5876      5877
      5874      5873      5876      5878      5874      5873      5876      5879
      5875      5873      5876      5877      5875      5873      5876      5878
      5875      5873      5876      5879      5876      5879      5882      5883
      5876      5879      5882      5884      5876      5879      5882      5885
      5877      5876      5879      5880      5877      5876      5879      5881
      5877      5876      5879      5882      5878      5876      5879      5880
      5878      5876      5879      5881      5878      5876      5879      5882
      5879      5882      5885      5886      5879      5882      5885      5887
      5879      5882      5885      5888      5880      5879      5882      5883
      5880      5879      5882      5884      5880      5879      5882      5885
      5881      5879      5882      5883      5881      5879      5882      5884
      5881      5879      5882      5885      5882      5885      5888      5889
      5882      5885      5888      5890      5882      5885      5888      5891
      5883      5882      5885      5886      5883      5882      5885      5887
      5883      5882      5885      5888      5884      5882      5885      5886
      5884      5882      5885      5887      5884      5882      5885      5888
      5885      5888      5891      5892      5885      5888      5891      5893
      5885      5888      5891      5894      5886      5885      5888      5889
      5886      5885      5888      5890      5886      5885      5888      5891
      5887      5885      5888      5889      5887      5885      5888      5890
      5887      5885      5888      5891      5888      5891      5894      5895
      5888      5891      5894      5896      5888      5891      5894      5897
      5889      5888      5891      5892      5889      5888      5891      5893
      5889      5888      5891      5894      5890      5888      5891      5892
      5890      5888      5891      5893      5890      5888      5891      5894
      5891      5894      5897      5898      5891      5894      5897      5899
      5891      5894      5897      5900      5892      5891      5894      5895
      5892      5891      5894      5896      5892      5891      5894      5897
      5893      5891      5894      5895      5893      5891      5894      5896
      5893      5891      5894      5897      5894      5897      5900      5901
      5894      5897      5900      5902      5894      5897      5900      5903
      5895      5894      5897      5898      5895      5894      5897      5899
      5895      5894      5897      5900      5896      5894      5897      5898
      5896      5894      5897      5899      5896      5894      5897      5900
      5897      5900      5903      5904      5897      5900      5903      5905
      5897      5900      5903      5906      5898      5897      5900      5901
      5898      5897      5900      5902      5898      5897      5900      5903
      5899      5897      5900      5901      5899      5897      5900      5902
      5899      5897      5900      5903      5900      5903      5906      5907
      5900      5903      5906      5908      5900      5903      5906      5909
      5901      5900      5903      5904      5901      5900      5903      5905
      5901      5900      5903      5906      5902      5900      5903      5904
      5902      5900      5903      5905      5902      5900      5903      5906
      5903      5906      5909      5910      5903      5906      5909      5911
      5903      5906      5909      5912      5904      5903      5906      5907
      5904      5903      5906      5908      5904      5903      5906      5909
      5905      5903      5906      5907      5905      5903      5906      5908
      5905      5903      5906      5909      5907      5906      5909      5910
      5907      5906      5909      5911      5907      5906      5909      5912
      5908      5906      5909      5910      5908      5906      5909      5911
      5908      5906      5909      5912      5913      5914      5929      5930
      5913      5914      5929      5931      5913      5914      5929      5935
      5914      5913      5917      5918      5914      5913      5917      5919
      5914      5913      5917      5920      5914      5913      5921      5922
      5914      5913      5921      5923      5914      5913      5921      5924
      5914      5913      5925      5926      5914      5913      5925      5927
      5914      5913      5925      5928      5914      5929      5935      5932
      5915      5914      5913      5917      5915      5914      5913      5921
      5915      5914      5913      5925      5915      5914      5929      5930
      5915      5914      5929      5931      5915      5914      5929      5935
      5916      5914      5913      5917      5916      5914      5913      5921
      5916      5914      5913      5925      5916      5914      5929      5930
      5916      5914      5929      5931      5916      5914      5929      5935
      5917      5913      5914      5929      5917      5913      5921      5922
      5917      5913      5921      5923      5917      5913      5921      5924
      5917      5913      5925      5926      5917      5913      5925      5927
      5917      5913      5925      5928      5918      5917      5913      5921
      5918      5917      5913      5925      5919      5917      5913      5921
      5919      5917      5913      5925      5920      5917      5913      5921
      5920      5917      5913      5925      5921      5913      5914      5929
      5921      5913      5925      5926      5921      5913      5925      5927
      5921      5913      5925      5928      5922      5921      5913      5925
      5923      5921      5913      5925      5924      5921      5913      5925
      5925      5913      5914      5929      5929      5935      5932      5933
      5929      5935      5932      5934      5929      5935      5932      5936
      5930      5929      5935      5932      5931      5929      5935      5932
      5932      5936      5937      5938      5932      5936      5937      5939
      5932      5936      5937      5940      5933      5932      5936      5937
      5934      5932      5936      5937      5935      5932      5936      5937
      5936      5937      5940      5941      5936      5937      5940      5942
      5936      5937      5940      5948      5937      5940      5942      5943
      5937      5940      5948      5949      5937      5940      5948      5950
      5937      5940      5948      5951      5938      5937      5940      5941
      5938      5937      5940      5942      5938      5937      5940      5948
      5939      5937      5940      5941      5939      5937      5940      5942
      5939      5937      5940      5948      5940      5942      5943      5944
      5940      5942      5943      5945      5940      5948      5951      5952
      5941      5940      5942      5943      5941      5940      5948      5949
      5941      5940      5948      5950      5941      5940      5948      5951
      5942      5940      5948      5949      5942      5940      5948      5950
      5942      5940      5948      5951      5942      5943      5945      5946
      5942      5943      5945      5947      5942      5943      5945      5957
      5943      5942      5940      5948      5943      5945      5957      5958
      5943      5945      5957      5959      5943      5945      5957      5960
      5944      5943      5945      5946      5944      5943      5945      5947
      5944      5943      5945      5957      5945      5957      5960      5961
      5945      5957      5960      5962      5945      5957      5960      5963
      5946      5945      5957      5958      5946      5945      5957      5959
      5946      5945      5957      5960      5947      5945      5957      5958
      5947      5945      5957      5959      5947      5945      5957      5960
      5948      5951      5952      5953      5948      5951      5952      5954
      5949      5948      5951      5952      5950      5948      5951      5952
      5951      5952      5954      5955      5951      5952      5954      5956
      5951      5952      5954      6004      5952      5954      6004      6005
      5952      5954      6004      6006      5952      5954      6004      6007
      5953      5952      5954      5955      5953      5952      5954      5956
      5953      5952      5954      6004      5954      6004      6007      6008
      5954      6004      6007      6009      5954      6004      6007      6010
      5955      5954      6004      6005      5955      5954      6004      6006
      5955      5954      6004      6007      5956      5954      6004      6005
      5956      5954      6004      6006      5956      5954      6004      6007
      5957      5960      5963      5964      5957      5960      5963      5965
      5957      5960      5963      5966      5958      5957      5960      5961
      5958      5957      5960      5962      5958      5957      5960      5963
      5959      5957      5960      5961      5959      5957      5960      5962
      5959      5957      5960      5963      5960      5963      5966      5967
      5960      5963      5966      5968      5960      5963      5966      5969
      5961      5960      5963      5964      5961      5960      5963      5965
      5961      5960      5963      5966      5962      5960      5963      5964
      5962      5960      5963      5965      5962      5960      5963      5966
      5963      5966      5969      5970      5963      5966      5969      5971
      5963      5966      5969      5972      5964      5963      5966      5967
      5964      5963      5966      5968      5964      5963      5966      5969
      5965      5963      5966      5967      5965      5963      5966      5968
      5965      5963      5966      5969      5966      5969      5972      5973
      5966      5969      5972      5974      5966      5969      5972      5975
      5967      5966      5969      5970      5967      5966      5969      5971
      5967      5966      5969      5972      5968      5966      5969      5970
      5968      5966      5969      5971      5968      5966      5969      5972
      5969      5972      5975      5976      5969      5972      5975      5977
      5970      5969      5972      5973      5970      5969      5972      5974
      5970      5969      5972      5975      5971      5969      5972      5973
      5971      5969      5972      5974      5971      5969      5972      5975
      5972      5975      5977      5978      5972      5975      5977      5979
      5973      5972      5975      5976      5973      5972      5975      5977
      5974      5972      5975      5976      5974      5972      5975      5977
      5975      5977      5979      5980      5975      5977      5979      5981
      5975      5977      5979      5982      5976      5975      5977      5978
      5976      5975      5977      5979      5977      5979      5982      5983
      5977      5979      5982      5984      5977      5979      5982      5985
      5978      5977      5979      5980      5978      5977      5979      5981
      5978      5977      5979      5982      5979      5982      5985      5986
      5979      5982      5985      5987      5979      5982      5985      5988
      5980      5979      5982      5983      5980      5979      5982      5984
      5980      5979      5982      5985      5981      5979      5982      5983
      5981      5979      5982      5984      5981      5979      5982      5985
      5982      5985      5988      5989      5982      5985      5988      5990
      5982      5985      5988      5991      5983      5982      5985      5986
      5983      5982      5985      5987      5983      5982      5985      5988
      5984      5982      5985      5986      5984      5982      5985      5987
      5984      5982      5985      5988      5985      5988      5991      5992
      5985      5988      5991      5993      5985      5988      5991      5994
      5986      5985      5988      5989      5986      5985      5988      5990
      5986      5985      5988      5991      5987      5985      5988      5989
      5987      5985      5988      5990      5987      5985      5988      5991
      5988      5991      5994      5995      5988      5991      5994      5996
      5988      5991      5994      5997      5989      5988      5991      5992
      5989      5988      5991      5993      5989      5988      5991      5994
      5990      5988      5991      5992      5990      5988      5991      5993
      5990      5988      5991      5994      5991      5994      5997      5998
      5991      5994      5997      5999      5991      5994      5997      6000
      5992      5991      5994      5995      5992      5991      5994      5996
      5992      5991      5994      5997      5993      5991      5994      5995
      5993      5991      5994      5996      5993      5991      5994      5997
      5994      5997      6000      6001      5994      5997      6000      6002
      5994      5997      6000      6003      5995      5994      5997      5998
      5995      5994      5997      5999      5995      5994      5997      6000
      5996      5994      5997      5998      5996      5994      5997      5999
      5996      5994      5997      6000      5998      5997      6000      6001
      5998      5997      6000      6002      5998      5997      6000      6003
      5999      5997      6000      6001      5999      5997      6000      6002
      5999      5997      6000      6003      6004      6007      6010      6011
      6004      6007      6010      6012      6004      6007      6010      6013
      6005      6004      6007      6008      6005      6004      6007      6009
      6005      6004      6007      6010      6006      6004      6007      6008
      6006      6004      6007      6009      6006      6004      6007      6010
      6007      6010      6013      6014      6007      6010      6013      6015
      6007      6010      6013      6016      6008      6007      6010      6011
      6008      6007      6010      6012      6008      6007      6010      6013
      6009      6007      6010      6011      6009      6007      6010      6012
      6009      6007      6010      6013      6010      6013      6016      6017
      6010      6013      6016      6018      6010      6013      6016      6019
      6011      6010      6013      6014      6011      6010      6013      6015
      6011      6010      6013      6016      6012      6010      6013      6014
      6012      6010      6013      6015      6012      6010      6013      6016
      6013      6016      6019      6020      6013      6016      6019      6021
      6013      6016      6019      6022      6014      6013      6016      6017
      6014      6013      6016      6018      6014      6013      6016      6019
      6015      6013      6016      6017      6015      6013      6016      6018
      6015      6013      6016      6019      6016      6019      6022      6023
      6016      6019      6022      6024      6016      6019      6022      6025
      6017      6016      6019      6020      6017      6016      6019      6021
      6017      6016      6019      6022      6018      6016      6019      6020
      6018      6016      6019      6021      6018      6016      6019      6022
      6019      6022      6025      6026      6019      6022      6025      6027
      6019      6022      6025      6028      6020      6019      6022      6023
      6020      6019      6022      6024      6020      6019      6022      6025
      6021      6019      6022      6023      6021      6019      6022      6024
      6021      6019      6022      6025      6022      6025      6028      6029
      6022      6025      6028      6030      6022      6025      6028      6031
      6023      6022      6025      6026      6023      6022      6025      6027
      6023      6022      6025      6028      6024      6022      6025      6026
      6024      6022      6025      6027      6024      6022      6025      6028
      6025      6028      6031      6032      6025      6028      6031      6033
      6025      6028      6031      6034      6026      6025      6028      6029
      6026      6025      6028      6030      6026      6025      6028      6031
      6027      6025      6028      6029      6027      6025      6028      6030
      6027      6025      6028      6031      6028      6031      6034      6035
      6028      6031      6034      6036      6028      6031      6034      6037
      6029      6028      6031      6032      6029      6028      6031      6033
      6029      6028      6031      6034      6030      6028      6031      6032
      6030      6028      6031      6033      6030      6028      6031      6034
      6031      6034      6037      6038      6031      6034      6037      6039
      6031      6034      6037      6040      6032      6031      6034      6035
      6032      6031      6034      6036      6032      6031      6034      6037
      6033      6031      6034      6035      6033      6031      6034      6036
      6033      6031      6034      6037      6034      6037      6040      6041
      6034      6037      6040      6042      6034      6037      6040      6043
      6035      6034      6037      6038      6035      6034      6037      6039
      6035      6034      6037      6040      6036      6034      6037      6038
      6036      6034      6037      6039      6036      6034      6037      6040
      6037      6040      6043      6044      6037      6040      6043      6045
      6037      6040      6043      6046      6038      6037      6040      6041
      6038      6037      6040      6042      6038      6037      6040      6043
      6039      6037      6040      6041      6039      6037      6040      6042
      6039      6037      6040      6043      6041      6040      6043      6044
      6041      6040      6043      6045      6041      6040      6043      6046
      6042      6040      6043      6044      6042      6040      6043      6045
      6042      6040      6043      6046      6047      6048      6063      6064
      6047      6048      6063      6065      6047      6048      6063      6069
      6048      6047      6051      6052      6048      6047      6051      6053
      6048      6047      6051      6054      6048      6047      6055      6056
      6048      6047      6055      6057      6048      6047      6055      6058
      6048      6047      6059      6060      6048      6047      6059      6061
      6048      6047      6059      6062      6048      6063      6069      6066
      6049      6048      6047      6051      6049      6048      6047      6055
      6049      6048      6047      6059      6049      6048      6063      6064
      6049      6048      6063      6065      6049      6048      6063      6069
      6050      6048      6047      6051      6050      6048      6047      6055
      6050      6048      6047      6059      6050      6048      6063      6064
      6050      6048      6063      6065      6050      6048      6063      6069
      6051      6047      6048      6063      6051      6047      6055      6056
      6051      6047      6055      6057      6051      6047      6055      6058
      6051      6047      6059      6060      6051      6047      6059      6061
      6051      6047      6059      6062      6052      6051      6047      6055
      6052      6051      6047      6059      6053      6051      6047      6055
      6053      6051      6047      6059      6054      6051      6047      6055
      6054      6051      6047      6059      6055      6047      6048      6063
      6055      6047      6059      6060      6055      6047      6059      6061
      6055      6047      6059      6062      6056      6055      6047      6059
      6057      6055      6047      6059      6058      6055      6047      6059
      6059      6047      6048      6063      6063      6069      6066      6067
      6063      6069      6066      6068      6063      6069      6066      6070
      6064      6063      6069      6066      6065      6063      6069      6066
      6066      6070      6071      6072      6066      6070      6071      6073
      6066      6070      6071      6074      6067      6066      6070      6071
      6068      6066      6070      6071      6069      6066      6070      6071
      6070      6071      6074      6075      6070      6071      6074      6076
      6070      6071      6074      6082      6071      6074      6076      6077
      6071      6074      6082      6083      6071      6074      6082      6084
      6071      6074      6082      6085      6072      6071      6074      6075
      6072      6071      6074      6076      6072      6071      6074      6082
      6073      6071      6074      6075      6073      6071      6074      6076
      6073      6071      6074      6082      6074      6076      6077      6078
      6074      6076      6077      6079      6074      6082      6085      6086
      6075      6074      6076      6077      6075      6074      6082      6083
      6075      6074      6082      6084      6075      6074      6082      6085
      6076      6074      6082      6083      6076      6074      6082      6084
      6076      6074      6082      6085      6076      6077      6079      6080
      6076      6077      6079      6081      6076      6077      6079      6091
      6077      6076      6074      6082      6077      6079      6091      6092
      6077      6079      6091      6093      6077      6079      6091      6094
      6078      6077      6079      6080      6078      6077      6079      6081
      6078      6077      6079      6091      6079      6091      6094      6095
      6079      6091      6094      6096      6079      6091      6094      6097
      6080      6079      6091      6092      6080      6079      6091      6093
      6080      6079      6091      6094      6081      6079      6091      6092
      6081      6079      6091      6093      6081      6079      6091      6094
      6082      6085      6086      6087      6082      6085      6086      6088
      6083      6082      6085      6086      6084      6082      6085      6086
      6085      6086      6088      6089      6085      6086      6088      6090
      6085      6086      6088      6138      6086      6088      6138      6139
      6086      6088      6138      6140      6086      6088      6138      6141
      6087      6086      6088      6089      6087      6086      6088      6090
      6087      6086      6088      6138      6088      6138      6141      6142
      6088      6138      6141      6143      6088      6138      6141      6144
      6089      6088      6138      6139      6089      6088      6138      6140
      6089      6088      6138      6141      6090      6088      6138      6139
      6090      6088      6138      6140      6090      6088      6138      6141
      6091      6094      6097      6098      6091      6094      6097      6099
      6091      6094      6097      6100      6092      6091      6094      6095
      6092      6091      6094      6096      6092      6091      6094      6097
      6093      6091      6094      6095      6093      6091      6094      6096
      6093      6091      6094      6097      6094      6097      6100      6101
      6094      6097      6100      6102      6094      6097      6100      6103
      6095      6094      6097      6098      6095      6094      6097      6099
      6095      6094      6097      6100      6096      6094      6097      6098
      6096      6094      6097      6099      6096      6094      6097      6100
      6097      6100      6103      6104      6097      6100      6103      6105
      6097      6100      6103      6106      6098      6097      6100      6101
      6098      6097      6100      6102      6098      6097      6100      6103
      6099      6097      6100      6101      6099      6097      6100      6102
      6099      6097      6100      6103      6100      6103      6106      6107
      6100      6103      6106      6108      6100      6103      6106      6109
      6101      6100      6103      6104      6101      6100      6103      6105
      6101      6100      6103      6106      6102      6100      6103      6104
      6102      6100      6103      6105      6102      6100      6103      6106
      6103      6106      6109      6110      6103      6106      6109      6111
      6104      6103      6106      6107      6104      6103      6106      6108
      6104      6103      6106      6109      6105      6103      6106      6107
      6105      6103      6106      6108      6105      6103      6106      6109
      6106      6109      6111      6112      6106      6109      6111      6113
      6107      6106      6109      6110      6107      6106      6109      6111
      6108      6106      6109      6110      6108      6106      6109      6111
      6109      6111      6113      6114      6109      6111      6113      6115
      6109      6111      6113      6116      6110      6109      6111      6112
      6110      6109      6111      6113      6111      6113      6116      6117
      6111      6113      6116      6118      6111      6113      6116      6119
      6112      6111      6113      6114      6112      6111      6113      6115
      6112      6111      6113      6116      6113      6116      6119      6120
      6113      6116      6119      6121      6113      6116      6119      6122
      6114      6113      6116      6117      6114      6113      6116      6118
      6114      6113      6116      6119      6115      6113      6116      6117
      6115      6113      6116      6118      6115      6113      6116      6119
      6116      6119      6122      6123      6116      6119      6122      6124
      6116      6119      6122      6125      6117      6116      6119      6120
      6117      6116      6119      6121      6117      6116      6119      6122
      6118      6116      6119      6120      6118      6116      6119      6121
      6118      6116      6119      6122      6119      6122      6125      6126
      6119      6122      6125      6127      6119      6122      6125      6128
      6120      6119      6122      6123      6120      6119      6122      6124
      6120      6119      6122      6125      6121      6119      6122      6123
      6121      6119      6122      6124      6121      6119      6122      6125
      6122      6125      6128      6129      6122      6125      6128      6130
      6122      6125      6128      6131      6123      6122      6125      6126
      6123      6122      6125      6127      6123      6122      6125      6128
      6124      6122      6125      6126      6124      6122      6125      6127
      6124      6122      6125      6128      6125      6128      6131      6132
      6125      6128      6131      6133      6125      6128      6131      6134
      6126      6125      6128      6129      6126      6125      6128      6130
      6126      6125      6128      6131      6127      6125      6128      6129
      6127      6125      6128      6130      6127      6125      6128      6131
      6128      6131      6134      6135      6128      6131      6134      6136
      6128      6131      6134      6137      6129      6128      6131      6132
      6129      6128      6131      6133      6129      6128      6131      6134
      6130      6128      6131      6132      6130      6128      6131      6133
      6130      6128      6131      6134      6132      6131      6134      6135
      6132      6131      6134      6136      6132      6131      6134      6137
      6133      6131      6134      6135      6133      6131      6134      6136
      6133      6131      6134      6137      6138      6141      6144      6145
      6138      6141      6144      6146      6138      6141      6144      6147
      6139      6138      6141      6142      6139      6138      6141      6143
      6139      6138      6141      6144      6140      6138      6141      6142
      6140      6138      6141      6143      6140      6138      6141      6144
      6141      6144      6147      6148      6141      6144      6147      6149
      6141      6144      6147      6150      6142      6141      6144      6145
      6142      6141      6144      6146      6142      6141      6144      6147
      6143      6141      6144      6145      6143      6141      6144      6146
      6143      6141      6144      6147      6144      6147      6150      6151
      6144      6147      6150      6152      6144      6147      6150      6153
      6145      6144      6147      6148      6145      6144      6147      6149
      6145      6144      6147      6150      6146      6144      6147      6148
      6146      6144      6147      6149      6146      6144      6147      6150
      6147      6150      6153      6154      6147      6150      6153      6155
      6147      6150      6153      6156      6148      6147      6150      6151
      6148      6147      6150      6152      6148      6147      6150      6153
      6149      6147      6150      6151      6149      6147      6150      6152
      6149      6147      6150      6153      6150      6153      6156      6157
      6150      6153      6156      6158      6150      6153      6156      6159
      6151      6150      6153      6154      6151      6150      6153      6155
      6151      6150      6153      6156      6152      6150      6153      6154
      6152      6150      6153      6155      6152      6150      6153      6156
      6153      6156      6159      6160      6153      6156      6159      6161
      6153      6156      6159      6162      6154      6153      6156      6157
      6154      6153      6156      6158      6154      6153      6156      6159
      6155      6153      6156      6157      6155      6153      6156      6158
      6155      6153      6156      6159      6156      6159      6162      6163
      6156      6159      6162      6164      6156      6159      6162      6165
      6157      6156      6159      6160      6157      6156      6159      6161
      6157      6156      6159      6162      6158      6156      6159      6160
      6158      6156      6159      6161      6158      6156      6159      6162
      6159      6162      6165      6166      6159      6162      6165      6167
      6159      6162      6165      6168      6160      6159      6162      6163
      6160      6159      6162      6164      6160      6159      6162      6165
      6161      6159      6162      6163      6161      6159      6162      6164
      6161      6159      6162      6165      6162      6165      6168      6169
      6162      6165      6168      6170      6162      6165      6168      6171
      6163      6162      6165      6166      6163      6162      6165      6167
      6163      6162      6165      6168      6164      6162      6165      6166
      6164      6162      6165      6167      6164      6162      6165      6168
      6165      6168      6171      6172      6165      6168      6171      6173
      6165      6168      6171      6174      6166      6165      6168      6169
      6166      6165      6168      6170      6166      6165      6168      6171
      6167      6165      6168      6169      6167      6165      6168      6170
      6167      6165      6168      6171      6168      6171      6174      6175
      6168      6171      6174      6176      6168      6171      6174      6177
      6169      6168      6171      6172      6169      6168      6171      6173
      6169      6168      6171      6174      6170      6168      6171      6172
      6170      6168      6171      6173      6170      6168      6171      6174
      6171      6174      6177      6178      6171      6174      6177      6179
      6171      6174      6177      6180      6172      6171      6174      6175
      6172      6171      6174      6176      6172      6171      6174      6177
      6173      6171      6174      6175      6173      6171      6174      6176
      6173      6171      6174      6177      6175      6174      6177      6178
      6175      6174      6177      6179      6175      6174      6177      6180
      6176      6174      6177      6178      6176      6174      6177      6179
      6176      6174      6177      6180      6181      6182      6197      6198
      6181      6182      6197      6199      6181      6182      6197      6203
      6182      6181      6185      6186      6182      6181      6185      6187
      6182      6181      6185      6188      6182      6181      6189      6190
      6182      6181      6189      6191      6182      6181      6189      6192
      6182      6181      6193      6194      6182      6181      6193      6195
      6182      6181      6193      6196      6182      6197      6203      6200
      6183      6182      6181      6185      6183      6182      6181      6189
      6183      6182      6181      6193      6183      6182      6197      6198
      6183      6182      6197      6199      6183      6182      6197      6203
      6184      6182      6181      6185      6184      6182      6181      6189
      6184      6182      6181      6193      6184      6182      6197      6198
      6184      6182      6197      6199      6184      6182      6197      6203
      6185      6181      6182      6197      6185      6181      6189      6190
      6185      6181      6189      6191      6185      6181      6189      6192
      6185      6181      6193      6194      6185      6181      6193      6195
      6185      6181      6193      6196      6186      6185      6181      6189
      6186      6185      6181      6193      6187      6185      6181      6189
      6187      6185      6181      6193      6188      6185      6181      6189
      6188      6185      6181      6193      6189      6181      6182      6197
      6189      6181      6193      6194      6189      6181      6193      6195
      6189      6181      6193      6196      6190      6189      6181      6193
      6191      6189      6181      6193      6192      6189      6181      6193
      6193      6181      6182      6197      6197      6203      6200      6201
      6197      6203      6200      6202      6197      6203      6200      6204
      6198      6197      6203      6200      6199      6197      6203      6200
      6200      6204      6205      6206      6200      6204      6205      6207
      6200      6204      6205      6208      6201      6200      6204      6205
      6202      6200      6204      6205      6203      6200      6204      6205
      6204      6205      6208      6209      6204      6205      6208      6210
      6204      6205      6208      6216      6205      6208      6210      6211
      6205      6208      6216      6217      6205      6208      6216      6218
      6205      6208      6216      6219      6206      6205      6208      6209
      6206      6205      6208      6210      6206      6205      6208      6216
      6207      6205      6208      6209      6207      6205      6208      6210
      6207      6205      6208      6216      6208      6210      6211      6212
      6208      6210      6211      6213      6208      6216      6219      6220
      6209      6208      6210      6211      6209      6208      6216      6217
      6209      6208      6216      6218      6209      6208      6216      6219
      6210      6208      6216      6217      6210      6208      6216      6218
      6210      6208      6216      6219      6210      6211      6213      6214
      6210      6211      6213      6215      6210      6211      6213      6225
      6211      6210      6208      6216      6211      6213      6225      6226
      6211      6213      6225      6227      6211      6213      6225      6228
      6212      6211      6213      6214      6212      6211      6213      6215
      6212      6211      6213      6225      6213      6225      6228      6229
      6213      6225      6228      6230      6213      6225      6228      6231
      6214      6213      6225      6226      6214      6213      6225      6227
      6214      6213      6225      6228      6215      6213      6225      6226
      6215      6213      6225      6227      6215      6213      6225      6228
      6216      6219      6220      6221      6216      6219      6220      6222
      6217      6216      6219      6220      6218      6216      6219      6220
      6219      6220      6222      6223      6219      6220      6222      6224
      6219      6220      6222      6272      6220      6222      6272      6273
      6220      6222      6272      6274      6220      6222      6272      6275
      6221      6220      6222      6223      6221      6220      6222      6224
      6221      6220      6222      6272      6222      6272      6275      6276
      6222      6272      6275      6277      6222      6272      6275      6278
      6223      6222      6272      6273      6223      6222      6272      6274
      6223      6222      6272      6275      6224      6222      6272      6273
      6224      6222      6272      6274      6224      6222      6272      6275
      6225      6228      6231      6232      6225      6228      6231      6233
      6225      6228      6231      6234      6226      6225      6228      6229
      6226      6225      6228      6230      6226      6225      6228      6231
      6227      6225      6228      6229      6227      6225      6228      6230
      6227      6225      6228      6231      6228      6231      6234      6235
      6228      6231      6234      6236      6228      6231      6234      6237
      6229      6228      6231      6232      6229      6228      6231      6233
      6229      6228      6231      6234      6230      6228      6231      6232
      6230      6228      6231      6233      6230      6228      6231      6234
      6231      6234      6237      6238      6231      6234      6237      6239
      6231      6234      6237      6240      6232      6231      6234      6235
      6232      6231      6234      6236      6232      6231      6234      6237
      6233      6231      6234      6235      6233      6231      6234      6236
      6233      6231      6234      6237      6234      6237      6240      6241
      6234      6237      6240      6242      6234      6237      6240      6243
      6235      6234      6237      6238      6235      6234      6237      6239
      6235      6234      6237      6240      6236      6234      6237      6238
      6236      6234      6237      6239      6236      6234      6237      6240
      6237      6240      6243      6244      6237      6240      6243      6245
      6238      6237      6240      6241      6238      6237      6240      6242
      6238      6237      6240      6243      6239      6237      6240      6241
      6239      6237      6240      6242      6239      6237      6240      6243
      6240      6243      6245      6246      6240      6243      6245      6247
      6241      6240      6243      6244      6241      6240      6243      6245
      6242      6240      6243      6244      6242      6240      6243      6245
      6243      6245      6247      6248      6243      6245      6247      6249
      6243      6245      6247      6250      6244      6243      6245      6246
      6244      6243      6245      6247      6245      6247      6250      6251
      6245      6247      6250      6252      6245      6247      6250      6253
      6246      6245      6247      6248      6246      6245      6247      6249
      6246      6245      6247      6250      6247      6250      6253      6254
      6247      6250      6253      6255      6247      6250      6253      6256
      6248      6247      6250      6251      6248      6247      6250      6252
      6248      6247      6250      6253      6249      6247      6250      6251
      6249      6247      6250      6252      6249      6247      6250      6253
      6250      6253      6256      6257      6250      6253      6256      6258
      6250      6253      6256      6259      6251      6250      6253      6254
      6251      6250      6253      6255      6251      6250      6253      6256
      6252      6250      6253      6254      6252      6250      6253      6255
      6252      6250      6253      6256      6253      6256      6259      6260
      6253      6256      6259      6261      6253      6256      6259      6262
      6254      6253      6256      6257      6254      6253      6256      6258
      6254      6253      6256      6259      6255      6253      6256      6257
      6255      6253      6256      6258      6255      6253      6256      6259
      6256      6259      6262      6263      6256      6259      6262      6264
      6256      6259      6262      6265      6257      6256      6259      6260
      6257      6256      6259      6261      6257      6256      6259      6262
      6258      6256      6259      6260      6258      6256      6259      6261
      6258      6256      6259      6262      6259      6262      6265      6266
      6259      6262      6265      6267      6259      6262      6265      6268
      6260      6259      6262      6263      6260      6259      6262      6264
      6260      6259      6262      6265      6261      6259      6262      6263
      6261      6259      6262      6264      6261      6259      6262      6265
      6262      6265      6268      6269      6262      6265      6268      6270
      6262      6265      6268      6271      6263      6262      6265      6266
      6263      6262      6265      6267      6263      6262      6265      6268
      6264      6262      6265      6266      6264      6262      6265      6267
      6264      6262      6265      6268      6266      6265      6268      6269
      6266      6265      6268      6270      6266      6265      6268      6271
      6267      6265      6268      6269      6267      6265      6268      6270
      6267      6265      6268      6271      6272      6275      6278      6279
      6272      6275      6278      6280      6272      6275      6278      6281
      6273      6272      6275      6276      6273      6272      6275      6277
      6273      6272      6275      6278      6274      6272      6275      6276
      6274      6272      6275      6277      6274      6272      6275      6278
      6275      6278      6281      6282      6275      6278      6281      6283
      6275      6278      6281      6284      6276      6275      6278      6279
      6276      6275      6278      6280      6276      6275      6278      6281
      6277      6275      6278      6279      6277      6275      6278      6280
      6277      6275      6278      6281      6278      6281      6284      6285
      6278      6281      6284      6286      6278      6281      6284      6287
      6279      6278      6281      6282      6279      6278      6281      6283
      6279      6278      6281      6284      6280      6278      6281      6282
      6280      6278      6281      6283      6280      6278      6281      6284
      6281      6284      6287      6288      6281      6284      6287      6289
      6281      6284      6287      6290      6282      6281      6284      6285
      6282      6281      6284      6286      6282      6281      6284      6287
      6283      6281      6284      6285      6283      6281      6284      6286
      6283      6281      6284      6287      6284      6287      6290      6291
      6284      6287      6290      6292      6284      6287      6290      6293
      6285      6284      6287      6288      6285      6284      6287      6289
      6285      6284      6287      6290      6286      6284      6287      6288
      6286      6284      6287      6289      6286      6284      6287      6290
      6287      6290      6293      6294      6287      6290      6293      6295
      6287      6290      6293      6296      6288      6287      6290      6291
      6288      6287      6290      6292      6288      6287      6290      6293
      6289      6287      6290      6291      6289      6287      6290      6292
      6289      6287      6290      6293      6290      6293      6296      6297
      6290      6293      6296      6298      6290      6293      6296      6299
      6291      6290      6293      6294      6291      6290      6293      6295
      6291      6290      6293      6296      6292      6290      6293      6294
      6292      6290      6293      6295      6292      6290      6293      6296
      6293      6296      6299      6300      6293      6296      6299      6301
      6293      6296      6299      6302      6294      6293      6296      6297
      6294      6293      6296      6298      6294      6293      6296      6299
      6295      6293      6296      6297      6295      6293      6296      6298
      6295      6293      6296      6299      6296      6299      6302      6303
      6296      6299      6302      6304      6296      6299      6302      6305
      6297      6296      6299      6300      6297      6296      6299      6301
      6297      6296      6299      6302      6298      6296      6299      6300
      6298      6296      6299      6301      6298      6296      6299      6302
      6299      6302      6305      6306      6299      6302      6305      6307
      6299      6302      6305      6308      6300      6299      6302      6303
      6300      6299      6302      6304      6300      6299      6302      6305
      6301      6299      6302      6303      6301      6299      6302      6304
      6301      6299      6302      6305      6302      6305      6308      6309
      6302      6305      6308      6310      6302      6305      6308      6311
      6303      6302      6305      6306      6303      6302      6305      6307
      6303      6302      6305      6308      6304      6302      6305      6306
      6304      6302      6305      6307      6304      6302      6305      6308
      6305      6308      6311      6312      6305      6308      6311      6313
      6305      6308      6311      6314      6306      6305      6308      6309
      6306      6305      6308      6310      6306      6305      6308      6311
      6307      6305      6308      6309      6307      6305      6308      6310
      6307      6305      6308      6311      6309      6308      6311      6312
      6309      6308      6311      6313      6309      6308      6311      6314
      6310      6308      6311      6312      6310      6308      6311      6313
      6310      6308      6311      6314      6315      6316      6331      6332
      6315      6316      6331      6333      6315      6316      6331      6337
      6316      6315      6319      6320      6316      6315      6319      6321
      6316      6315      6319      6322      6316      6315      6323      6324
      6316      6315      6323      6325      6316      6315      6323      6326
      6316      6315      6327      6328      6316      6315      6327      6329
      6316      6315      6327      6330      6316      6331      6337      6334
      6317      6316      6315      6319      6317      6316      6315      6323
      6317      6316      6315      6327      6317      6316      6331      6332
      6317      6316      6331      6333      6317      6316      6331      6337
      6318      6316      6315      6319      6318      6316      6315      6323
      6318      6316      6315      6327      6318      6316      6331      6332
      6318      6316      6331      6333      6318      6316      6331      6337
      6319      6315      6316      6331      6319      6315      6323      6324
      6319      6315      6323      6325      6319      6315      6323      6326
      6319      6315      6327      6328      6319      6315      6327      6329
      6319      6315      6327      6330      6320      6319      6315      6323
      6320      6319      6315      6327      6321      6319      6315      6323
      6321      6319      6315      6327      6322      6319      6315      6323
      6322      6319      6315      6327      6323      6315      6316      6331
      6323      6315      6327      6328      6323      6315      6327      6329
      6323      6315      6327      6330      6324      6323      6315      6327
      6325      6323      6315      6327      6326      6323      6315      6327
      6327      6315      6316      6331      6331      6337      6334      6335
      6331      6337      6334      6336      6331      6337      6334      6338
      6332      6331      6337      6334      6333      6331      6337      6334
      6334      6338      6339      6340      6334      6338      6339      6341
      6334      6338      6339      6342      6335      6334      6338      6339
      6336      6334      6338      6339      6337      6334      6338      6339
      6338      6339      6342      6343      6338      6339      6342      6344
      6338      6339      6342      6350      6339      6342      6344      6345
      6339      6342      6350      6351      6339      6342      6350      6352
      6339      6342      6350      6353      6340      6339      6342      6343
      6340      6339      6342      6344      6340      6339      6342      6350
      6341      6339      6342      6343      6341      6339      6342      6344
      6341      6339      6342      6350      6342      6344      6345      6346
      6342      6344      6345      6347      6342      6350      6353      6354
      6343      6342      6344      6345      6343      6342      6350      6351
      6343      6342      6350      6352      6343      6342      6350      6353
      6344      6342      6350      6351      6344      6342      6350      6352
      6344      6342      6350      6353      6344      6345      6347      6348
      6344      6345      6347      6349      6344      6345      6347      6359
      6345      6344      6342      6350      6345      6347      6359      6360
      6345      6347      6359      6361      6345      6347      6359      6362
      6346      6345      6347      6348      6346      6345      6347      6349
      6346      6345      6347      6359      6347      6359      6362      6363
      6347      6359      6362      6364      6347      6359      6362      6365
      6348      6347      6359      6360      6348      6347      6359      6361
      6348      6347      6359      6362      6349      6347      6359      6360
      6349      6347      6359      6361      6349      6347      6359      6362
      6350      6353      6354      6355      6350      6353      6354      6356
      6351      6350      6353      6354      6352      6350      6353      6354
      6353      6354      6356      6357      6353      6354      6356      6358
      6353      6354      6356      6406      6354      6356      6406      6407
      6354      6356      6406      6408      6354      6356      6406      6409
      6355      6354      6356      6357      6355      6354      6356      6358
      6355      6354      6356      6406      6356      6406      6409      6410
      6356      6406      6409      6411      6356      6406      6409      6412
      6357      6356      6406      6407      6357      6356      6406      6408
      6357      6356      6406      6409      6358      6356      6406      6407
      6358      6356      6406      6408      6358      6356      6406      6409
      6359      6362      6365      6366      6359      6362      6365      6367
      6359      6362      6365      6368      6360      6359      6362      6363
      6360      6359      6362      6364      6360      6359      6362      6365
      6361      6359      6362      6363      6361      6359      6362      6364
      6361      6359      6362      6365      6362      6365      6368      6369
      6362      6365      6368      6370      6362      6365      6368      6371
      6363      6362      6365      6366      6363      6362      6365      6367
      6363      6362      6365      6368      6364      6362      6365      6366
      6364      6362      6365      6367      6364      6362      6365      6368
      6365      6368      6371      6372      6365      6368      6371      6373
      6365      6368      6371      6374      6366      6365      6368      6369
      6366      6365      6368      6370      6366      6365      6368      6371
      6367      6365      6368      6369      6367      6365      6368      6370
      6367      6365      6368      6371      6368      6371      6374      6375
      6368      6371      6374      6376      6368      6371      6374      6377
      6369      6368      6371      6372      6369      6368      6371      6373
      6369      6368      6371      6374      6370      6368      6371      6372
      6370      6368      6371      6373      6370      6368      6371      6374
      6371      6374      6377      6378      6371      6374      6377      6379
      6372      6371      6374      6375      6372      6371      6374      6376
      6372      6371      6374      6377      6373      6371      6374      6375
      6373      6371      6374      6376      6373      6371      6374      6377
      6374      6377      6379      6380      6374      6377      6379      6381
      6375      6374      6377      6378      6375      6374      6377      6379
      6376      6374      6377      6378      6376      6374      6377      6379
      6377      6379      6381      6382      6377      6379      6381      6383
      6377      6379      6381      6384      6378      6377      6379      6380
      6378      6377      6379      6381      6379      6381      6384      6385
      6379      6381      6384      6386      6379      6381      6384      6387
      6380      6379      6381      6382      6380      6379      6381      6383
      6380      6379      6381      6384      6381      6384      6387      6388
      6381      6384      6387      6389      6381      6384      6387      6390
      6382      6381      6384      6385      6382      6381      6384      6386
      6382      6381      6384      6387      6383      6381      6384      6385
      6383      6381      6384      6386      6383      6381      6384      6387
      6384      6387      6390      6391      6384      6387      6390      6392
      6384      6387      6390      6393      6385      6384      6387      6388
      6385      6384      6387      6389      6385      6384      6387      6390
      6386      6384      6387      6388      6386      6384      6387      6389
      6386      6384      6387      6390      6387      6390      6393      6394
      6387      6390      6393      6395      6387      6390      6393      6396
      6388      6387      6390      6391      6388      6387      6390      6392
      6388      6387      6390      6393      6389      6387      6390      6391
      6389      6387      6390      6392      6389      6387      6390      6393
      6390      6393      6396      6397      6390      6393      6396      6398
      6390      6393      6396      6399      6391      6390      6393      6394
      6391      6390      6393      6395      6391      6390      6393      6396
      6392      6390      6393      6394      6392      6390      6393      6395
      6392      6390      6393      6396      6393      6396      6399      6400
      6393      6396      6399      6401      6393      6396      6399      6402
      6394      6393      6396      6397      6394      6393      6396      6398
      6394      6393      6396      6399      6395      6393      6396      6397
      6395      6393      6396      6398      6395      6393      6396      6399
      6396      6399      6402      6403      6396      6399      6402      6404
      6396      6399      6402      6405      6397      6396      6399      6400
      6397      6396      6399      6401      6397      6396      6399      6402
      6398      6396      6399      6400      6398      6396      6399      6401
      6398      6396      6399      6402      6400      6399      6402      6403
      6400      6399      6402      6404      6400      6399      6402      6405
      6401      6399      6402      6403      6401      6399      6402      6404
      6401      6399      6402      6405      6406      6409      6412      6413
      6406      6409      6412      6414      6406      6409      6412      6415
      6407      6406      6409      6410      6407      6406      6409      6411
      6407      6406      6409      6412      6408      6406      6409      6410
      6408      6406      6409      6411      6408      6406      6409      6412
      6409      6412      6415      6416      6409      6412      6415      6417
      6409      6412      6415      6418      6410      6409      6412      6413
      6410      6409      6412      6414      6410      6409      6412      6415
      6411      6409      6412      6413      6411      6409      6412      6414
      6411      6409      6412      6415      6412      6415      6418      6419
      6412      6415      6418      6420      6412      6415      6418      6421
      6413      6412      6415      6416      6413      6412      6415      6417
      6413      6412      6415      6418      6414      6412      6415      6416
      6414      6412      6415      6417      6414      6412      6415      6418
      6415      6418      6421      6422      6415      6418      6421      6423
      6415      6418      6421      6424      6416      6415      6418      6419
      6416      6415      6418      6420      6416      6415      6418      6421
      6417      6415      6418      6419      6417      6415      6418      6420
      6417      6415      6418      6421      6418      6421      6424      6425
      6418      6421      6424      6426      6418      6421      6424      6427
      6419      6418      6421      6422      6419      6418      6421      6423
      6419      6418      6421      6424      6420      6418      6421      6422
      6420      6418      6421      6423      6420      6418      6421      6424
      6421      6424      6427      6428      6421      6424      6427      6429
      6421      6424      6427      6430      6422      6421      6424      6425
      6422      6421      6424      6426      6422      6421      6424      6427
      6423      6421      6424      6425      6423      6421      6424      6426
      6423      6421      6424      6427      6424      6427      6430      6431
      6424      6427      6430      6432      6424      6427      6430      6433
      6425      6424      6427      6428      6425      6424      6427      6429
      6425      6424      6427      6430      6426      6424      6427      6428
      6426      6424      6427      6429      6426      6424      6427      6430
      6427      6430      6433      6434      6427      6430      6433      6435
      6427      6430      6433      6436      6428      6427      6430      6431
      6428      6427      6430      6432      6428      6427      6430      6433
      6429      6427      6430      6431      6429      6427      6430      6432
      6429      6427      6430      6433      6430      6433      6436      6437
      6430      6433      6436      6438      6430      6433      6436      6439
      6431      6430      6433      6434      6431      6430      6433      6435
      6431      6430      6433      6436      6432      6430      6433      6434
      6432      6430      6433      6435      6432      6430      6433      6436
      6433      6436      6439      6440      6433      6436      6439      6441
      6433      6436      6439      6442      6434      6433      6436      6437
      6434      6433      6436      6438      6434      6433      6436      6439
      6435      6433      6436      6437      6435      6433      6436      6438
      6435      6433      6436      6439      6436      6439      6442      6443
      6436      6439      6442      6444      6436      6439      6442      6445
      6437      6436      6439      6440      6437      6436      6439      6441
      6437      6436      6439      6442      6438      6436      6439      6440
      6438      6436      6439      6441      6438      6436      6439      6442
      6439      6442      6445      6446      6439      6442      6445      6447
      6439      6442      6445      6448      6440      6439      6442      6443
      6440      6439      6442      6444      6440      6439      6442      6445
      6441      6439      6442      6443      6441      6439      6442      6444
      6441      6439      6442      6445      6443      6442      6445      6446
      6443      6442      6445      6447      6443      6442      6445      6448
      6444      6442      6445      6446      6444      6442      6445      6447
      6444      6442      6445      6448      6449      6450      6465      6466
      6449      6450      6465      6467      6449      6450      6465      6471
      6450      6449      6453      6454      6450      6449      6453      6455
      6450      6449      6453      6456      6450      6449      6457      6458
      6450      6449      6457      6459      6450      6449      6457      6460
      6450      6449      6461      6462      6450      6449      6461      6463
      6450      6449      6461      6464      6450      6465      6471      6468
      6451      6450      6449      6453      6451      6450      6449      6457
      6451      6450      6449      6461      6451      6450      6465      6466
      6451      6450      6465      6467      6451      6450      6465      6471
      6452      6450      6449      6453      6452      6450      6449      6457
      6452      6450      6449      6461      6452      6450      6465      6466
      6452      6450      6465      6467      6452      6450      6465      6471
      6453      6449      6450      6465      6453      6449      6457      6458
      6453      6449      6457      6459      6453      6449      6457      6460
      6453      6449      6461      6462      6453      6449      6461      6463
      6453      6449      6461      6464      6454      6453      6449      6457
      6454      6453      6449      6461      6455      6453      6449      6457
      6455      6453      6449      6461      6456      6453      6449      6457
      6456      6453      6449      6461      6457      6449      6450      6465
      6457      6449      6461      6462      6457      6449      6461      6463
      6457      6449      6461      6464      6458      6457      6449      6461
      6459      6457      6449      6461      6460      6457      6449      6461
      6461      6449      6450      6465      6465      6471      6468      6469
      6465      6471      6468      6470      6465      6471      6468      6472
      6466      6465      6471      6468      6467      6465      6471      6468
      6468      6472      6473      6474      6468      6472      6473      6475
      6468      6472      6473      6476      6469      6468      6472      6473
      6470      6468      6472      6473      6471      6468      6472      6473
      6472      6473      6476      6477      6472      6473      6476      6478
      6472      6473      6476      6484      6473      6476      6478      6479
      6473      6476      6484      6485      6473      6476      6484      6486
      6473      6476      6484      6487      6474      6473      6476      6477
      6474      6473      6476      6478      6474      6473      6476      6484
      6475      6473      6476      6477      6475      6473      6476      6478
      6475      6473      6476      6484      6476      6478      6479      6480
      6476      6478      6479      6481      6476      6484      6487      6488
      6477      6476      6478      6479      6477      6476      6484      6485
      6477      6476      6484      6486      6477      6476      6484      6487
      6478      6476      6484      6485      6478      6476      6484      6486
      6478      6476      6484      6487      6478      6479      6481      6482
      6478      6479      6481      6483      6478      6479      6481      6493
      6479      6478      6476      6484      6479      6481      6493      6494
      6479      6481      6493      6495      6479      6481      6493      6496
      6480      6479      6481      6482      6480      6479      6481      6483
      6480      6479      6481      6493      6481      6493      6496      6497
      6481      6493      6496      6498      6481      6493      6496      6499
      6482      6481      6493      6494      6482      6481      6493      6495
      6482      6481      6493      6496      6483      6481      6493      6494
      6483      6481      6493      6495      6483      6481      6493      6496
      6484      6487      6488      6489      6484      6487      6488      6490
      6485      6484      6487      6488      6486      6484      6487      6488
      6487      6488      6490      6491      6487      6488      6490      6492
      6487      6488      6490      6540      6488      6490      6540      6541
      6488      6490      6540      6542      6488      6490      6540      6543
      6489      6488      6490      6491      6489      6488      6490      6492
      6489      6488      6490      6540      6490      6540      6543      6544
      6490      6540      6543      6545      6490      6540      6543      6546
      6491      6490      6540      6541      6491      6490      6540      6542
      6491      6490      6540      6543      6492      6490      6540      6541
      6492      6490      6540      6542      6492      6490      6540      6543
      6493      6496      6499      6500      6493      6496      6499      6501
      6493      6496      6499      6502      6494      6493      6496      6497
      6494      6493      6496      6498      6494      6493      6496      6499
      6495      6493      6496      6497      6495      6493      6496      6498
      6495      6493      6496      6499      6496      6499      6502      6503
      6496      6499      6502      6504      6496      6499      6502      6505
      6497      6496      6499      6500      6497      6496      6499      6501
      6497      6496      6499      6502      6498      6496      6499      6500
      6498      6496      6499      6501      6498      6496      6499      6502
      6499      6502      6505      6506      6499      6502      6505      6507
      6499      6502      6505      6508      6500      6499      6502      6503
      6500      6499      6502      6504      6500      6499      6502      6505
      6501      6499      6502      6503      6501      6499      6502      6504
      6501      6499      6502      6505      6502      6505      6508      6509
      6502      6505      6508      6510      6502      6505      6508      6511
      6503      6502      6505      6506      6503      6502      6505      6507
      6503      6502      6505      6508      6504      6502      6505      6506
      6504      6502      6505      6507      6504      6502      6505      6508
      6505      6508      6511      6512      6505      6508      6511      6513
      6506      6505      6508      6509      6506      6505      6508      6510
      6506      6505      6508      6511      6507      6505      6508      6509
      6507      6505      6508      6510      6507      6505      6508      6511
      6508      6511      6513      6514      6508      6511      6513      6515
      6509      6508      6511      6512      6509      6508      6511      6513
      6510      6508      6511      6512      6510      6508      6511      6513
      6511      6513      6515      6516      6511      6513      6515      6517
      6511      6513      6515      6518      6512      6511      6513      6514
      6512      6511      6513      6515      6513      6515      6518      6519
      6513      6515      6518      6520      6513      6515      6518      6521
      6514      6513      6515      6516      6514      6513      6515      6517
      6514      6513      6515      6518      6515      6518      6521      6522
      6515      6518      6521      6523      6515      6518      6521      6524
      6516      6515      6518      6519      6516      6515      6518      6520
      6516      6515      6518      6521      6517      6515      6518      6519
      6517      6515      6518      6520      6517      6515      6518      6521
      6518      6521      6524      6525      6518      6521      6524      6526
      6518      6521      6524      6527      6519      6518      6521      6522
      6519      6518      6521      6523      6519      6518      6521      6524
      6520      6518      6521      6522      6520      6518      6521      6523
      6520      6518      6521      6524      6521      6524      6527      6528
      6521      6524      6527      6529      6521      6524      6527      6530
      6522      6521      6524      6525      6522      6521      6524      6526
      6522      6521      6524      6527      6523      6521      6524      6525
      6523      6521      6524      6526      6523      6521      6524      6527
      6524      6527      6530      6531      6524      6527      6530      6532
      6524      6527      6530      6533      6525      6524      6527      6528
      6525      6524      6527      6529      6525      6524      6527      6530
      6526      6524      6527      6528      6526      6524      6527      6529
      6526      6524      6527      6530      6527      6530      6533      6534
      6527      6530      6533      6535      6527      6530      6533      6536
      6528      6527      6530      6531      6528      6527      6530      6532
      6528      6527      6530      6533      6529      6527      6530      6531
      6529      6527      6530      6532      6529      6527      6530      6533
      6530      6533      6536      6537      6530      6533      6536      6538
      6530      6533      6536      6539      6531      6530      6533      6534
      6531      6530      6533      6535      6531      6530      6533      6536
      6532      6530      6533      6534      6532      6530      6533      6535
      6532      6530      6533      6536      6534      6533      6536      6537
      6534      6533      6536      6538      6534      6533      6536      6539
      6535      6533      6536      6537      6535      6533      6536      6538
      6535      6533      6536      6539      6540      6543      6546      6547
      6540      6543      6546      6548      6540      6543      6546      6549
      6541      6540      6543      6544      6541      6540      6543      6545
      6541      6540      6543      6546      6542      6540      6543      6544
      6542      6540      6543      6545      6542      6540      6543      6546
      6543      6546      6549      6550      6543      6546      6549      6551
      6543      6546      6549      6552      6544      6543      6546      6547
      6544      6543      6546      6548      6544      6543      6546      6549
      6545      6543      6546      6547      6545      6543      6546      6548
      6545      6543      6546      6549      6546      6549      6552      6553
      6546      6549      6552      6554      6546      6549      6552      6555
      6547      6546      6549      6550      6547      6546      6549      6551
      6547      6546      6549      6552      6548      6546      6549      6550
      6548      6546      6549      6551      6548      6546      6549      6552
      6549      6552      6555      6556      6549      6552      6555      6557
      6549      6552      6555      6558      6550      6549      6552      6553
      6550      6549      6552      6554      6550      6549      6552      6555
      6551      6549      6552      6553      6551      6549      6552      6554
      6551      6549      6552      6555      6552      6555      6558      6559
      6552      6555      6558      6560      6552      6555      6558      6561
      6553      6552      6555      6556      6553      6552      6555      6557
      6553      6552      6555      6558      6554      6552      6555      6556
      6554      6552      6555      6557      6554      6552      6555      6558
      6555      6558      6561      6562      6555      6558      6561      6563
      6555      6558      6561      6564      6556      6555      6558      6559
      6556      6555      6558      6560      6556      6555      6558      6561
      6557      6555      6558      6559      6557      6555      6558      6560
      6557      6555      6558      6561      6558      6561      6564      6565
      6558      6561      6564      6566      6558      6561      6564      6567
      6559      6558      6561      6562      6559      6558      6561      6563
      6559      6558      6561      6564      6560      6558      6561      6562
      6560      6558      6561      6563      6560      6558      6561      6564
      6561      6564      6567      6568      6561      6564      6567      6569
      6561      6564      6567      6570      6562      6561      6564      6565
      6562      6561      6564      6566      6562      6561      6564      6567
      6563      6561      6564      6565      6563      6561      6564      6566
      6563      6561      6564      6567      6564      6567      6570      6571
      6564      6567      6570      6572      6564      6567      6570      6573
      6565      6564      6567      6568      6565      6564      6567      6569
      6565      6564      6567      6570      6566      6564      6567      6568
      6566      6564      6567      6569      6566      6564      6567      6570
      6567      6570      6573      6574      6567      6570      6573      6575
      6567      6570      6573      6576      6568      6567      6570      6571
      6568      6567      6570      6572      6568      6567      6570      6573
      6569      6567      6570      6571      6569      6567      6570      6572
      6569      6567      6570      6573      6570      6573      6576      6577
      6570      6573      6576      6578      6570      6573      6576      6579
      6571      6570      6573      6574      6571      6570      6573      6575
      6571      6570      6573      6576      6572      6570      6573      6574
      6572      6570      6573      6575      6572      6570      6573      6576
      6573      6576      6579      6580      6573      6576      6579      6581
      6573      6576      6579      6582      6574      6573      6576      6577
      6574      6573      6576      6578      6574      6573      6576      6579
      6575      6573      6576      6577      6575      6573      6576      6578
      6575      6573      6576      6579      6577      6576      6579      6580
      6577      6576      6579      6581      6577      6576      6579      6582
      6578      6576      6579      6580      6578      6576      6579      6581
      6578      6576      6579      6582      6583      6584      6599      6600
      6583      6584      6599      6601      6583      6584      6599      6605
      6584      6583      6587      6588      6584      6583      6587      6589
      6584      6583      6587      6590      6584      6583      6591      6592
      6584      6583      6591      6593      6584      6583      6591      6594
      6584      6583      6595      6596      6584      6583      6595      6597
      6584      6583      6595      6598      6584      6599      6605      6602
      6585      6584      6583      6587      6585      6584      6583      6591
      6585      6584      6583      6595      6585      6584      6599      6600
      6585      6584      6599      6601      6585      6584      6599      6605
      6586      6584      6583      6587      6586      6584      6583      6591
      6586      6584      6583      6595      6586      6584      6599      6600
      6586      6584      6599      6601      6586      6584      6599      6605
      6587      6583      6584      6599      6587      6583      6591      6592
      6587      6583      6591      6593      6587      6583      6591      6594
      6587      6583      6595      6596      6587      6583      6595      6597
      6587      6583      6595      6598      6588      6587      6583      6591
      6588      6587      6583      6595      6589      6587      6583      6591
      6589      6587      6583      6595      6590      6587      6583      6591
      6590      6587      6583      6595      6591      6583      6584      6599
      6591      6583      6595      6596      6591      6583      6595      6597
      6591      6583      6595      6598      6592      6591      6583      6595
      6593      6591      6583      6595      6594      6591      6583      6595
      6595      6583      6584      6599      6599      6605      6602      6603
      6599      6605      6602      6604      6599      6605      6602      6606
      6600      6599      6605      6602      6601      6599      6605      6602
      6602      6606      6607      6608      6602      6606      6607      6609
      6602      6606      6607      6610      6603      6602      6606      6607
      6604      6602      6606      6607      6605      6602      6606      6607
      6606      6607      6610      6611      6606      6607      6610      6612
      6606      6607      6610      6618      6607      6610      6612      6613
      6607      6610      6618      6619      6607      6610      6618      6620
      6607      6610      6618      6621      6608      6607      6610      6611
      6608      6607      6610      6612      6608      6607      6610      6618
      6609      6607      6610      6611      6609      6607      6610      6612
      6609      6607      6610      6618      6610      6612      6613      6614
      6610      6612      6613      6615      6610      6618      6621      6622
      6611      6610      6612      6613      6611      6610      6618      6619
      6611      6610      6618      6620      6611      6610      6618      6621
      6612      6610      6618      6619      6612      6610      6618      6620
      6612      6610      6618      6621      6612      6613      6615      6616
      6612      6613      6615      6617      6612      6613      6615      6627
      6613      6612      6610      6618      6613      6615      6627      6628
      6613      6615      6627      6629      6613      6615      6627      6630
      6614      6613      6615      6616      6614      6613      6615      6617
      6614      6613      6615      6627      6615      6627      6630      6631
      6615      6627      6630      6632      6615      6627      6630      6633
      6616      6615      6627      6628      6616      6615      6627      6629
      6616      6615      6627      6630      6617      6615      6627      6628
      6617      6615      6627      6629      6617      6615      6627      6630
      6618      6621      6622      6623      6618      6621      6622      6624
      6619      6618      6621      6622      6620      6618      6621      6622
      6621      6622      6624      6625      6621      6622      6624      6626
      6621      6622      6624      6674      6622      6624      6674      6675
      6622      6624      6674      6676      6622      6624      6674      6677
      6623      6622      6624      6625      6623      6622      6624      6626
      6623      6622      6624      6674      6624      6674      6677      6678
      6624      6674      6677      6679      6624      6674      6677      6680
      6625      6624      6674      6675      6625      6624      6674      6676
      6625      6624      6674      6677      6626      6624      6674      6675
      6626      6624      6674      6676      6626      6624      6674      6677
      6627      6630      6633      6634      6627      6630      6633      6635
      6627      6630      6633      6636      6628      6627      6630      6631
      6628      6627      6630      6632      6628      6627      6630      6633
      6629      6627      6630      6631      6629      6627      6630      6632
      6629      6627      6630      6633      6630      6633      6636      6637
      6630      6633      6636      6638      6630      6633      6636      6639
      6631      6630      6633      6634      6631      6630      6633      6635
      6631      6630      6633      6636      6632      6630      6633      6634
      6632      6630      6633      6635      6632      6630      6633      6636
      6633      6636      6639      6640      6633      6636      6639      6641
      6633      6636      6639      6642      6634      6633      6636      6637
      6634      6633      6636      6638      6634      6633      6636      6639
      6635      6633      6636      6637      6635      6633      6636      6638
      6635      6633      6636      6639      6636      6639      6642      6643
      6636      6639      6642      6644      6636      6639      6642      6645
      6637      6636      6639      6640      6637      6636      6639      6641
      6637      6636      6639      6642      6638      6636      6639      6640
      6638      6636      6639      6641      6638      6636      6639      6642
      6639      6642      6645      6646      6639      6642      6645      6647
      6640      6639      6642      6643      6640      6639      6642      6644
      6640      6639      6642      6645      6641      6639      6642      6643
      6641      6639      6642      6644      6641      6639      6642      6645
      6642      6645      6647      6648      6642      6645      6647      6649
      6643      6642      6645      6646      6643      6642      6645      6647
      6644      6642      6645      6646      6644      6642      6645      6647
      6645      6647      6649      6650      6645      6647      6649      6651
      6645      6647      6649      6652      6646      6645      6647      6648
      6646      6645      6647      6649      6647      6649      6652      6653
      6647      6649      6652      6654      6647      6649      6652      6655
      6648      6647      6649      6650      6648      6647      6649      6651
      6648      6647      6649      6652      6649      6652      6655      6656
      6649      6652      6655      6657      6649      6652      6655      6658
      6650      6649      6652      6653      6650      6649      6652      6654
      6650      6649      6652      6655      6651      6649      6652      6653
      6651      6649      6652      6654      6651      6649      6652      6655
      6652      6655      6658      6659      6652      6655      6658      6660
      6652      6655      6658      6661      6653      6652      6655      6656
      6653      6652      6655      6657      6653      6652      6655      6658
      6654      6652      6655      6656      6654      6652      6655      6657
      6654      6652      6655      6658      6655      6658      6661      6662
      6655      6658      6661      6663      6655      6658      6661      6664
      6656      6655      6658      6659      6656      6655      6658      6660
      6656      6655      6658      6661      6657      6655      6658      6659
      6657      6655      6658      6660      6657      6655      6658      6661
      6658      6661      6664      6665      6658      6661      6664      6666
      6658      6661      6664      6667      6659      6658      6661      6662
      6659      6658      6661      6663      6659      6658      6661      6664
      6660      6658      6661      6662      6660      6658      6661      6663
      6660      6658      6661      6664      6661      6664      6667      6668
      6661      6664      6667      6669      6661      6664      6667      6670
      6662      6661      6664      6665      6662      6661      6664      6666
      6662      6661      6664      6667      6663      6661      6664      6665
      6663      6661      6664      6666      6663      6661      6664      6667
      6664      6667      6670      6671      6664      6667      6670      6672
      6664      6667      6670      6673      6665      6664      6667      6668
      6665      6664      6667      6669      6665      6664      6667      6670
      6666      6664      6667      6668      6666      6664      6667      6669
      6666      6664      6667      6670      6668      6667      6670      6671
      6668      6667      6670      6672      6668      6667      6670      6673
      6669      6667      6670      6671      6669      6667      6670      6672
      6669      6667      6670      6673      6674      6677      6680      6681
      6674      6677      6680      6682      6674      6677      6680      6683
      6675      6674      6677      6678      6675      6674      6677      6679
      6675      6674      6677      6680      6676      6674      6677      6678
      6676      6674      6677      6679      6676      6674      6677      6680
      6677      6680      6683      6684      6677      6680      6683      6685
      6677      6680      6683      6686      6678      6677      6680      6681
      6678      6677      6680      6682      6678      6677      6680      6683
      6679      6677      6680      6681      6679      6677      6680      6682
      6679      6677      6680      6683      6680      6683      6686      6687
      6680      6683      6686      6688      6680      6683      6686      6689
      6681      6680      6683      6684      6681      6680      6683      6685
      6681      6680      6683      6686      6682      6680      6683      6684
      6682      6680      6683      6685      6682      6680      6683      6686
      6683      6686      6689      6690      6683      6686      6689      6691
      6683      6686      6689      6692      6684      6683      6686      6687
      6684      6683      6686      6688      6684      6683      6686      6689
      6685      6683      6686      6687      6685      6683      6686      6688
      6685      6683      6686      6689      6686      6689      6692      6693
      6686      6689      6692      6694      6686      6689      6692      6695
      6687      6686      6689      6690      6687      6686      6689      6691
      6687      6686      6689      6692      6688      6686      6689      6690
      6688      6686      6689      6691      6688      6686      6689      6692
      6689      6692      6695      6696      6689      6692      6695      6697
      6689      6692      6695      6698      6690      6689      6692      6693
      6690      6689      6692      6694      6690      6689      6692      6695
      6691      6689      6692      6693      6691      6689      6692      6694
      6691      6689      6692      6695      6692      6695      6698      6699
      6692      6695      6698      6700      6692      6695      6698      6701
      6693      6692      6695      6696      6693      6692      6695      6697
      6693      6692      6695      6698      6694      6692      6695      6696
      6694      6692      6695      6697      6694      6692      6695      6698
      6695      6698      6701      6702      6695      6698      6701      6703
      6695      6698      6701      6704      6696      6695      6698      6699
      6696      6695      6698      6700      6696      6695      6698      6701
      6697      6695      6698      6699      6697      6695      6698      6700
      6697      6695      6698      6701      6698      6701      6704      6705
      6698      6701      6704      6706      6698      6701      6704      6707
      6699      6698      6701      6702      6699      6698      6701      6703
      6699      6698      6701      6704      6700      6698      6701      6702
      6700      6698      6701      6703      6700      6698      6701      6704
      6701      6704      6707      6708      6701      6704      6707      6709
      6701      6704      6707      6710      6702      6701      6704      6705
      6702      6701      6704      6706      6702      6701      6704      6707
      6703      6701      6704      6705      6703      6701      6704      6706
      6703      6701      6704      6707      6704      6707      6710      6711
      6704      6707      6710      6712      6704      6707      6710      6713
      6705      6704      6707      6708      6705      6704      6707      6709
      6705      6704      6707      6710      6706      6704      6707      6708
      6706      6704      6707      6709      6706      6704      6707      6710
      6707      6710      6713      6714      6707      6710      6713      6715
      6707      6710      6713      6716      6708      6707      6710      6711
      6708      6707      6710      6712      6708      6707      6710      6713
      6709      6707      6710      6711      6709      6707      6710      6712
      6709      6707      6710      6713      6711      6710      6713      6714
      6711      6710      6713      6715      6711      6710      6713      6716
      6712      6710      6713      6714      6712      6710      6713      6715
      6712      6710      6713      6716      6717      6718      6733      6734
      6717      6718      6733      6735      6717      6718      6733      6739
      6718      6717      6721      6722      6718      6717      6721      6723
      6718      6717      6721      6724      6718      6717      6725      6726
      6718      6717      6725      6727      6718      6717      6725      6728
      6718      6717      6729      6730      6718      6717      6729      6731
      6718      6717      6729      6732      6718      6733      6739      6736
      6719      6718      6717      6721      6719      6718      6717      6725
      6719      6718      6717      6729      6719      6718      6733      6734
      6719      6718      6733      6735      6719      6718      6733      6739
      6720      6718      6717      6721      6720      6718      6717      6725
      6720      6718      6717      6729      6720      6718      6733      6734
      6720      6718      6733      6735      6720      6718      6733      6739
      6721      6717      6718      6733      6721      6717      6725      6726
      6721      6717      6725      6727      6721      6717      6725      6728
      6721      6717      6729      6730      6721      6717      6729      6731
      6721      6717      6729      6732      6722      6721      6717      6725
      6722      6721      6717      6729      6723      6721      6717      6725
      6723      6721      6717      6729      6724      6721      6717      6725
      6724      6721      6717      6729      6725      6717      6718      6733
      6725      6717      6729      6730      6725      6717      6729      6731
      6725      6717      6729      6732      6726      6725      6717      6729
      6727      6725      6717      6729      6728      6725      6717      6729
      6729      6717      6718      6733      6733      6739      6736      6737
      6733      6739      6736      6738      6733      6739      6736      6740
      6734      6733      6739      6736      6735      6733      6739      6736
      6736      6740      6741      6742      6736      6740      6741      6743
      6736      6740      6741      6744      6737      6736      6740      6741
      6738      6736      6740      6741      6739      6736      6740      6741
      6740      6741      6744      6745      6740      6741      6744      6746
      6740      6741      6744      6752      6741      6744      6746      6747
      6741      6744      6752      6753      6741      6744      6752      6754
      6741      6744      6752      6755      6742      6741      6744      6745
      6742      6741      6744      6746      6742      6741      6744      6752
      6743      6741      6744      6745      6743      6741      6744      6746
      6743      6741      6744      6752      6744      6746      6747      6748
      6744      6746      6747      6749      6744      6752      6755      6756
      6745      6744      6746      6747      6745      6744      6752      6753
      6745      6744      6752      6754      6745      6744      6752      6755
      6746      6744      6752      6753      6746      6744      6752      6754
      6746      6744      6752      6755      6746      6747      6749      6750
      6746      6747      6749      6751      6746      6747      6749      6761
      6747      6746      6744      6752      6747      6749      6761      6762
      6747      6749      6761      6763      6747      6749      6761      6764
      6748      6747      6749      6750      6748      6747      6749      6751
      6748      6747      6749      6761      6749      6761      6764      6765
      6749      6761      6764      6766      6749      6761      6764      6767
      6750      6749      6761      6762      6750      6749      6761      6763
      6750      6749      6761      6764      6751      6749      6761      6762
      6751      6749      6761      6763      6751      6749      6761      6764
      6752      6755      6756      6757      6752      6755      6756      6758
      6753      6752      6755      6756      6754      6752      6755      6756
      6755      6756      6758      6759      6755      6756      6758      6760
      6755      6756      6758      6808      6756      6758      6808      6809
      6756      6758      6808      6810      6756      6758      6808      6811
      6757      6756      6758      6759      6757      6756      6758      6760
      6757      6756      6758      6808      6758      6808      6811      6812
      6758      6808      6811      6813      6758      6808      6811      6814
      6759      6758      6808      6809      6759      6758      6808      6810
      6759      6758      6808      6811      6760      6758      6808      6809
      6760      6758      6808      6810      6760      6758      6808      6811
      6761      6764      6767      6768      6761      6764      6767      6769
      6761      6764      6767      6770      6762      6761      6764      6765
      6762      6761      6764      6766      6762      6761      6764      6767
      6763      6761      6764      6765      6763      6761      6764      6766
      6763      6761      6764      6767      6764      6767      6770      6771
      6764      6767      6770      6772      6764      6767      6770      6773
      6765      6764      6767      6768      6765      6764      6767      6769
      6765      6764      6767      6770      6766      6764      6767      6768
      6766      6764      6767      6769      6766      6764      6767      6770
      6767      6770      6773      6774      6767      6770      6773      6775
      6767      6770      6773      6776      6768      6767      6770      6771
      6768      6767      6770      6772      6768      6767      6770      6773
      6769      6767      6770      6771      6769      6767      6770      6772
      6769      6767      6770      6773      6770      6773      6776      6777
      6770      6773      6776      6778      6770      6773      6776      6779
      6771      6770      6773      6774      6771      6770      6773      6775
      6771      6770      6773      6776      6772      6770      6773      6774
      6772      6770      6773      6775      6772      6770      6773      6776
      6773      6776      6779      6780      6773      6776      6779      6781
      6774      6773      6776      6777      6774      6773      6776      6778
      6774      6773      6776      6779      6775      6773      6776      6777
      6775      6773      6776      6778      6775      6773      6776      6779
      6776      6779      6781      6782      6776      6779      6781      6783
      6777      6776      6779      6780      6777      6776      6779      6781
      6778      6776      6779      6780      6778      6776      6779      6781
      6779      6781      6783      6784      6779      6781      6783      6785
      6779      6781      6783      6786      6780      6779      6781      6782
      6780      6779      6781      6783      6781      6783      6786      6787
      6781      6783      6786      6788      6781      6783      6786      6789
      6782      6781      6783      6784      6782      6781      6783      6785
      6782      6781      6783      6786      6783      6786      6789      6790
      6783      6786      6789      6791      6783      6786      6789      6792
      6784      6783      6786      6787      6784      6783      6786      6788
      6784      6783      6786      6789      6785      6783      6786      6787
      6785      6783      6786      6788      6785      6783      6786      6789
      6786      6789      6792      6793      6786      6789      6792      6794
      6786      6789      6792      6795      6787      6786      6789      6790
      6787      6786      6789      6791      6787      6786      6789      6792
      6788      6786      6789      6790      6788      6786      6789      6791
      6788      6786      6789      6792      6789      6792      6795      6796
      6789      6792      6795      6797      6789      6792      6795      6798
      6790      6789      6792      6793      6790      6789      6792      6794
      6790      6789      6792      6795      6791      6789      6792      6793
      6791      6789      6792      6794      6791      6789      6792      6795
      6792      6795      6798      6799      6792      6795      6798      6800
      6792      6795      6798      6801      6793      6792      6795      6796
      6793      6792      6795      6797      6793      6792      6795      6798
      6794      6792      6795      6796      6794      6792      6795      6797
      6794      6792      6795      6798      6795      6798      6801      6802
      6795      6798      6801      6803      6795      6798      6801      6804
      6796      6795      6798      6799      6796      6795      6798      6800
      6796      6795      6798      6801      6797      6795      6798      6799
      6797      6795      6798      6800      6797      6795      6798      6801
      6798      6801      6804      6805      6798      6801      6804      6806
      6798      6801      6804      6807      6799      6798      6801      6802
      6799      6798      6801      6803      6799      6798      6801      6804
      6800      6798      6801      6802      6800      6798      6801      6803
      6800      6798      6801      6804      6802      6801      6804      6805
      6802      6801      6804      6806      6802      6801      6804      6807
      6803      6801      6804      6805      6803      6801      6804      6806
      6803      6801      6804      6807      6808      6811      6814      6815
      6808      6811      6814      6816      6808      6811      6814      6817
      6809      6808      6811      6812      6809      6808      6811      6813
      6809      6808      6811      6814      6810      6808      6811      6812
      6810      6808      6811      6813      6810      6808      6811      6814
      6811      6814      6817      6818      6811      6814      6817      6819
      6811      6814      6817      6820      6812      6811      6814      6815
      6812      6811      6814      6816      6812      6811      6814      6817
      6813      6811      6814      6815      6813      6811      6814      6816
      6813      6811      6814      6817      6814      6817      6820      6821
      6814      6817      6820      6822      6814      6817      6820      6823
      6815      6814      6817      6818      6815      6814      6817      6819
      6815      6814      6817      6820      6816      6814      6817      6818
      6816      6814      6817      6819      6816      6814      6817      6820
      6817      6820      6823      6824      6817      6820      6823      6825
      6817      6820      6823      6826      6818      6817      6820      6821
      6818      6817      6820      6822      6818      6817      6820      6823
      6819      6817      6820      6821      6819      6817      6820      6822
      6819      6817      6820      6823      6820      6823      6826      6827
      6820      6823      6826      6828      6820      6823      6826      6829
      6821      6820      6823      6824      6821      6820      6823      6825
      6821      6820      6823      6826      6822      6820      6823      6824
      6822      6820      6823      6825      6822      6820      6823      6826
      6823      6826      6829      6830      6823      6826      6829      6831
      6823      6826      6829      6832      6824      6823      6826      6827
      6824      6823      6826      6828      6824      6823      6826      6829
      6825      6823      6826      6827      6825      6823      6826      6828
      6825      6823      6826      6829      6826      6829      6832      6833
      6826      6829      6832      6834      6826      6829      6832      6835
      6827      6826      6829      6830      6827      6826      6829      6831
      6827      6826      6829      6832      6828      6826      6829      6830
      6828      6826      6829      6831      6828      6826      6829      6832
      6829      6832      6835      6836      6829      6832      6835      6837
      6829      6832      6835      6838      6830      6829      6832      6833
      6830      6829      6832      6834      6830      6829      6832      6835
      6831      6829      6832      6833      6831      6829      6832      6834
      6831      6829      6832      6835      6832      6835      6838      6839
      6832      6835      6838      6840      6832      6835      6838      6841
      6833      6832      6835      6836      6833      6832      6835      6837
      6833      6832      6835      6838      6834      6832      6835      6836
      6834      6832      6835      6837      6834      6832      6835      6838
      6835      6838      6841      6842      6835      6838      6841      6843
      6835      6838      6841      6844      6836      6835      6838      6839
      6836      6835      6838      6840      6836      6835      6838      6841
      6837      6835      6838      6839      6837      6835      6838      6840
      6837      6835      6838      6841      6838      6841      6844      6845
      6838      6841      6844      6846      6838      6841      6844      6847
      6839      6838      6841      6842      6839      6838      6841      6843
      6839      6838      6841      6844      6840      6838      6841      6842
      6840      6838      6841      6843      6840      6838      6841      6844
      6841      6844      6847      6848      6841      6844      6847      6849
      6841      6844      6847      6850      6842      6841      6844      6845
      6842      6841      6844      6846      6842      6841      6844      6847
      6843      6841      6844      6845      6843      6841      6844      6846
      6843      6841      6844      6847      6845      6844      6847      6848
      6845      6844      6847      6849      6845      6844      6847      6850
      6846      6844      6847      6848      6846      6844      6847      6849
      6846      6844      6847      6850      6851      6852      6867      6868
      6851      6852      6867      6869      6851      6852      6867      6873
      6852      6851      6855      6856      6852      6851      6855      6857
      6852      6851      6855      6858      6852      6851      6859      6860
      6852      6851      6859      6861      6852      6851      6859      6862
      6852      6851      6863      6864      6852      6851      6863      6865
      6852      6851      6863      6866      6852      6867      6873      6870
      6853      6852      6851      6855      6853      6852      6851      6859
      6853      6852      6851      6863      6853      6852      6867      6868
      6853      6852      6867      6869      6853      6852      6867      6873
      6854      6852      6851      6855      6854      6852      6851      6859
      6854      6852      6851      6863      6854      6852      6867      6868
      6854      6852      6867      6869      6854      6852      6867      6873
      6855      6851      6852      6867      6855      6851      6859      6860
      6855      6851      6859      6861      6855      6851      6859      6862
      6855      6851      6863      6864      6855      6851      6863      6865
      6855      6851      6863      6866      6856      6855      6851      6859
      6856      6855      6851      6863      6857      6855      6851      6859
      6857      6855      6851      6863      6858      6855      6851      6859
      6858      6855      6851      6863      6859      6851      6852      6867
      6859      6851      6863      6864      6859      6851      6863      6865
      6859      6851      6863      6866      6860      6859      6851      6863
      6861      6859      6851      6863      6862      6859      6851      6863
      6863      6851      6852      6867      6867      6873      6870      6871
      6867      6873      6870      6872      6867      6873      6870      6874
      6868      6867      6873      6870      6869      6867      6873      6870
      6870      6874      6875      6876      6870      6874      6875      6877
      6870      6874      6875      6878      6871      6870      6874      6875
      6872      6870      6874      6875      6873      6870      6874      6875
      6874      6875      6878      6879      6874      6875      6878      6880
      6874      6875      6878      6886      6875      6878      6880      6881
      6875      6878      6886      6887      6875      6878      6886      6888
      6875      6878      6886      6889      6876      6875      6878      6879
      6876      6875      6878      6880      6876      6875      6878      6886
      6877      6875      6878      6879      6877      6875      6878      6880
      6877      6875      6878      6886      6878      6880      6881      6882
      6878      6880      6881      6883      6878      6886      6889      6890
      6879      6878      6880      6881      6879      6878      6886      6887
      6879      6878      6886      6888      6879      6878      6886      6889
      6880      6878      6886      6887      6880      6878      6886      6888
      6880      6878      6886      6889      6880      6881      6883      6884
      6880      6881      6883      6885      6880      6881      6883      6895
      6881      6880      6878      6886      6881      6883      6895      6896
      6881      6883      6895      6897      6881      6883      6895      6898
      6882      6881      6883      6884      6882      6881      6883      6885
      6882      6881      6883      6895      6883      6895      6898      6899
      6883      6895      6898      6900      6883      6895      6898      6901
      6884      6883      6895      6896      6884      6883      6895      6897
      6884      6883      6895      6898      6885      6883      6895      6896
      6885      6883      6895      6897      6885      6883      6895      6898
      6886      6889      6890      6891      6886      6889      6890      6892
      6887      6886      6889      6890      6888      6886      6889      6890
      6889      6890      6892      6893      6889      6890      6892      6894
      6889      6890      6892      6942      6890      6892      6942      6943
      6890      6892      6942      6944      6890      6892      6942      6945
      6891      6890      6892      6893      6891      6890      6892      6894
      6891      6890      6892      6942      6892      6942      6945      6946
      6892      6942      6945      6947      6892      6942      6945      6948
      6893      6892      6942      6943      6893      6892      6942      6944
      6893      6892      6942      6945      6894      6892      6942      6943
      6894      6892      6942      6944      6894      6892      6942      6945
      6895      6898      6901      6902      6895      6898      6901      6903
      6895      6898      6901      6904      6896      6895      6898      6899
      6896      6895      6898      6900      6896      6895      6898      6901
      6897      6895      6898      6899      6897      6895      6898      6900
      6897      6895      6898      6901      6898      6901      6904      6905
      6898      6901      6904      6906      6898      6901      6904      6907
      6899      6898      6901      6902      6899      6898      6901      6903
      6899      6898      6901      6904      6900      6898      6901      6902
      6900      6898      6901      6903      6900      6898      6901      6904
      6901      6904      6907      6908      6901      6904      6907      6909
      6901      6904      6907      6910      6902      6901      6904      6905
      6902      6901      6904      6906      6902      6901      6904      6907
      6903      6901      6904      6905      6903      6901      6904      6906
      6903      6901      6904      6907      6904      6907      6910      6911
      6904      6907      6910      6912      6904      6907      6910      6913
      6905      6904      6907      6908      6905      6904      6907      6909
      6905      6904      6907      6910      6906      6904      6907      6908
      6906      6904      6907      6909      6906      6904      6907      6910
      6907      6910      6913      6914      6907      6910      6913      6915
      6908      6907      6910      6911      6908      6907      6910      6912
      6908      6907      6910      6913      6909      6907      6910      6911
      6909      6907      6910      6912      6909      6907      6910      6913
      6910      6913      6915      6916      6910      6913      6915      6917
      6911      6910      6913      6914      6911      6910      6913      6915
      6912      6910      6913      6914      6912      6910      6913      6915
      6913      6915      6917      6918      6913      6915      6917      6919
      6913      6915      6917      6920      6914      6913      6915      6916
      6914      6913      6915      6917      6915      6917      6920      6921
      6915      6917      6920      6922      6915      6917      6920      6923
      6916      6915      6917      6918      6916      6915      6917      6919
      6916      6915      6917      6920      6917      6920      6923      6924
      6917      6920      6923      6925      6917      6920      6923      6926
      6918      6917      6920      6921      6918      6917      6920      6922
      6918      6917      6920      6923      6919      6917      6920      6921
      6919      6917      6920      6922      6919      6917      6920      6923
      6920      6923      6926      6927      6920      6923      6926      6928
      6920      6923      6926      6929      6921      6920      6923      6924
      6921      6920      6923      6925      6921      6920      6923      6926
      6922      6920      6923      6924      6922      6920      6923      6925
      6922      6920      6923      6926      6923      6926      6929      6930
      6923      6926      6929      6931      6923      6926      6929      6932
      6924      6923      6926      6927      6924      6923      6926      6928
      6924      6923      6926      6929      6925      6923      6926      6927
      6925      6923      6926      6928      6925      6923      6926      6929
      6926      6929      6932      6933      6926      6929      6932      6934
      6926      6929      6932      6935      6927      6926      6929      6930
      6927      6926      6929      6931      6927      6926      6929      6932
      6928      6926      6929      6930      6928      6926      6929      6931
      6928      6926      6929      6932      6929      6932      6935      6936
      6929      6932      6935      6937      6929      6932      6935      6938
      6930      6929      6932      6933      6930      6929      6932      6934
      6930      6929      6932      6935      6931      6929      6932      6933
      6931      6929      6932      6934      6931      6929      6932      6935
      6932      6935      6938      6939      6932      6935      6938      6940
      6932      6935      6938      6941      6933      6932      6935      6936
      6933      6932      6935      6937      6933      6932      6935      6938
      6934      6932      6935      6936      6934      6932      6935      6937
      6934      6932      6935      6938      6936      6935      6938      6939
      6936      6935      6938      6940      6936      6935      6938      6941
      6937      6935      6938      6939      6937      6935      6938      6940
      6937      6935      6938      6941      6942      6945      6948      6949
      6942      6945      6948      6950      6942      6945      6948      6951
      6943      6942      6945      6946      6943      6942      6945      6947
      6943      6942      6945      6948      6944      6942      6945      6946
      6944      6942      6945      6947      6944      6942      6945      6948
      6945      6948      6951      6952      6945      6948      6951      6953
      6945      6948      6951      6954      6946      6945      6948      6949
      6946      6945      6948      6950      6946      6945      6948      6951
      6947      6945      6948      6949      6947      6945      6948      6950
      6947      6945      6948      6951      6948      6951      6954      6955
      6948      6951      6954      6956      6948      6951      6954      6957
      6949      6948      6951      6952      6949      6948      6951      6953
      6949      6948      6951      6954      6950      6948      6951      6952
      6950      6948      6951      6953      6950      6948      6951      6954
      6951      6954      6957      6958      6951      6954      6957      6959
      6951      6954      6957      6960      6952      6951      6954      6955
      6952      6951      6954      6956      6952      6951      6954      6957
      6953      6951      6954      6955      6953      6951      6954      6956
      6953      6951      6954      6957      6954      6957      6960      6961
      6954      6957      6960      6962      6954      6957      6960      6963
      6955      6954      6957      6958      6955      6954      6957      6959
      6955      6954      6957      6960      6956      6954      6957      6958
      6956      6954      6957      6959      6956      6954      6957      6960
      6957      6960      6963      6964      6957      6960      6963      6965
      6957      6960      6963      6966      6958      6957      6960      6961
      6958      6957      6960      6962      6958      6957      6960      6963
      6959      6957      6960      6961      6959      6957      6960      6962
      6959      6957      6960      6963      6960      6963      6966      6967
      6960      6963      6966      6968      6960      6963      6966      6969
      6961      6960      6963      6964      6961      6960      6963      6965
      6961      6960      6963      6966      6962      6960      6963      6964
      6962      6960      6963      6965      6962      6960      6963      6966
      6963      6966      6969      6970      6963      6966      6969      6971
      6963      6966      6969      6972      6964      6963      6966      6967
      6964      6963      6966      6968      6964      6963      6966      6969
      6965      6963      6966      6967      6965      6963      6966      6968
      6965      6963      6966      6969      6966      6969      6972      6973
      6966      6969      6972      6974      6966      6969      6972      6975
      6967      6966      6969      6970      6967      6966      6969      6971
      6967      6966      6969      6972      6968      6966      6969      6970
      6968      6966      6969      6971      6968      6966      6969      6972
      6969      6972      6975      6976      6969      6972      6975      6977
      6969      6972      6975      6978      6970      6969      6972      6973
      6970      6969      6972      6974      6970      6969      6972      6975
      6971      6969      6972      6973      6971      6969      6972      6974
      6971      6969      6972      6975      6972      6975      6978      6979
      6972      6975      6978      6980      6972      6975      6978      6981
      6973      6972      6975      6976      6973      6972      6975      6977
      6973      6972      6975      6978      6974      6972      6975      6976
      6974      6972      6975      6977      6974      6972      6975      6978
      6975      6978      6981      6982      6975      6978      6981      6983
      6975      6978      6981      6984      6976      6975      6978      6979
      6976      6975      6978      6980      6976      6975      6978      6981
      6977      6975      6978      6979      6977      6975      6978      6980
      6977      6975      6978      6981      6979      6978      6981      6982
      6979      6978      6981      6983      6979      6978      6981      6984
      6980      6978      6981      6982      6980      6978      6981      6983
      6980      6978      6981      6984      6985      6986      7001      7002
      6985      6986      7001      7003      6985      6986      7001      7007
      6986      6985      6989      6990      6986      6985      6989      6991
      6986      6985      6989      6992      6986      6985      6993      6994
      6986      6985      6993      6995      6986      6985      6993      6996
      6986      6985      6997      6998      6986      6985      6997      6999
      6986      6985      6997      7000      6986      7001      7007      7004
      6987      6986      6985      6989      6987      6986      6985      6993
      6987      6986      6985      6997      6987      6986      7001      7002
      6987      6986      7001      7003      6987      6986      7001      7007
      6988      6986      6985      6989      6988      6986      6985      6993
      6988      6986      6985      6997      6988      6986      7001      7002
      6988      6986      7001      7003      6988      6986      7001      7007
      6989      6985      6986      7001      6989      6985      6993      6994
      6989      6985      6993      6995      6989      6985      6993      6996
      6989      6985      6997      6998      6989      6985      6997      6999
      6989      6985      6997      7000      6990      6989      6985      6993
      6990      6989      6985      6997      6991      6989      6985      6993
      6991      6989      6985      6997      6992      6989      6985      6993
      6992      6989      6985      6997      6993      6985      6986      7001
      6993      6985      6997      6998      6993      6985      6997      6999
      6993      6985      6997      7000      6994      6993      6985      6997
      6995      6993      6985      6997      6996      6993      6985      6997
      6997      6985      6986      7001      7001      7007      7004      7005
      7001      7007      7004      7006      7001      7007      7004      7008
      7002      7001      7007      7004      7003      7001      7007      7004
      7004      7008      7009      7010      7004      7008      7009      7011
      7004      7008      7009      7012      7005      7004      7008      7009
      7006      7004      7008      7009      7007      7004      7008      7009
      7008      7009      7012      7013      7008      7009      7012      7014
      7008      7009      7012      7020      7009      7012      7014      7015
      7009      7012      7020      7021      7009      7012      7020      7022
      7009      7012      7020      7023      7010      7009      7012      7013
      7010      7009      7012      7014      7010      7009      7012      7020
      7011      7009      7012      7013      7011      7009      7012      7014
      7011      7009      7012      7020      7012      7014      7015      7016
      7012      7014      7015      7017      7012      7020      7023      7024
      7013      7012      7014      7015      7013      7012      7020      7021
      7013      7012      7020      7022      7013      7012      7020      7023
      7014      7012      7020      7021      7014      7012      7020      7022
      7014      7012      7020      7023      7014      7015      7017      7018
      7014      7015      7017      7019      7014      7015      7017      7029
      7015      7014      7012      7020      7015      7017      7029      7030
      7015      7017      7029      7031      7015      7017      7029      7032
      7016      7015      7017      7018      7016      7015      7017      7019
      7016      7015      7017      7029      7017      7029      7032      7033
      7017      7029      7032      7034      7017      7029      7032      7035
      7018      7017      7029      7030      7018      7017      7029      7031
      7018      7017      7029      7032      7019      7017      7029      7030
      7019      7017      7029      7031      7019      7017      7029      7032
      7020      7023      7024      7025      7020      7023      7024      7026
      7021      7020      7023      7024      7022      7020      7023      7024
      7023      7024      7026      7027      7023      7024      7026      7028
      7023      7024      7026      7076      7024      7026      7076      7077
      7024      7026      7076      7078      7024      7026      7076      7079
      7025      7024      7026      7027      7025      7024      7026      7028
      7025      7024      7026      7076      7026      7076      7079      7080
      7026      7076      7079      7081      7026      7076      7079      7082
      7027      7026      7076      7077      7027      7026      7076      7078
      7027      7026      7076      7079      7028      7026      7076      7077
      7028      7026      7076      7078      7028      7026      7076      7079
      7029      7032      7035      7036      7029      7032      7035      7037
      7029      7032      7035      7038      7030      7029      7032      7033
      7030      7029      7032      7034      7030      7029      7032      7035
      7031      7029      7032      7033      7031      7029      7032      7034
      7031      7029      7032      7035      7032      7035      7038      7039
      7032      7035      7038      7040      7032      7035      7038      7041
      7033      7032      7035      7036      7033      7032      7035      7037
      7033      7032      7035      7038      7034      7032      7035      7036
      7034      7032      7035      7037      7034      7032      7035      7038
      7035      7038      7041      7042      7035      7038      7041      7043
      7035      7038      7041      7044      7036      7035      7038      7039
      7036      7035      7038      7040      7036      7035      7038      7041
      7037      7035      7038      7039      7037      7035      7038      7040
      7037      7035      7038      7041      7038      7041      7044      7045
      7038      7041      7044      7046      7038      7041      7044      7047
      7039      7038      7041      7042      7039      7038      7041      7043
      7039      7038      7041      7044      7040      7038      7041      7042
      7040      7038      7041      7043      7040      7038      7041      7044
      7041      7044      7047      7048      7041      7044      7047      7049
      7042      7041      7044      7045      7042      7041      7044      7046
      7042      7041      7044      7047      7043      7041      7044      7045
      7043      7041      7044      7046      7043      7041      7044      7047
      7044      7047      7049      7050      7044      7047      7049      7051
      7045      7044      7047      7048      7045      7044      7047      7049
      7046      7044      7047      7048      7046      7044      7047      7049
      7047      7049      7051      7052      7047      7049      7051      7053
      7047      7049      7051      7054      7048      7047      7049      7050
      7048      7047      7049      7051      7049      7051      7054      7055
      7049      7051      7054      7056      7049      7051      7054      7057
      7050      7049      7051      7052      7050      7049      7051      7053
      7050      7049      7051      7054      7051      7054      7057      7058
      7051      7054      7057      7059      7051      7054      7057      7060
      7052      7051      7054      7055      7052      7051      7054      7056
      7052      7051      7054      7057      7053      7051      7054      7055
      7053      7051      7054      7056      7053      7051      7054      7057
      7054      7057      7060      7061      7054      7057      7060      7062
      7054      7057      7060      7063      7055      7054      7057      7058
      7055      7054      7057      7059      7055      7054      7057      7060
      7056      7054      7057      7058      7056      7054      7057      7059
      7056      7054      7057      7060      7057      7060      7063      7064
      7057      7060      7063      7065      7057      7060      7063      7066
      7058      7057      7060      7061      7058      7057      7060      7062
      7058      7057      7060      7063      7059      7057      7060      7061
      7059      7057      7060      7062      7059      7057      7060      7063
      7060      7063      7066      7067      7060      7063      7066      7068
      7060      7063      7066      7069      7061      7060      7063      7064
      7061      7060      7063      7065      7061      7060      7063      7066
      7062      7060      7063      7064      7062      7060      7063      7065
      7062      7060      7063      7066      7063      7066      7069      7070
      7063      7066      7069      7071      7063      7066      7069      7072
      7064      7063      7066      7067      7064      7063      7066      7068
      7064      7063      7066      7069      7065      7063      7066      7067
      7065      7063      7066      7068      7065      7063      7066      7069
      7066      7069      7072      7073      7066      7069      7072      7074
      7066      7069      7072      7075      7067      7066      7069      7070
      7067      7066      7069      7071      7067      7066      7069      7072
      7068      7066      7069      7070      7068      7066      7069      7071
      7068      7066      7069      7072      7070      7069      7072      7073
      7070      7069      7072      7074      7070      7069      7072      7075
      7071      7069      7072      7073      7071      7069      7072      7074
      7071      7069      7072      7075      7076      7079      7082      7083
      7076      7079      7082      7084      7076      7079      7082      7085
      7077      7076      7079      7080      7077      7076      7079      7081
      7077      7076      7079      7082      7078      7076      7079      7080
      7078      7076      7079      7081      7078      7076      7079      7082
      7079      7082      7085      7086      7079      7082      7085      7087
      7079      7082      7085      7088      7080      7079      7082      7083
      7080      7079      7082      7084      7080      7079      7082      7085
      7081      7079      7082      7083      7081      7079      7082      7084
      7081      7079      7082      7085      7082      7085      7088      7089
      7082      7085      7088      7090      7082      7085      7088      7091
      7083      7082      7085      7086      7083      7082      7085      7087
      7083      7082      7085      7088      7084      7082      7085      7086
      7084      7082      7085      7087      7084      7082      7085      7088
      7085      7088      7091      7092      7085      7088      7091      7093
      7085      7088      7091      7094      7086      7085      7088      7089
      7086      7085      7088      7090      7086      7085      7088      7091
      7087      7085      7088      7089      7087      7085      7088      7090
      7087      7085      7088      7091      7088      7091      7094      7095
      7088      7091      7094      7096      7088      7091      7094      7097
      7089      7088      7091      7092      7089      7088      7091      7093
      7089      7088      7091      7094      7090      7088      7091      7092
      7090      7088      7091      7093      7090      7088      7091      7094
      7091      7094      7097      7098      7091      7094      7097      7099
      7091      7094      7097      7100      7092      7091      7094      7095
      7092      7091      7094      7096      7092      7091      7094      7097
      7093      7091      7094      7095      7093      7091      7094      7096
      7093      7091      7094      7097      7094      7097      7100      7101
      7094      7097      7100      7102      7094      7097      7100      7103
      7095      7094      7097      7098      7095      7094      7097      7099
      7095      7094      7097      7100      7096      7094      7097      7098
      7096      7094      7097      7099      7096      7094      7097      7100
      7097      7100      7103      7104      7097      7100      7103      7105
      7097      7100      7103      7106      7098      7097      7100      7101
      7098      7097      7100      7102      7098      7097      7100      7103
      7099      7097      7100      7101      7099      7097      7100      7102
      7099      7097      7100      7103      7100      7103      7106      7107
      7100      7103      7106      7108      7100      7103      7106      7109
      7101      7100      7103      7104      7101      7100      7103      7105
      7101      7100      7103      7106      7102      7100      7103      7104
      7102      7100      7103      7105      7102      7100      7103      7106
      7103      7106      7109      7110      7103      7106      7109      7111
      7103      7106      7109      7112      7104      7103      7106      7107
      7104      7103      7106      7108      7104      7103      7106      7109
      7105      7103      7106      7107      7105      7103      7106      7108
      7105      7103      7106      7109      7106      7109      7112      7113
      7106      7109      7112      7114      7106      7109      7112      7115
      7107      7106      7109      7110      7107      7106      7109      7111
      7107      7106      7109      7112      7108      7106      7109      7110
      7108      7106      7109      7111      7108      7106      7109      7112
      7109      7112      7115      7116      7109      7112      7115      7117
      7109      7112      7115      7118      7110      7109      7112      7113
      7110      7109      7112      7114      7110      7109      7112      7115
      7111      7109      7112      7113      7111      7109      7112      7114
      7111      7109      7112      7115      7113      7112      7115      7116
      7113      7112      7115      7117      7113      7112      7115      7118
      7114      7112      7115      7116      7114      7112      7115      7117
      7114      7112      7115      7118      7119      7120      7135      7136
      7119      7120      7135      7137      7119      7120      7135      7141
      7120      7119      7123      7124      7120      7119      7123      7125
      7120      7119      7123      7126      7120      7119      7127      7128
      7120      7119      7127      7129      7120      7119      7127      7130
      7120      7119      7131      7132      7120      7119      7131      7133
      7120      7119      7131      7134      7120      7135      7141      7138
      7121      7120      7119      7123      7121      7120      7119      7127
      7121      7120      7119      7131      7121      7120      7135      7136
      7121      7120      7135      7137      7121      7120      7135      7141
      7122      7120      7119      7123      7122      7120      7119      7127
      7122      7120      7119      7131      7122      7120      7135      7136
      7122      7120      7135      7137      7122      7120      7135      7141
      7123      7119      7120      7135      7123      7119      7127      7128
      7123      7119      7127      7129      7123      7119      7127      7130
      7123      7119      7131      7132      7123      7119      7131      7133
      7123      7119      7131      7134      7124      7123      7119      7127
      7124      7123      7119      7131      7125      7123      7119      7127
      7125      7123      7119      7131      7126      7123      7119      7127
      7126      7123      7119      7131      7127      7119      7120      7135
      7127      7119      7131      7132      7127      7119      7131      7133
      7127      7119      7131      7134      7128      7127      7119      7131
      7129      7127      7119      7131      7130      7127      7119      7131
      7131      7119      7120      7135      7135      7141      7138      7139
      7135      7141      7138      7140      7135      7141      7138      7142
      7136      7135      7141      7138      7137      7135      7141      7138
      7138      7142      7143      7144      7138      7142      7143      7145
      7138      7142      7143      7146      7139      7138      7142      7143
      7140      7138      7142      7143      7141      7138      7142      7143
      7142      7143      7146      7147      7142      7143      7146      7148
      7142      7143      7146      7154      7143      7146      7148      7149
      7143      7146      7154      7155      7143      7146      7154      7156
      7143      7146      7154      7157      7144      7143      7146      7147
      7144      7143      7146      7148      7144      7143      7146      7154
      7145      7143      7146      7147      7145      7143      7146      7148
      7145      7143      7146      7154      7146      7148      7149      7150
      7146      7148      7149      7151      7146      7154      7157      7158
      7147      7146      7148      7149      7147      7146      7154      7155
      7147      7146      7154      7156      7147      7146      7154      7157
      7148      7146      7154      7155      7148      7146      7154      7156
      7148      7146      7154      7157      7148      7149      7151      7152
      7148      7149      7151      7153      7148      7149      7151      7163
      7149      7148      7146      7154      7149      7151      7163      7164
      7149      7151      7163      7165      7149      7151      7163      7166
      7150      7149      7151      7152      7150      7149      7151      7153
      7150      7149      7151      7163      7151      7163      7166      7167
      7151      7163      7166      7168      7151      7163      7166      7169
      7152      7151      7163      7164      7152      7151      7163      7165
      7152      7151      7163      7166      7153      7151      7163      7164
      7153      7151      7163      7165      7153      7151      7163      7166
      7154      7157      7158      7159      7154      7157      7158      7160
      7155      7154      7157      7158      7156      7154      7157      7158
      7157      7158      7160      7161      7157      7158      7160      7162
      7157      7158      7160      7210      7158      7160      7210      7211
      7158      7160      7210      7212      7158      7160      7210      7213
      7159      7158      7160      7161      7159      7158      7160      7162
      7159      7158      7160      7210      7160      7210      7213      7214
      7160      7210      7213      7215      7160      7210      7213      7216
      7161      7160      7210      7211      7161      7160      7210      7212
      7161      7160      7210      7213      7162      7160      7210      7211
      7162      7160      7210      7212      7162      7160      7210      7213
      7163      7166      7169      7170      7163      7166      7169      7171
      7163      7166      7169      7172      7164      7163      7166      7167
      7164      7163      7166      7168      7164      7163      7166      7169
      7165      7163      7166      7167      7165      7163      7166      7168
      7165      7163      7166      7169      7166      7169      7172      7173
      7166      7169      7172      7174      7166      7169      7172      7175
      7167      7166      7169      7170      7167      7166      7169      7171
      7167      7166      7169      7172      7168      7166      7169      7170
      7168      7166      7169      7171      7168      7166      7169      7172
      7169      7172      7175      7176      7169      7172      7175      7177
      7169      7172      7175      7178      7170      7169      7172      7173
      7170      7169      7172      7174      7170      7169      7172      7175
      7171      7169      7172      7173      7171      7169      7172      7174
      7171      7169      7172      7175      7172      7175      7178      7179
      7172      7175      7178      7180      7172      7175      7178      7181
      7173      7172      7175      7176      7173      7172      7175      7177
      7173      7172      7175      7178      7174      7172      7175      7176
      7174      7172      7175      7177      7174      7172      7175      7178
      7175      7178      7181      7182      7175      7178      7181      7183
      7176      7175      7178      7179      7176      7175      7178      7180
      7176      7175      7178      7181      7177      7175      7178      7179
      7177      7175      7178      7180      7177      7175      7178      7181
      7178      7181      7183      7184      7178      7181      7183      7185
      7179      7178      7181      7182      7179      7178      7181      7183
      7180      7178      7181      7182      7180      7178      7181      7183
      7181      7183      7185      7186      7181      7183      7185      7187
      7181      7183      7185      7188      7182      7181      7183      7184
      7182      7181      7183      7185      7183      7185      7188      7189
      7183      7185      7188      7190      7183      7185      7188      7191
      7184      7183      7185      7186      7184      7183      7185      7187
      7184      7183      7185      7188      7185      7188      7191      7192
      7185      7188      7191      7193      7185      7188      7191      7194
      7186      7185      7188      7189      7186      7185      7188      7190
      7186      7185      7188      7191      7187      7185      7188      7189
      7187      7185      7188      7190      7187      7185      7188      7191
      7188      7191      7194      7195      7188      7191      7194      7196
      7188      7191      7194      7197      7189      7188      7191      7192
      7189      7188      7191      7193      7189      7188      7191      7194
      7190      7188      7191      7192      7190      7188      7191      7193
      7190      7188      7191      7194      7191      7194      7197      7198
      7191      7194      7197      7199      7191      7194      7197      7200
      7192      7191      7194      7195      7192      7191      7194      7196
      7192      7191      7194      7197      7193      7191      7194      7195
      7193      7191      7194      7196      7193      7191      7194      7197
      7194      7197      7200      7201      7194      7197      7200      7202
      7194      7197      7200      7203      7195      7194      7197      7198
      7195      7194      7197      7199      7195      7194      7197      7200
      7196      7194      7197      7198      7196      7194      7197      7199
      7196      7194      7197      7200      7197      7200      7203      7204
      7197      7200      7203      7205      7197      7200      7203      7206
      7198      7197      7200      7201      7198      7197      7200      7202
      7198      7197      7200      7203      7199      7197      7200      7201
      7199      7197      7200      7202      7199      7197      7200      7203
      7200      7203      7206      7207      7200      7203      7206      7208
      7200      7203      7206      7209      7201      7200      7203      7204
      7201      7200      7203      7205      7201      7200      7203      7206
      7202      7200      7203      7204      7202      7200      7203      7205
      7202      7200      7203      7206      7204      7203      7206      7207
      7204      7203      7206      7208      7204      7203      7206      7209
      7205      7203      7206      7207      7205      7203      7206      7208
      7205      7203      7206      7209      7210      7213      7216      7217
      7210      7213      7216      7218      7210      7213      7216      7219
      7211      7210      7213      7214      7211      7210      7213      7215
      7211      7210      7213      7216      7212      7210      7213      7214
      7212      7210      7213      7215      7212      7210      7213      7216
      7213      7216      7219      7220      7213      7216      7219      7221
      7213      7216      7219      7222      7214      7213      7216      7217
      7214      7213      7216      7218      7214      7213      7216      7219
      7215      7213      7216      7217      7215      7213      7216      7218
      7215      7213      7216      7219      7216      7219      7222      7223
      7216      7219      7222      7224      7216      7219      7222      7225
      7217      7216      7219      7220      7217      7216      7219      7221
      7217      7216      7219      7222      7218      7216      7219      7220
      7218      7216      7219      7221      7218      7216      7219      7222
      7219      7222      7225      7226      7219      7222      7225      7227
      7219      7222      7225      7228      7220      7219      7222      7223
      7220      7219      7222      7224      7220      7219      7222      7225
      7221      7219      7222      7223      7221      7219      7222      7224
      7221      7219      7222      7225      7222      7225      7228      7229
      7222      7225      7228      7230      7222      7225      7228      7231
      7223      7222      7225      7226      7223      7222      7225      7227
      7223      7222      7225      7228      7224      7222      7225      7226
      7224      7222      7225      7227      7224      7222      7225      7228
      7225      7228      7231      7232      7225      7228      7231      7233
      7225      7228      7231      7234      7226      7225      7228      7229
      7226      7225      7228      7230      7226      7225      7228      7231
      7227      7225      7228      7229      7227      7225      7228      7230
      7227      7225      7228      7231      7228      7231      7234      7235
      7228      7231      7234      7236      7228      7231      7234      7237
      7229      7228      7231      7232      7229      7228      7231      7233
      7229      7228      7231      7234      7230      7228      7231      7232
      7230      7228      7231      7233      7230      7228      7231      7234
      7231      7234      7237      7238      7231      7234      7237      7239
      7231      7234      7237      7240      7232      7231      7234      7235
      7232      7231      7234      7236      7232      7231      7234      7237
      7233      7231      7234      7235      7233      7231      7234      7236
      7233      7231      7234      7237      7234      7237      7240      7241
      7234      7237      7240      7242      7234      7237      7240      7243
      7235      7234      7237      7238      7235      7234      7237      7239
      7235      7234      7237      7240      7236      7234      7237      7238
      7236      7234      7237      7239      7236      7234      7237      7240
      7237      7240      7243      7244      7237      7240      7243      7245
      7237      7240      7243      7246      7238      7237      7240      7241
      7238      7237      7240      7242      7238      7237      7240      7243
      7239      7237      7240      7241      7239      7237      7240      7242
      7239      7237      7240      7243      7240      7243      7246      7247
      7240      7243      7246      7248      7240      7243      7246      7249
      7241      7240      7243      7244      7241      7240      7243      7245
      7241      7240      7243      7246      7242      7240      7243      7244
      7242      7240      7243      7245      7242      7240      7243      7246
      7243      7246      7249      7250      7243      7246      7249      7251
      7243      7246      7249      7252      7244      7243      7246      7247
      7244      7243      7246      7248      7244      7243      7246      7249
      7245      7243      7246      7247      7245      7243      7246      7248
      7245      7243      7246      7249      7247      7246      7249      7250
      7247      7246      7249      7251      7247      7246      7249      7252
      7248      7246      7249      7250      7248      7246      7249      7251
      7248      7246      7249      7252      7253      7254      7269      7270
      7253      7254      7269      7271      7253      7254      7269      7275
      7254      7253      7257      7258      7254      7253      7257      7259
      7254      7253      7257      7260      7254      7253      7261      7262
      7254      7253      7261      7263      7254      7253      7261      7264
      7254      7253      7265      7266      7254      7253      7265      7267
      7254      7253      7265      7268      7254      7269      7275      7272
      7255      7254      7253      7257      7255      7254      7253      7261
      7255      7254      7253      7265      7255      7254      7269      7270
      7255      7254      7269      7271      7255      7254      7269      7275
      7256      7254      7253      7257      7256      7254      7253      7261
      7256      7254      7253      7265      7256      7254      7269      7270
      7256      7254      7269      7271      7256      7254      7269      7275
      7257      7253      7254      7269      7257      7253      7261      7262
      7257      7253      7261      7263      7257      7253      7261      7264
      7257      7253      7265      7266      7257      7253      7265      7267
      7257      7253      7265      7268      7258      7257      7253      7261
      7258      7257      7253      7265      7259      7257      7253      7261
      7259      7257      7253      7265      7260      7257      7253      7261
      7260      7257      7253      7265      7261      7253      7254      7269
      7261      7253      7265      7266      7261      7253      7265      7267
      7261      7253      7265      7268      7262      7261      7253      7265
      7263      7261      7253      7265      7264      7261      7253      7265
      7265      7253      7254      7269      7269      7275      7272      7273
      7269      7275      7272      7274      7269      7275      7272      7276
      7270      7269      7275      7272      7271      7269      7275      7272
      7272      7276      7277      7278      7272      7276      7277      7279
      7272      7276      7277      7280      7273      7272      7276      7277
      7274      7272      7276      7277      7275      7272      7276      7277
      7276      7277      7280      7281      7276      7277      7280      7282
      7276      7277      7280      7288      7277      7280      7282      7283
      7277      7280      7288      7289      7277      7280      7288      7290
      7277      7280      7288      7291      7278      7277      7280      7281
      7278      7277      7280      7282      7278      7277      7280      7288
      7279      7277      7280      7281      7279      7277      7280      7282
      7279      7277      7280      7288      7280      7282      7283      7284
      7280      7282      7283      7285      7280      7288      7291      7292
      7281      7280      7282      7283      7281      7280      7288      7289
      7281      7280      7288      7290      7281      7280      7288      7291
      7282      7280      7288      7289      7282      7280      7288      7290
      7282      7280      7288      7291      7282      7283      7285      7286
      7282      7283      7285      7287      7282      7283      7285      7297
      7283      7282      7280      7288      7283      7285      7297      7298
      7283      7285      7297      7299      7283      7285      7297      7300
      7284      7283      7285      7286      7284      7283      7285      7287
      7284      7283      7285      7297      7285      7297      7300      7301
      7285      7297      7300      7302      7285      7297      7300      7303
      7286      7285      7297      7298      7286      7285      7297      7299
      7286      7285      7297      7300      7287      7285      7297      7298
      7287      7285      7297      7299      7287      7285      7297      7300
      7288      7291      7292      7293      7288      7291      7292      7294
      7289      7288      7291      7292      7290      7288      7291      7292
      7291      7292      7294      7295      7291      7292      7294      7296
      7291      7292      7294      7344      7292      7294      7344      7345
      7292      7294      7344      7346      7292      7294      7344      7347
      7293      7292      7294      7295      7293      7292      7294      7296
      7293      7292      7294      7344      7294      7344      7347      7348
      7294      7344      7347      7349      7294      7344      7347      7350
      7295      7294      7344      7345      7295      7294      7344      7346
      7295      7294      7344      7347      7296      7294      7344      7345
      7296      7294      7344      7346      7296      7294      7344      7347
      7297      7300      7303      7304      7297      7300      7303      7305
      7297      7300      7303      7306      7298      7297      7300      7301
      7298      7297      7300      7302      7298      7297      7300      7303
      7299      7297      7300      7301      7299      7297      7300      7302
      7299      7297      7300      7303      7300      7303      7306      7307
      7300      7303      7306      7308      7300      7303      7306      7309
      7301      7300      7303      7304      7301      7300      7303      7305
      7301      7300      7303      7306      7302      7300      7303      7304
      7302      7300      7303      7305      7302      7300      7303      7306
      7303      7306      7309      7310      7303      7306      7309      7311
      7303      7306      7309      7312      7304      7303      7306      7307
      7304      7303      7306      7308      7304      7303      7306      7309
      7305      7303      7306      7307      7305      7303      7306      7308
      7305      7303      7306      7309      7306      7309      7312      7313
      7306      7309      7312      7314      7306      7309      7312      7315
      7307      7306      7309      7310      7307      7306      7309      7311
      7307      7306      7309      7312      7308      7306      7309      7310
      7308      7306      7309      7311      7308      7306      7309      7312
      7309      7312      7315      7316      7309      7312      7315      7317
      7310      7309      7312      7313      7310      7309      7312      7314
      7310      7309      7312      7315      7311      7309      7312      7313
      7311      7309      7312      7314      7311      7309      7312      7315
      7312      7315      7317      7318      7312      7315      7317      7319
      7313      7312      7315      7316      7313      7312      7315      7317
      7314      7312      7315      7316      7314      7312      7315      7317
      7315      7317      7319      7320      7315      7317      7319      7321
      7315      7317      7319      7322      7316      7315      7317      7318
      7316      7315      7317      7319      7317      7319      7322      7323
      7317      7319      7322      7324      7317      7319      7322      7325
      7318      7317      7319      7320      7318      7317      7319      7321
      7318      7317      7319      7322      7319      7322      7325      7326
      7319      7322      7325      7327      7319      7322      7325      7328
      7320      7319      7322      7323      7320      7319      7322      7324
      7320      7319      7322      7325      7321      7319      7322      7323
      7321      7319      7322      7324      7321      7319      7322      7325
      7322      7325      7328      7329      7322      7325      7328      7330
      7322      7325      7328      7331      7323      7322      7325      7326
      7323      7322      7325      7327      7323      7322      7325      7328
      7324      7322      7325      7326      7324      7322      7325      7327
      7324      7322      7325      7328      7325      7328      7331      7332
      7325      7328      7331      7333      7325      7328      7331      7334
      7326      7325      7328      7329      7326      7325      7328      7330
      7326      7325      7328      7331      7327      7325      7328      7329
      7327      7325      7328      7330      7327      7325      7328      7331
      7328      7331      7334      7335      7328      7331      7334      7336
      7328      7331      7334      7337      7329      7328      7331      7332
      7329      7328      7331      7333      7329      7328      7331      7334
      7330      7328      7331      7332      7330      7328      7331      7333
      7330      7328      7331      7334      7331      7334      7337      7338
      7331      7334      7337      7339      7331      7334      7337      7340
      7332      7331      7334      7335      7332      7331      7334      7336
      7332      7331      7334      7337      7333      7331      7334      7335
      7333      7331      7334      7336      7333      7331      7334      7337
      7334      7337      7340      7341      7334      7337      7340      7342
      7334      7337      7340      7343      7335      7334      7337      7338
      7335      7334      7337      7339      7335      7334      7337      7340
      7336      7334      7337      7338      7336      7334      7337      7339
      7336      7334      7337      7340      7338      7337      7340      7341
      7338      7337      7340      7342      7338      7337      7340      7343
      7339      7337      7340      7341      7339      7337      7340      7342
      7339      7337      7340      7343      7344      7347      7350      7351
      7344      7347      7350      7352      7344      7347      7350      7353
      7345      7344      7347      7348      7345      7344      7347      7349
      7345      7344      7347      7350      7346      7344      7347      7348
      7346      7344      7347      7349      7346      7344      7347      7350
      7347      7350      7353      7354      7347      7350      7353      7355
      7347      7350      7353      7356      7348      7347      7350      7351
      7348      7347      7350      7352      7348      7347      7350      7353
      7349      7347      7350      7351      7349      7347      7350      7352
      7349      7347      7350      7353      7350      7353      7356      7357
      7350      7353      7356      7358      7350      7353      7356      7359
      7351      7350      7353      7354      7351      7350      7353      7355
      7351      7350      7353      7356      7352      7350      7353      7354
      7352      7350      7353      7355      7352      7350      7353      7356
      7353      7356      7359      7360      7353      7356      7359      7361
      7353      7356      7359      7362      7354      7353      7356      7357
      7354      7353      7356      7358      7354      7353      7356      7359
      7355      7353      7356      7357      7355      7353      7356      7358
      7355      7353      7356      7359      7356      7359      7362      7363
      7356      7359      7362      7364      7356      7359      7362      7365
      7357      7356      7359      7360      7357      7356      7359      7361
      7357      7356      7359      7362      7358      7356      7359      7360
      7358      7356      7359      7361      7358      7356      7359      7362
      7359      7362      7365      7366      7359      7362      7365      7367
      7359      7362      7365      7368      7360      7359      7362      7363
      7360      7359      7362      7364      7360      7359      7362      7365
      7361      7359      7362      7363      7361      7359      7362      7364
      7361      7359      7362      7365      7362      7365      7368      7369
      7362      7365      7368      7370      7362      7365      7368      7371
      7363      7362      7365      7366      7363      7362      7365      7367
      7363      7362      7365      7368      7364      7362      7365      7366
      7364      7362      7365      7367      7364      7362      7365      7368
      7365      7368      7371      7372      7365      7368      7371      7373
      7365      7368      7371      7374      7366      7365      7368      7369
      7366      7365      7368      7370      7366      7365      7368      7371
      7367      7365      7368      7369      7367      7365      7368      7370
      7367      7365      7368      7371      7368      7371      7374      7375
      7368      7371      7374      7376      7368      7371      7374      7377
      7369      7368      7371      7372      7369      7368      7371      7373
      7369      7368      7371      7374      7370      7368      7371      7372
      7370      7368      7371      7373      7370      7368      7371      7374
      7371      7374      7377      7378      7371      7374      7377      7379
      7371      7374      7377      7380      7372      7371      7374      7375
      7372      7371      7374      7376      7372      7371      7374      7377
      7373      7371      7374      7375      7373      7371      7374      7376
      7373      7371      7374      7377      7374      7377      7380      7381
      7374      7377      7380      7382      7374      7377      7380      7383
      7375      7374      7377      7378      7375      7374      7377      7379
      7375      7374      7377      7380      7376      7374      7377      7378
      7376      7374      7377      7379      7376      7374      7377      7380
      7377      7380      7383      7384      7377      7380      7383      7385
      7377      7380      7383      7386      7378      7377      7380      7381
      7378      7377      7380      7382      7378      7377      7380      7383
      7379      7377      7380      7381      7379      7377      7380      7382
      7379      7377      7380      7383      7381      7380      7383      7384
      7381      7380      7383      7385      7381      7380      7383      7386
      7382      7380      7383      7384      7382      7380      7383      7385
      7382      7380      7383      7386      7387      7388      7403      7404
      7387      7388      7403      7405      7387      7388      7403      7409
      7388      7387      7391      7392      7388      7387      7391      7393
      7388      7387      7391      7394      7388      7387      7395      7396
      7388      7387      7395      7397      7388      7387      7395      7398
      7388      7387      7399      7400      7388      7387      7399      7401
      7388      7387      7399      7402      7388      7403      7409      7406
      7389      7388      7387      7391      7389      7388      7387      7395
      7389      7388      7387      7399      7389      7388      7403      7404
      7389      7388      7403      7405      7389      7388      7403      7409
      7390      7388      7387      7391      7390      7388      7387      7395
      7390      7388      7387      7399      7390      7388      7403      7404
      7390      7388      7403      7405      7390      7388      7403      7409
      7391      7387      7388      7403      7391      7387      7395      7396
      7391      7387      7395      7397      7391      7387      7395      7398
      7391      7387      7399      7400      7391      7387      7399      7401
      7391      7387      7399      7402      7392      7391      7387      7395
      7392      7391      7387      7399      7393      7391      7387      7395
      7393      7391      7387      7399      7394      7391      7387      7395
      7394      7391      7387      7399      7395      7387      7388      7403
      7395      7387      7399      7400      7395      7387      7399      7401
      7395      7387      7399      7402      7396      7395      7387      7399
      7397      7395      7387      7399      7398      7395      7387      7399
      7399      7387      7388      7403      7403      7409      7406      7407
      7403      7409      7406      7408      7403      7409      7406      7410
      7404      7403      7409      7406      7405      7403      7409      7406
      7406      7410      7411      7412      7406      7410      7411      7413
      7406      7410      7411      7414      7407      7406      7410      7411
      7408      7406      7410      7411      7409      7406      7410      7411
      7410      7411      7414      7415      7410      7411      7414      7416
      7410      7411      7414      7422      7411      7414      7416      7417
      7411      7414      7422      7423      7411      7414      7422      7424
      7411      7414      7422      7425      7412      7411      7414      7415
      7412      7411      7414      7416      7412      7411      7414      7422
      7413      7411      7414      7415      7413      7411      7414      7416
      7413      7411      7414      7422      7414      7416      7417      7418
      7414      7416      7417      7419      7414      7422      7425      7426
      7415      7414      7416      7417      7415      7414      7422      7423
      7415      7414      7422      7424      7415      7414      7422      7425
      7416      7414      7422      7423      7416      7414      7422      7424
      7416      7414      7422      7425      7416      7417      7419      7420
      7416      7417      7419      7421      7416      7417      7419      7431
      7417      7416      7414      7422      7417      7419      7431      7432
      7417      7419      7431      7433      7417      7419      7431      7434
      7418      7417      7419      7420      7418      7417      7419      7421
      7418      7417      7419      7431      7419      7431      7434      7435
      7419      7431      7434      7436      7419      7431      7434      7437
      7420      7419      7431      7432      7420      7419      7431      7433
      7420      7419      7431      7434      7421      7419      7431      7432
      7421      7419      7431      7433      7421      7419      7431      7434
      7422      7425      7426      7427      7422      7425      7426      7428
      7423      7422      7425      7426      7424      7422      7425      7426
      7425      7426      7428      7429      7425      7426      7428      7430
      7425      7426      7428      7478      7426      7428      7478      7479
      7426      7428      7478      7480      7426      7428      7478      7481
      7427      7426      7428      7429      7427      7426      7428      7430
      7427      7426      7428      7478      7428      7478      7481      7482
      7428      7478      7481      7483      7428      7478      7481      7484
      7429      7428      7478      7479      7429      7428      7478      7480
      7429      7428      7478      7481      7430      7428      7478      7479
      7430      7428      7478      7480      7430      7428      7478      7481
      7431      7434      7437      7438      7431      7434      7437      7439
      7431      7434      7437      7440      7432      7431      7434      7435
      7432      7431      7434      7436      7432      7431      7434      7437
      7433      7431      7434      7435      7433      7431      7434      7436
      7433      7431      7434      7437      7434      7437      7440      7441
      7434      7437      7440      7442      7434      7437      7440      7443
      7435      7434      7437      7438      7435      7434      7437      7439
      7435      7434      7437      7440      7436      7434      7437      7438
      7436      7434      7437      7439      7436      7434      7437      7440
      7437      7440      7443      7444      7437      7440      7443      7445
      7437      7440      7443      7446      7438      7437      7440      7441
      7438      7437      7440      7442      7438      7437      7440      7443
      7439      7437      7440      7441      7439      7437      7440      7442
      7439      7437      7440      7443      7440      7443      7446      7447
      7440      7443      7446      7448      7440      7443      7446      7449
      7441      7440      7443      7444      7441      7440      7443      7445
      7441      7440      7443      7446      7442      7440      7443      7444
      7442      7440      7443      7445      7442      7440      7443      7446
      7443      7446      7449      7450      7443      7446      7449      7451
      7444      7443      7446      7447      7444      7443      7446      7448
      7444      7443      7446      7449      7445      7443      7446      7447
      7445      7443      7446      7448      7445      7443      7446      7449
      7446      7449      7451      7452      7446      7449      7451      7453
      7447      7446      7449      7450      7447      7446      7449      7451
      7448      7446      7449      7450      7448      7446      7449      7451
      7449      7451      7453      7454      7449      7451      7453      7455
      7449      7451      7453      7456      7450      7449      7451      7452
      7450      7449      7451      7453      7451      7453      7456      7457
      7451      7453      7456      7458      7451      7453      7456      7459
      7452      7451      7453      7454      7452      7451      7453      7455
      7452      7451      7453      7456      7453      7456      7459      7460
      7453      7456      7459      7461      7453      7456      7459      7462
      7454      7453      7456      7457      7454      7453      7456      7458
      7454      7453      7456      7459      7455      7453      7456      7457
      7455      7453      7456      7458      7455      7453      7456      7459
      7456      7459      7462      7463      7456      7459      7462      7464
      7456      7459      7462      7465      7457      7456      7459      7460
      7457      7456      7459      7461      7457      7456      7459      7462
      7458      7456      7459      7460      7458      7456      7459      7461
      7458      7456      7459      7462      7459      7462      7465      7466
      7459      7462      7465      7467      7459      7462      7465      7468
      7460      7459      7462      7463      7460      7459      7462      7464
      7460      7459      7462      7465      7461      7459      7462      7463
      7461      7459      7462      7464      7461      7459      7462      7465
      7462      7465      7468      7469      7462      7465      7468      7470
      7462      7465      7468      7471      7463      7462      7465      7466
      7463      7462      7465      7467      7463      7462      7465      7468
      7464      7462      7465      7466      7464      7462      7465      7467
      7464      7462      7465      7468      7465      7468      7471      7472
      7465      7468      7471      7473      7465      7468      7471      7474
      7466      7465      7468      7469      7466      7465      7468      7470
      7466      7465      7468      7471      7467      7465      7468      7469
      7467      7465      7468      7470      7467      7465      7468      7471
      7468      7471      7474      7475      7468      7471      7474      7476
      7468      7471      7474      7477      7469      7468      7471      7472
      7469      7468      7471      7473      7469      7468      7471      7474
      7470      7468      7471      7472      7470      7468      7471      7473
      7470      7468      7471      7474      7472      7471      7474      7475
      7472      7471      7474      7476      7472      7471      7474      7477
      7473      7471      7474      7475      7473      7471      7474      7476
      7473      7471      7474      7477      7478      7481      7484      7485
      7478      7481      7484      7486      7478      7481      7484      7487
      7479      7478      7481      7482      7479      7478      7481      7483
      7479      7478      7481      7484      7480      7478      7481      7482
      7480      7478      7481      7483      7480      7478      7481      7484
      7481      7484      7487      7488      7481      7484      7487      7489
      7481      7484      7487      7490      7482      7481      7484      7485
      7482      7481      7484      7486      7482      7481      7484      7487
      7483      7481      7484      7485      7483      7481      7484      7486
      7483      7481      7484      7487      7484      7487      7490      7491
      7484      7487      7490      7492      7484      7487      7490      7493
      7485      7484      7487      7488      7485      7484      7487      7489
      7485      7484      7487      7490      7486      7484      7487      7488
      7486      7484      7487      7489      7486      7484      7487      7490
      7487      7490      7493      7494      7487      7490      7493      7495
      7487      7490      7493      7496      7488      7487      7490      7491
      7488      7487      7490      7492      7488      7487      7490      7493
      7489      7487      7490      7491      7489      7487      7490      7492
      7489      7487      7490      7493      7490      7493      7496      7497
      7490      7493      7496      7498      7490      7493      7496      7499
      7491      7490      7493      7494      7491      7490      7493      7495
      7491      7490      7493      7496      7492      7490      7493      7494
      7492      7490      7493      7495      7492      7490      7493      7496
      7493      7496      7499      7500      7493      7496      7499      7501
      7493      7496      7499      7502      7494      7493      7496      7497
      7494      7493      7496      7498      7494      7493      7496      7499
      7495      7493      7496      7497      7495      7493      7496      7498
      7495      7493      7496      7499      7496      7499      7502      7503
      7496      7499      7502      7504      7496      7499      7502      7505
      7497      7496      7499      7500      7497      7496      7499      7501
      7497      7496      7499      7502      7498      7496      7499      7500
      7498      7496      7499      7501      7498      7496      7499      7502
      7499      7502      7505      7506      7499      7502      7505      7507
      7499      7502      7505      7508      7500      7499      7502      7503
      7500      7499      7502      7504      7500      7499      7502      7505
      7501      7499      7502      7503      7501      7499      7502      7504
      7501      7499      7502      7505      7502      7505      7508      7509
      7502      7505      7508      7510      7502      7505      7508      7511
      7503      7502      7505      7506      7503      7502      7505      7507
      7503      7502      7505      7508      7504      7502      7505      7506
      7504      7502      7505      7507      7504      7502      7505      7508
      7505      7508      7511      7512      7505      7508      7511      7513
      7505      7508      7511      7514      7506      7505      7508      7509
      7506      7505      7508      7510      7506      7505      7508      7511
      7507      7505      7508      7509      7507      7505      7508      7510
      7507      7505      7508      7511      7508      7511      7514      7515
      7508      7511      7514      7516      7508      7511      7514      7517
      7509      7508      7511      7512      7509      7508      7511      7513
      7509      7508      7511      7514      7510      7508      7511      7512
      7510      7508      7511      7513      7510      7508      7511      7514
      7511      7514      7517      7518      7511      7514      7517      7519
      7511      7514      7517      7520      7512      7511      7514      7515
      7512      7511      7514      7516      7512      7511      7514      7517
      7513      7511      7514      7515      7513      7511      7514      7516
      7513      7511      7514      7517      7515      7514      7517      7518
      7515      7514      7517      7519      7515      7514      7517      7520
      7516      7514      7517      7518      7516      7514      7517      7519
      7516      7514      7517      7520      7521      7522      7537      7538
      7521      7522      7537      7539      7521      7522      7537      7543
      7522      7521      7525      7526      7522      7521      7525      7527
      7522      7521      7525      7528      7522      7521      7529      7530
      7522      7521      7529      7531      7522      7521      7529      7532
      7522      7521      7533      7534      7522      7521      7533      7535
      7522      7521      7533      7536      7522      7537      7543      7540
      7523      7522      7521      7525      7523      7522      7521      7529
      7523      7522      7521      7533      7523      7522      7537      7538
      7523      7522      7537      7539      7523      7522      7537      7543
      7524      7522      7521      7525      7524      7522      7521      7529
      7524      7522      7521      7533      7524      7522      7537      7538
      7524      7522      7537      7539      7524      7522      7537      7543
      7525      7521      7522      7537      7525      7521      7529      7530
      7525      7521      7529      7531      7525      7521      7529      7532
      7525      7521      7533      7534      7525      7521      7533      7535
      7525      7521      7533      7536      7526      7525      7521      7529
      7526      7525      7521      7533      7527      7525      7521      7529
      7527      7525      7521      7533      7528      7525      7521      7529
      7528      7525      7521      7533      7529      7521      7522      7537
      7529      7521      7533      7534      7529      7521      7533      7535
      7529      7521      7533      7536      7530      7529      7521      7533
      7531      7529      7521      7533      7532      7529      7521      7533
      7533      7521      7522      7537      7537      7543      7540      7541
      7537      7543      7540      7542      7537      7543      7540      7544
      7538      7537      7543      7540      7539      7537      7543      7540
      7540      7544      7545      7546      7540      7544      7545      7547
      7540      7544      7545      7548      7541      7540      7544      7545
      7542      7540      7544      7545      7543      7540      7544      7545
      7544      7545      7548      7549      7544      7545      7548      7550
      7544      7545      7548      7556      7545      7548      7550      7551
      7545      7548      7556      7557      7545      7548      7556      7558
      7545      7548      7556      7559      7546      7545      7548      7549
      7546      7545      7548      7550      7546      7545      7548      7556
      7547      7545      7548      7549      7547      7545      7548      7550
      7547      7545      7548      7556      7548      7550      7551      7552
      7548      7550      7551      7553      7548      7556      7559      7560
      7549      7548      7550      7551      7549      7548      7556      7557
      7549      7548      7556      7558      7549      7548      7556      7559
      7550      7548      7556      7557      7550      7548      7556      7558
      7550      7548      7556      7559      7550      7551      7553      7554
      7550      7551      7553      7555      7550      7551      7553      7565
      7551      7550      7548      7556      7551      7553      7565      7566
      7551      7553      7565      7567      7551      7553      7565      7568
      7552      7551      7553      7554      7552      7551      7553      7555
      7552      7551      7553      7565      7553      7565      7568      7569
      7553      7565      7568      7570      7553      7565      7568      7571
      7554      7553      7565      7566      7554      7553      7565      7567
      7554      7553      7565      7568      7555      7553      7565      7566
      7555      7553      7565      7567      7555      7553      7565      7568
      7556      7559      7560      7561      7556      7559      7560      7562
      7557      7556      7559      7560      7558      7556      7559      7560
      7559      7560      7562      7563      7559      7560      7562      7564
      7559      7560      7562      7612      7560      7562      7612      7613
      7560      7562      7612      7614      7560      7562      7612      7615
      7561      7560      7562      7563      7561      7560      7562      7564
      7561      7560      7562      7612      7562      7612      7615      7616
      7562      7612      7615      7617      7562      7612      7615      7618
      7563      7562      7612      7613      7563      7562      7612      7614
      7563      7562      7612      7615      7564      7562      7612      7613
      7564      7562      7612      7614      7564      7562      7612      7615
      7565      7568      7571      7572      7565      7568      7571      7573
      7565      7568      7571      7574      7566      7565      7568      7569
      7566      7565      7568      7570      7566      7565      7568      7571
      7567      7565      7568      7569      7567      7565      7568      7570
      7567      7565      7568      7571      7568      7571      7574      7575
      7568      7571      7574      7576      7568      7571      7574      7577
      7569      7568      7571      7572      7569      7568      7571      7573
      7569      7568      7571      7574      7570      7568      7571      7572
      7570      7568      7571      7573      7570      7568      7571      7574
      7571      7574      7577      7578      7571      7574      7577      7579
      7571      7574      7577      7580      7572      7571      7574      7575
      7572      7571      7574      7576      7572      7571      7574      7577
      7573      7571      7574      7575      7573      7571      7574      7576
      7573      7571      7574      7577      7574      7577      7580      7581
      7574      7577      7580      7582      7574      7577      7580      7583
      7575      7574      7577      7578      7575      7574      7577      7579
      7575      7574      7577      7580      7576      7574      7577      7578
      7576      7574      7577      7579      7576      7574      7577      7580
      7577      7580      7583      7584      7577      7580      7583      7585
      7578      7577      7580      7581      7578      7577      7580      7582
      7578      7577      7580      7583      7579      7577      7580      7581
      7579      7577      7580      7582      7579      7577      7580      7583
      7580      7583      7585      7586      7580      7583      7585      7587
      7581      7580      7583      7584      7581      7580      7583      7585
      7582      7580      7583      7584      7582      7580      7583      7585
      7583      7585      7587      7588      7583      7585      7587      7589
      7583      7585      7587      7590      7584      7583      7585      7586
      7584      7583      7585      7587      7585      7587      7590      7591
      7585      7587      7590      7592      7585      7587      7590      7593
      7586      7585      7587      7588      7586      7585      7587      7589
      7586      7585      7587      7590      7587      7590      7593      7594
      7587      7590      7593      7595      7587      7590      7593      7596
      7588      7587      7590      7591      7588      7587      7590      7592
      7588      7587      7590      7593      7589      7587      7590      7591
      7589      7587      7590      7592      7589      7587      7590      7593
      7590      7593      7596      7597      7590      7593      7596      7598
      7590      7593      7596      7599      7591      7590      7593      7594
      7591      7590      7593      7595      7591      7590      7593      7596
      7592      7590      7593      7594      7592      7590      7593      7595
      7592      7590      7593      7596      7593      7596      7599      7600
      7593      7596      7599      7601      7593      7596      7599      7602
      7594      7593      7596      7597      7594      7593      7596      7598
      7594      7593      7596      7599      7595      7593      7596      7597
      7595      7593      7596      7598      7595      7593      7596      7599
      7596      7599      7602      7603      7596      7599      7602      7604
      7596      7599      7602      7605      7597      7596      7599      7600
      7597      7596      7599      7601      7597      7596      7599      7602
      7598      7596      7599      7600      7598      7596      7599      7601
      7598      7596      7599      7602      7599      7602      7605      7606
      7599      7602      7605      7607      7599      7602      7605      7608
      7600      7599      7602      7603      7600      7599      7602      7604
      7600      7599      7602      7605      7601      7599      7602      7603
      7601      7599      7602      7604      7601      7599      7602      7605
      7602      7605      7608      7609      7602      7605      7608      7610
      7602      7605      7608      7611      7603      7602      7605      7606
      7603      7602      7605      7607      7603      7602      7605      7608
      7604      7602      7605      7606      7604      7602      7605      7607
      7604      7602      7605      7608      7606      7605      7608      7609
      7606      7605      7608      7610      7606      7605      7608      7611
      7607      7605      7608      7609      7607      7605      7608      7610
      7607      7605      7608      7611      7612      7615      7618      7619
      7612      7615      7618      7620      7612      7615      7618      7621
      7613      7612      7615      7616      7613      7612      7615      7617
      7613      7612      7615      7618      7614      7612      7615      7616
      7614      7612      7615      7617      7614      7612      7615      7618
      7615      7618      7621      7622      7615      7618      7621      7623
      7615      7618      7621      7624      7616      7615      7618      7619
      7616      7615      7618      7620      7616      7615      7618      7621
      7617      7615      7618      7619      7617      7615      7618      7620
      7617      7615      7618      7621      7618      7621      7624      7625
      7618      7621      7624      7626      7618      7621      7624      7627
      7619      7618      7621      7622      7619      7618      7621      7623
      7619      7618      7621      7624      7620      7618      7621      7622
      7620      7618      7621      7623      7620      7618      7621      7624
      7621      7624      7627      7628      7621      7624      7627      7629
      7621      7624      7627      7630      7622      7621      7624      7625
      7622      7621      7624      7626      7622      7621      7624      7627
      7623      7621      7624      7625      7623      7621      7624      7626
      7623      7621      7624      7627      7624      7627      7630      7631
      7624      7627      7630      7632      7624      7627      7630      7633
      7625      7624      7627      7628      7625      7624      7627      7629
      7625      7624      7627      7630      7626      7624      7627      7628
      7626      7624      7627      7629      7626      7624      7627      7630
      7627      7630      7633      7634      7627      7630      7633      7635
      7627      7630      7633      7636      7628      7627      7630      7631
      7628      7627      7630      7632      7628      7627      7630      7633
      7629      7627      7630      7631      7629      7627      7630      7632
      7629      7627      7630      7633      7630      7633      7636      7637
      7630      7633      7636      7638      7630      7633      7636      7639
      7631      7630      7633      7634      7631      7630      7633      7635
      7631      7630      7633      7636      7632      7630      7633      7634
      7632      7630      7633      7635      7632      7630      7633      7636
      7633      7636      7639      7640      7633      7636      7639      7641
      7633      7636      7639      7642      7634      7633      7636      7637
      7634      7633      7636      7638      7634      7633      7636      7639
      7635      7633      7636      7637      7635      7633      7636      7638
      7635      7633      7636      7639      7636      7639      7642      7643
      7636      7639      7642      7644      7636      7639      7642      7645
      7637      7636      7639      7640      7637      7636      7639      7641
      7637      7636      7639      7642      7638      7636      7639      7640
      7638      7636      7639      7641      7638      7636      7639      7642
      7639      7642      7645      7646      7639      7642      7645      7647
      7639      7642      7645      7648      7640      7639      7642      7643
      7640      7639      7642      7644      7640      7639      7642      7645
      7641      7639      7642      7643      7641      7639      7642      7644
      7641      7639      7642      7645      7642      7645      7648      7649
      7642      7645      7648      7650      7642      7645      7648      7651
      7643      7642      7645      7646      7643      7642      7645      7647
      7643      7642      7645      7648      7644      7642      7645      7646
      7644      7642      7645      7647      7644      7642      7645      7648
      7645      7648      7651      7652      7645      7648      7651      7653
      7645      7648      7651      7654      7646      7645      7648      7649
      7646      7645      7648      7650      7646      7645      7648      7651
      7647      7645      7648      7649      7647      7645      7648      7650
      7647      7645      7648      7651      7649      7648      7651      7652
      7649      7648      7651      7653      7649      7648      7651      7654
      7650      7648      7651      7652      7650      7648      7651      7653
      7650      7648      7651      7654      7655      7656      7671      7672
      7655      7656      7671      7673      7655      7656      7671      7677
      7656      7655      7659      7660      7656      7655      7659      7661
      7656      7655      7659      7662      7656      7655      7663      7664
      7656      7655      7663      7665      7656      7655      7663      7666
      7656      7655      7667      7668      7656      7655      7667      7669
      7656      7655      7667      7670      7656      7671      7677      7674
      7657      7656      7655      7659      7657      7656      7655      7663
      7657      7656      7655      7667      7657      7656      7671      7672
      7657      7656      7671      7673      7657      7656      7671      7677
      7658      7656      7655      7659      7658      7656      7655      7663
      7658      7656      7655      7667      7658      7656      7671      7672
      7658      7656      7671      7673      7658      7656      7671      7677
      7659      7655      7656      7671      7659      7655      7663      7664
      7659      7655      7663      7665      7659      7655      7663      7666
      7659      7655      7667      7668      7659      7655      7667      7669
      7659      7655      7667      7670      7660      7659      7655      7663
      7660      7659      7655      7667      7661      7659      7655      7663
      7661      7659      7655      7667      7662      7659      7655      7663
      7662      7659      7655      7667      7663      7655      7656      7671
      7663      7655      7667      7668      7663      7655      7667      7669
      7663      7655      7667      7670      7664      7663      7655      7667
      7665      7663      7655      7667      7666      7663      7655      7667
      7667      7655      7656      7671      7671      7677      7674      7675
      7671      7677      7674      7676      7671      7677      7674      7678
      7672      7671      7677      7674      7673      7671      7677      7674
      7674      7678      7679      7680      7674      7678      7679      7681
      7674      7678      7679      7682      7675      7674      7678      7679
      7676      7674      7678      7679      7677      7674      7678      7679
      7678      7679      7682      7683      7678      7679      7682      7684
      7678      7679      7682      7690      7679      7682      7684      7685
      7679      7682      7690      7691      7679      7682      7690      7692
      7679      7682      7690      7693      7680      7679      7682      7683
      7680      7679      7682      7684      7680      7679      7682      7690
      7681      7679      7682      7683      7681      7679      7682      7684
      7681      7679      7682      7690      7682      7684      7685      7686
      7682      7684      7685      7687      7682      7690      7693      7694
      7683      7682      7684      7685      7683      7682      7690      7691
      7683      7682      7690      7692      7683      7682      7690      7693
      7684      7682      7690      7691      7684      7682      7690      7692
      7684      7682      7690      7693      7684      7685      7687      7688
      7684      7685      7687      7689      7684      7685      7687      7699
      7685      7684      7682      7690      7685      7687      7699      7700
      7685      7687      7699      7701      7685      7687      7699      7702
      7686      7685      7687      7688      7686      7685      7687      7689
      7686      7685      7687      7699      7687      7699      7702      7703
      7687      7699      7702      7704      7687      7699      7702      7705
      7688      7687      7699      7700      7688      7687      7699      7701
      7688      7687      7699      7702      7689      7687      7699      7700
      7689      7687      7699      7701      7689      7687      7699      7702
      7690      7693      7694      7695      7690      7693      7694      7696
      7691      7690      7693      7694      7692      7690      7693      7694
      7693      7694      7696      7697      7693      7694      7696      7698
      7693      7694      7696      7746      7694      7696      7746      7747
      7694      7696      7746      7748      7694      7696      7746      7749
      7695      7694      7696      7697      7695      7694      7696      7698
      7695      7694      7696      7746      7696      7746      7749      7750
      7696      7746      7749      7751      7696      7746      7749      7752
      7697      7696      7746      7747      7697      7696      7746      7748
      7697      7696      7746      7749      7698      7696      7746      7747
      7698      7696      7746      7748      7698      7696      7746      7749
      7699      7702      7705      7706      7699      7702      7705      7707
      7699      7702      7705      7708      7700      7699      7702      7703
      7700      7699      7702      7704      7700      7699      7702      7705
      7701      7699      7702      7703      7701      7699      7702      7704
      7701      7699      7702      7705      7702      7705      7708      7709
      7702      7705      7708      7710      7702      7705      7708      7711
      7703      7702      7705      7706      7703      7702      7705      7707
      7703      7702      7705      7708      7704      7702      7705      7706
      7704      7702      7705      7707      7704      7702      7705      7708
      7705      7708      7711      7712      7705      7708      7711      7713
      7705      7708      7711      7714      7706      7705      7708      7709
      7706      7705      7708      7710      7706      7705      7708      7711
      7707      7705      7708      7709      7707      7705      7708      7710
      7707      7705      7708      7711      7708      7711      7714      7715
      7708      7711      7714      7716      7708      7711      7714      7717
      7709      7708      7711      7712      7709      7708      7711      7713
      7709      7708      7711      7714      7710      7708      7711      7712
      7710      7708      7711      7713      7710      7708      7711      7714
      7711      7714      7717      7718      7711      7714      7717      7719
      7712      7711      7714      7715      7712      7711      7714      7716
      7712      7711      7714      7717      7713      7711      7714      7715
      7713      7711      7714      7716      7713      7711      7714      7717
      7714      7717      7719      7720      7714      7717      7719      7721
      7715      7714      7717      7718      7715      7714      7717      7719
      7716      7714      7717      7718      7716      7714      7717      7719
      7717      7719      7721      7722      7717      7719      7721      7723
      7717      7719      7721      7724      7718      7717      7719      7720
      7718      7717      7719      7721      7719      7721      7724      7725
      7719      7721      7724      7726      7719      7721      7724      7727
      7720      7719      7721      7722      7720      7719      7721      7723
      7720      7719      7721      7724      7721      7724      7727      7728
      7721      7724      7727      7729      7721      7724      7727      7730
      7722      7721      7724      7725      7722      7721      7724      7726
      7722      7721      7724      7727      7723      7721      7724      7725
      7723      7721      7724      7726      7723      7721      7724      7727
      7724      7727      7730      7731      7724      7727      7730      7732
      7724      7727      7730      7733      7725      7724      7727      7728
      7725      7724      7727      7729      7725      7724      7727      7730
      7726      7724      7727      7728      7726      7724      7727      7729
      7726      7724      7727      7730      7727      7730      7733      7734
      7727      7730      7733      7735      7727      7730      7733      7736
      7728      7727      7730      7731      7728      7727      7730      7732
      7728      7727      7730      7733      7729      7727      7730      7731
      7729      7727      7730      7732      7729      7727      7730      7733
      7730      7733      7736      7737      7730      7733      7736      7738
      7730      7733      7736      7739      7731      7730      7733      7734
      7731      7730      7733      7735      7731      7730      7733      7736
      7732      7730      7733      7734      7732      7730      7733      7735
      7732      7730      7733      7736      7733      7736      7739      7740
      7733      7736      7739      7741      7733      7736      7739      7742
      7734      7733      7736      7737      7734      7733      7736      7738
      7734      7733      7736      7739      7735      7733      7736      7737
      7735      7733      7736      7738      7735      7733      7736      7739
      7736      7739      7742      7743      7736      7739      7742      7744
      7736      7739      7742      7745      7737      7736      7739      7740
      7737      7736      7739      7741      7737      7736      7739      7742
      7738      7736      7739      7740      7738      7736      7739      7741
      7738      7736      7739      7742      7740      7739      7742      7743
      7740      7739      7742      7744      7740      7739      7742      7745
      7741      7739      7742      7743      7741      7739      7742      7744
      7741      7739      7742      7745      7746      7749      7752      7753
      7746      7749      7752      7754      7746      7749      7752      7755
      7747      7746      7749      7750      7747      7746      7749      7751
      7747      7746      7749      7752      7748      7746      7749      7750
      7748      7746      7749      7751      7748      7746      7749      7752
      7749      7752      7755      7756      7749      7752      7755      7757
      7749      7752      7755      7758      7750      7749      7752      7753
      7750      7749      7752      7754      7750      7749      7752      7755
      7751      7749      7752      7753      7751      7749      7752      7754
      7751      7749      7752      7755      7752      7755      7758      7759
      7752      7755      7758      7760      7752      7755      7758      7761
      7753      7752      7755      7756      7753      7752      7755      7757
      7753      7752      7755      7758      7754      7752      7755      7756
      7754      7752      7755      7757      7754      7752      7755      7758
      7755      7758      7761      7762      7755      7758      7761      7763
      7755      7758      7761      7764      7756      7755      7758      7759
      7756      7755      7758      7760      7756      7755      7758      7761
      7757      7755      7758      7759      7757      7755      7758      7760
      7757      7755      7758      7761      7758      7761      7764      7765
      7758      7761      7764      7766      7758      7761      7764      7767
      7759      7758      7761      7762      7759      7758      7761      7763
      7759      7758      7761      7764      7760      7758      7761      7762
      7760      7758      7761      7763      7760      7758      7761      7764
      7761      7764      7767      7768      7761      7764      7767      7769
      7761      7764      7767      7770      7762      7761      7764      7765
      7762      7761      7764      7766      7762      7761      7764      7767
      7763      7761      7764      7765      7763      7761      7764      7766
      7763      7761      7764      7767      7764      7767      7770      7771
      7764      7767      7770      7772      7764      7767      7770      7773
      7765      7764      7767      7768      7765      7764      7767      7769
      7765      7764      7767      7770      7766      7764      7767      7768
      7766      7764      7767      7769      7766      7764      7767      7770
      7767      7770      7773      7774      7767      7770      7773      7775
      7767      7770      7773      7776      7768      7767      7770      7771
      7768      7767      7770      7772      7768      7767      7770      7773
      7769      7767      7770      7771      7769      7767      7770      7772
      7769      7767      7770      7773      7770      7773      7776      7777
      7770      7773      7776      7778      7770      7773      7776      7779
      7771      7770      7773      7774      7771      7770      7773      7775
      7771      7770      7773      7776      7772      7770      7773      7774
      7772      7770      7773      7775      7772      7770      7773      7776
      7773      7776      7779      7780      7773      7776      7779      7781
      7773      7776      7779      7782      7774      7773      7776      7777
      7774      7773      7776      7778      7774      7773      7776      7779
      7775      7773      7776      7777      7775      7773      7776      7778
      7775      7773      7776      7779      7776      7779      7782      7783
      7776      7779      7782      7784      7776      7779      7782      7785
      7777      7776      7779      7780      7777      7776      7779      7781
      7777      7776      7779      7782      7778      7776      7779      7780
      7778      7776      7779      7781      7778      7776      7779      7782
      7779      7782      7785      7786      7779      7782      7785      7787
      7779      7782      7785      7788      7780      7779      7782      7783
      7780      7779      7782      7784      7780      7779      7782      7785
      7781      7779      7782      7783      7781      7779      7782      7784
      7781      7779      7782      7785      7783      7782      7785      7786
      7783      7782      7785      7787      7783      7782      7785      7788
      7784      7782      7785      7786      7784      7782      7785      7787
      7784      7782      7785      7788      7789      7790      7805      7806
      7789      7790      7805      7807      7789      7790      7805      7811
      7790      7789      7793      7794      7790      7789      7793      7795
      7790      7789      7793      7796      7790      7789      7797      7798
      7790      7789      7797      7799      7790      7789      7797      7800
      7790      7789      7801      7802      7790      7789      7801      7803
      7790      7789      7801      7804      7790      7805      7811      7808
      7791      7790      7789      7793      7791      7790      7789      7797
      7791      7790      7789      7801      7791      7790      7805      7806
      7791      7790      7805      7807      7791      7790      7805      7811
      7792      7790      7789      7793      7792      7790      7789      7797
      7792      7790      7789      7801      7792      7790      7805      7806
      7792      7790      7805      7807      7792      7790      7805      7811
      7793      7789      7790      7805      7793      7789      7797      7798
      7793      7789      7797      7799      7793      7789      7797      7800
      7793      7789      7801      7802      7793      7789      7801      7803
      7793      7789      7801      7804      7794      7793      7789      7797
      7794      7793      7789      7801      7795      7793      7789      7797
      7795      7793      7789      7801      7796      7793      7789      7797
      7796      7793      7789      7801      7797      7789      7790      7805
      7797      7789      7801      7802      7797      7789      7801      7803
      7797      7789      7801      7804      7798      7797      7789      7801
      7799      7797      7789      7801      7800      7797      7789      7801
      7801      7789      7790      7805      7805      7811      7808      7809
      7805      7811      7808      7810      7805      7811      7808      7812
      7806      7805      7811      7808      7807      7805      7811      7808
      7808      7812      7813      7814      7808      7812      7813      7815
      7808      7812      7813      7816      7809      7808      7812      7813
      7810      7808      7812      7813      7811      7808      7812      7813
      7812      7813      7816      7817      7812      7813      7816      7818
      7812      7813      7816      7824      7813      7816      7818      7819
      7813      7816      7824      7825      7813      7816      7824      7826
      7813      7816      7824      7827      7814      7813      7816      7817
      7814      7813      7816      7818      7814      7813      7816      7824
      7815      7813      7816      7817      7815      7813      7816      7818
      7815      7813      7816      7824      7816      7818      7819      7820
      7816      7818      7819      7821      7816      7824      7827      7828
      7817      7816      7818      7819      7817      7816      7824      7825
      7817      7816      7824      7826      7817      7816      7824      7827
      7818      7816      7824      7825      7818      7816      7824      7826
      7818      7816      7824      7827      7818      7819      7821      7822
      7818      7819      7821      7823      7818      7819      7821      7833
      7819      7818      7816      7824      7819      7821      7833      7834
      7819      7821      7833      7835      7819      7821      7833      7836
      7820      7819      7821      7822      7820      7819      7821      7823
      7820      7819      7821      7833      7821      7833      7836      7837
      7821      7833      7836      7838      7821      7833      7836      7839
      7822      7821      7833      7834      7822      7821      7833      7835
      7822      7821      7833      7836      7823      7821      7833      7834
      7823      7821      7833      7835      7823      7821      7833      7836
      7824      7827      7828      7829      7824      7827      7828      7830
      7825      7824      7827      7828      7826      7824      7827      7828
      7827      7828      7830      7831      7827      7828      7830      7832
      7827      7828      7830      7880      7828      7830      7880      7881
      7828      7830      7880      7882      7828      7830      7880      7883
      7829      7828      7830      7831      7829      7828      7830      7832
      7829      7828      7830      7880      7830      7880      7883      7884
      7830      7880      7883      7885      7830      7880      7883      7886
      7831      7830      7880      7881      7831      7830      7880      7882
      7831      7830      7880      7883      7832      7830      7880      7881
      7832      7830      7880      7882      7832      7830      7880      7883
      7833      7836      7839      7840      7833      7836      7839      7841
      7833      7836      7839      7842      7834      7833      7836      7837
      7834      7833      7836      7838      7834      7833      7836      7839
      7835      7833      7836      7837      7835      7833      7836      7838
      7835      7833      7836      7839      7836      7839      7842      7843
      7836      7839      7842      7844      7836      7839      7842      7845
      7837      7836      7839      7840      7837      7836      7839      7841
      7837      7836      7839      7842      7838      7836      7839      7840
      7838      7836      7839      7841      7838      7836      7839      7842
      7839      7842      7845      7846      7839      7842      7845      7847
      7839      7842      7845      7848      7840      7839      7842      7843
      7840      7839      7842      7844      7840      7839      7842      7845
      7841      7839      7842      7843      7841      7839      7842      7844
      7841      7839      7842      7845      7842      7845      7848      7849
      7842      7845      7848      7850      7842      7845      7848      7851
      7843      7842      7845      7846      7843      7842      7845      7847
      7843      7842      7845      7848      7844      7842      7845      7846
      7844      7842      7845      7847      7844      7842      7845      7848
      7845      7848      7851      7852      7845      7848      7851      7853
      7846      7845      7848      7849      7846      7845      7848      7850
      7846      7845      7848      7851      7847      7845      7848      7849
      7847      7845      7848      7850      7847      7845      7848      7851
      7848      7851      7853      7854      7848      7851      7853      7855
      7849      7848      7851      7852      7849      7848      7851      7853
      7850      7848      7851      7852      7850      7848      7851      7853
      7851      7853      7855      7856      7851      7853      7855      7857
      7851      7853      7855      7858      7852      7851      7853      7854
      7852      7851      7853      7855      7853      7855      7858      7859
      7853      7855      7858      7860      7853      7855      7858      7861
      7854      7853      7855      7856      7854      7853      7855      7857
      7854      7853      7855      7858      7855      7858      7861      7862
      7855      7858      7861      7863      7855      7858      7861      7864
      7856      7855      7858      7859      7856      7855      7858      7860
      7856      7855      7858      7861      7857      7855      7858      7859
      7857      7855      7858      7860      7857      7855      7858      7861
      7858      7861      7864      7865      7858      7861      7864      7866
      7858      7861      7864      7867      7859      7858      7861      7862
      7859      7858      7861      7863      7859      7858      7861      7864
      7860      7858      7861      7862      7860      7858      7861      7863
      7860      7858      7861      7864      7861      7864      7867      7868
      7861      7864      7867      7869      7861      7864      7867      7870
      7862      7861      7864      7865      7862      7861      7864      7866
      7862      7861      7864      7867      7863      7861      7864      7865
      7863      7861      7864      7866      7863      7861      7864      7867
      7864      7867      7870      7871      7864      7867      7870      7872
      7864      7867      7870      7873      7865      7864      7867      7868
      7865      7864      7867      7869      7865      7864      7867      7870
      7866      7864      7867      7868      7866      7864      7867      7869
      7866      7864      7867      7870      7867      7870      7873      7874
      7867      7870      7873      7875      7867      7870      7873      7876
      7868      7867      7870      7871      7868      7867      7870      7872
      7868      7867      7870      7873      7869      7867      7870      7871
      7869      7867      7870      7872      7869      7867      7870      7873
      7870      7873      7876      7877      7870      7873      7876      7878
      7870      7873      7876      7879      7871      7870      7873      7874
      7871      7870      7873      7875      7871      7870      7873      7876
      7872      7870      7873      7874      7872      7870      7873      7875
      7872      7870      7873      7876      7874      7873      7876      7877
      7874      7873      7876      7878      7874      7873      7876      7879
      7875      7873      7876      7877      7875      7873      7876      7878
      7875      7873      7876      7879      7880      7883      7886      7887
      7880      7883      7886      7888      7880      7883      7886      7889
      7881      7880      7883      7884      7881      7880      7883      7885
      7881      7880      7883      7886      7882      7880      7883      7884
      7882      7880      7883      7885      7882      7880      7883      7886
      7883      7886      7889      7890      7883      7886      7889      7891
      7883      7886      7889      7892      7884      7883      7886      7887
      7884      7883      7886      7888      7884      7883      7886      7889
      7885      7883      7886      7887      7885      7883      7886      7888
      7885      7883      7886      7889      7886      7889      7892      7893
      7886      7889      7892      7894      7886      7889      7892      7895
      7887      7886      7889      7890      7887      7886      7889      7891
      7887      7886      7889      7892      7888      7886      7889      7890
      7888      7886      7889      7891      7888      7886      7889      7892
      7889      7892      7895      7896      7889      7892      7895      7897
      7889      7892      7895      7898      7890      7889      7892      7893
      7890      7889      7892      7894      7890      7889      7892      7895
      7891      7889      7892      7893      7891      7889      7892      7894
      7891      7889      7892      7895      7892      7895      7898      7899
      7892      7895      7898      7900      7892      7895      7898      7901
      7893      7892      7895      7896      7893      7892      7895      7897
      7893      7892      7895      7898      7894      7892      7895      7896
      7894      7892      7895      7897      7894      7892      7895      7898
      7895      7898      7901      7902      7895      7898      7901      7903
      7895      7898      7901      7904      7896      7895      7898      7899
      7896      7895      7898      7900      7896      7895      7898      7901
      7897      7895      7898      7899      7897      7895      7898      7900
      7897      7895      7898      7901      7898      7901      7904      7905
      7898      7901      7904      7906      7898      7901      7904      7907
      7899      7898      7901      7902      7899      7898      7901      7903
      7899      7898      7901      7904      7900      7898      7901      7902
      7900      7898      7901      7903      7900      7898      7901      7904
      7901      7904      7907      7908      7901      7904      7907      7909
      7901      7904      7907      7910      7902      7901      7904      7905
      7902      7901      7904      7906      7902      7901      7904      7907
      7903      7901      7904      7905      7903      7901      7904      7906
      7903      7901      7904      7907      7904      7907      7910      7911
      7904      7907      7910      7912      7904      7907      7910      7913
      7905      7904      7907      7908      7905      7904      7907      7909
      7905      7904      7907      7910      7906      7904      7907      7908
      7906      7904      7907      7909      7906      7904      7907      7910
      7907      7910      7913      7914      7907      7910      7913      7915
      7907      7910      7913      7916      7908      7907      7910      7911
      7908      7907      7910      7912      7908      7907      7910      7913
      7909      7907      7910      7911      7909      7907      7910      7912
      7909      7907      7910      7913      7910      7913      7916      7917
      7910      7913      7916      7918      7910      7913      7916      7919
      7911      7910      7913      7914      7911      7910      7913      7915
      7911      7910      7913      7916      7912      7910      7913      7914
      7912      7910      7913      7915      7912      7910      7913      7916
      7913      7916      7919      7920      7913      7916      7919      7921
      7913      7916      7919      7922      7914      7913      7916      7917
      7914      7913      7916      7918      7914      7913      7916      7919
      7915      7913      7916      7917      7915      7913      7916      7918
      7915      7913      7916      7919      7917      7916      7919      7920
      7917      7916      7919      7921      7917      7916      7919      7922
      7918      7916      7919      7920      7918      7916      7919      7921
      7918      7916      7919      7922      7923      7924      7939      7940
      7923      7924      7939      7941      7923      7924      7939      7945
      7924      7923      7927      7928      7924      7923      7927      7929
      7924      7923      7927      7930      7924      7923      7931      7932
      7924      7923      7931      7933      7924      7923      7931      7934
      7924      7923      7935      7936      7924      7923      7935      7937
      7924      7923      7935      7938      7924      7939      7945      7942
      7925      7924      7923      7927      7925      7924      7923      7931
      7925      7924      7923      7935      7925      7924      7939      7940
      7925      7924      7939      7941      7925      7924      7939      7945
      7926      7924      7923      7927      7926      7924      7923      7931
      7926      7924      7923      7935      7926      7924      7939      7940
      7926      7924      7939      7941      7926      7924      7939      7945
      7927      7923      7924      7939      7927      7923      7931      7932
      7927      7923      7931      7933      7927      7923      7931      7934
      7927      7923      7935      7936      7927      7923      7935      7937
      7927      7923      7935      7938      7928      7927      7923      7931
      7928      7927      7923      7935      7929      7927      7923      7931
      7929      7927      7923      7935      7930      7927      7923      7931
      7930      7927      7923      7935      7931      7923      7924      7939
      7931      7923      7935      7936      7931      7923      7935      7937
      7931      7923      7935      7938      7932      7931      7923      7935
      7933      7931      7923      7935      7934      7931      7923      7935
      7935      7923      7924      7939      7939      7945      7942      7943
      7939      7945      7942      7944      7939      7945      7942      7946
      7940      7939      7945      7942      7941      7939      7945      7942
      7942      7946      7947      7948      7942      7946      7947      7949
      7942      7946      7947      7950      7943      7942      7946      7947
      7944      7942      7946      7947      7945      7942      7946      7947
      7946      7947      7950      7951      7946      7947      7950      7952
      7946      7947      7950      7958      7947      7950      7952      7953
      7947      7950      7958      7959      7947      7950      7958      7960
      7947      7950      7958      7961      7948      7947      7950      7951
      7948      7947      7950      7952      7948      7947      7950      7958
      7949      7947      7950      7951      7949      7947      7950      7952
      7949      7947      7950      7958      7950      7952      7953      7954
      7950      7952      7953      7955      7950      7958      7961      7962
      7951      7950      7952      7953      7951      7950      7958      7959
      7951      7950      7958      7960      7951      7950      7958      7961
      7952      7950      7958      7959      7952      7950      7958      7960
      7952      7950      7958      7961      7952      7953      7955      7956
      7952      7953      7955      7957      7952      7953      7955      7967
      7953      7952      7950      7958      7953      7955      7967      7968
      7953      7955      7967      7969      7953      7955      7967      7970
      7954      7953      7955      7956      7954      7953      7955      7957
      7954      7953      7955      7967      7955      7967      7970      7971
      7955      7967      7970      7972      7955      7967      7970      7973
      7956      7955      7967      7968      7956      7955      7967      7969
      7956      7955      7967      7970      7957      7955      7967      7968
      7957      7955      7967      7969      7957      7955      7967      7970
      7958      7961      7962      7963      7958      7961      7962      7964
      7959      7958      7961      7962      7960      7958      7961      7962
      7961      7962      7964      7965      7961      7962      7964      7966
      7961      7962      7964      8014      7962      7964      8014      8015
      7962      7964      8014      8016      7962      7964      8014      8017
      7963      7962      7964      7965      7963      7962      7964      7966
      7963      7962      7964      8014      7964      8014      8017      8018
      7964      8014      8017      8019      7964      8014      8017      8020
      7965      7964      8014      8015      7965      7964      8014      8016
      7965      7964      8014      8017      7966      7964      8014      8015
      7966      7964      8014      8016      7966      7964      8014      8017
      7967      7970      7973      7974      7967      7970      7973      7975
      7967      7970      7973      7976      7968      7967      7970      7971
      7968      7967      7970      7972      7968      7967      7970      7973
      7969      7967      7970      7971      7969      7967      7970      7972
      7969      7967      7970      7973      7970      7973      7976      7977
      7970      7973      7976      7978      7970      7973      7976      7979
      7971      7970      7973      7974      7971      7970      7973      7975
      7971      7970      7973      7976      7972      7970      7973      7974
      7972      7970      7973      7975      7972      7970      7973      7976
      7973      7976      7979      7980      7973      7976      7979      7981
      7973      7976      7979      7982      7974      7973      7976      7977
      7974      7973      7976      7978      7974      7973      7976      7979
      7975      7973      7976      7977      7975      7973      7976      7978
      7975      7973      7976      7979      7976      7979      7982      7983
      7976      7979      7982      7984      7976      7979      7982      7985
      7977      7976      7979      7980      7977      7976      7979      7981
      7977      7976      7979      7982      7978      7976      7979      7980
      7978      7976      7979      7981      7978      7976      7979      7982
      7979      7982      7985      7986      7979      7982      7985      7987
      7980      7979      7982      7983      7980      7979      7982      7984
      7980      7979      7982      7985      7981      7979      7982      7983
      7981      7979      7982      7984      7981      7979      7982      7985
      7982      7985      7987      7988      7982      7985      7987      7989
      7983      7982      7985      7986      7983      7982      7985      7987
      7984      7982      7985      7986      7984      7982      7985      7987
      7985      7987      7989      7990      7985      7987      7989      7991
      7985      7987      7989      7992      7986      7985      7987      7988
      7986      7985      7987      7989      7987      7989      7992      7993
      7987      7989      7992      7994      7987      7989      7992      7995
      7988      7987      7989      7990      7988      7987      7989      7991
      7988      7987      7989      7992      7989      7992      7995      7996
      7989      7992      7995      7997      7989      7992      7995      7998
      7990      7989      7992      7993      7990      7989      7992      7994
      7990      7989      7992      7995      7991      7989      7992      7993
      7991      7989      7992      7994      7991      7989      7992      7995
      7992      7995      7998      7999      7992      7995      7998      8000
      7992      7995      7998      8001      7993      7992      7995      7996
      7993      7992      7995      7997      7993      7992      7995      7998
      7994      7992      7995      7996      7994      7992      7995      7997
      7994      7992      7995      7998      7995      7998      8001      8002
      7995      7998      8001      8003      7995      7998      8001      8004
      7996      7995      7998      7999      7996      7995      7998      8000
      7996      7995      7998      8001      7997      7995      7998      7999
      7997      7995      7998      8000      7997      7995      7998      8001
      7998      8001      8004      8005      7998      8001      8004      8006
      7998      8001      8004      8007      7999      7998      8001      8002
      7999      7998      8001      8003      7999      7998      8001      8004
      8000      7998      8001      8002      8000      7998      8001      8003
      8000      7998      8001      8004      8001      8004      8007      8008
      8001      8004      8007      8009      8001      8004      8007      8010
      8002      8001      8004      8005      8002      8001      8004      8006
      8002      8001      8004      8007      8003      8001      8004      8005
      8003      8001      8004      8006      8003      8001      8004      8007
      8004      8007      8010      8011      8004      8007      8010      8012
      8004      8007      8010      8013      8005      8004      8007      8008
      8005      8004      8007      8009      8005      8004      8007      8010
      8006      8004      8007      8008      8006      8004      8007      8009
      8006      8004      8007      8010      8008      8007      8010      8011
      8008      8007      8010      8012      8008      8007      8010      8013
      8009      8007      8010      8011      8009      8007      8010      8012
      8009      8007      8010      8013      8014      8017      8020      8021
      8014      8017      8020      8022      8014      8017      8020      8023
      8015      8014      8017      8018      8015      8014      8017      8019
      8015      8014      8017      8020      8016      8014      8017      8018
      8016      8014      8017      8019      8016      8014      8017      8020
      8017      8020      8023      8024      8017      8020      8023      8025
      8017      8020      8023      8026      8018      8017      8020      8021
      8018      8017      8020      8022      8018      8017      8020      8023
      8019      8017      8020      8021      8019      8017      8020      8022
      8019      8017      8020      8023      8020      8023      8026      8027
      8020      8023      8026      8028      8020      8023      8026      8029
      8021      8020      8023      8024      8021      8020      8023      8025
      8021      8020      8023      8026      8022      8020      8023      8024
      8022      8020      8023      8025      8022      8020      8023      8026
      8023      8026      8029      8030      8023      8026      8029      8031
      8023      8026      8029      8032      8024      8023      8026      8027
      8024      8023      8026      8028      8024      8023      8026      8029
      8025      8023      8026      8027      8025      8023      8026      8028
      8025      8023      8026      8029      8026      8029      8032      8033
      8026      8029      8032      8034      8026      8029      8032      8035
      8027      8026      8029      8030      8027      8026      8029      8031
      8027      8026      8029      8032      8028      8026      8029      8030
      8028      8026      8029      8031      8028      8026      8029      8032
      8029      8032      8035      8036      8029      8032      8035      8037
      8029      8032      8035      8038      8030      8029      8032      8033
      8030      8029      8032      8034      8030      8029      8032      8035
      8031      8029      8032      8033      8031      8029      8032      8034
      8031      8029      8032      8035      8032      8035      8038      8039
      8032      8035      8038      8040      8032      8035      8038      8041
      8033      8032      8035      8036      8033      8032      8035      8037
      8033      8032      8035      8038      8034      8032      8035      8036
      8034      8032      8035      8037      8034      8032      8035      8038
      8035      8038      8041      8042      8035      8038      8041      8043
      8035      8038      8041      8044      8036      8035      8038      8039
      8036      8035      8038      8040      8036      8035      8038      8041
      8037      8035      8038      8039      8037      8035      8038      8040
      8037      8035      8038      8041      8038      8041      8044      8045
      8038      8041      8044      8046      8038      8041      8044      8047
      8039      8038      8041      8042      8039      8038      8041      8043
      8039      8038      8041      8044      8040      8038      8041      8042
      8040      8038      8041      8043      8040      8038      8041      8044
      8041      8044      8047      8048      8041      8044      8047      8049
      8041      8044      8047      8050      8042      8041      8044      8045
      8042      8041      8044      8046      8042      8041      8044      8047
      8043      8041      8044      8045      8043      8041      8044      8046
      8043      8041      8044      8047      8044      8047      8050      8051
      8044      8047      8050      8052      8044      8047      8050      8053
      8045      8044      8047      8048      8045      8044      8047      8049
      8045      8044      8047      8050      8046      8044      8047      8048
      8046      8044      8047      8049      8046      8044      8047      8050
      8047      8050      8053      8054      8047      8050      8053      8055
      8047      8050      8053      8056      8048      8047      8050      8051
      8048      8047      8050      8052      8048      8047      8050      8053
      8049      8047      8050      8051      8049      8047      8050      8052
      8049      8047      8050      8053      8051      8050      8053      8054
      8051      8050      8053      8055      8051      8050      8053      8056
      8052      8050      8053      8054      8052      8050      8053      8055
      8052      8050      8053      8056      8057      8058      8073      8074
      8057      8058      8073      8075      8057      8058      8073      8079
      8058      8057      8061      8062      8058      8057      8061      8063
      8058      8057      8061      8064      8058      8057      8065      8066
      8058      8057      8065      8067      8058      8057      8065      8068
      8058      8057      8069      8070      8058      8057      8069      8071
      8058      8057      8069      8072      8058      8073      8079      8076
      8059      8058      8057      8061      8059      8058      8057      8065
      8059      8058      8057      8069      8059      8058      8073      8074
      8059      8058      8073      8075      8059      8058      8073      8079
      8060      8058      8057      8061      8060      8058      8057      8065
      8060      8058      8057      8069      8060      8058      8073      8074
      8060      8058      8073      8075      8060      8058      8073      8079
      8061      8057      8058      8073      8061      8057      8065      8066
      8061      8057      8065      8067      8061      8057      8065      8068
      8061      8057      8069      8070      8061      8057      8069      8071
      8061      8057      8069      8072      8062      8061      8057      8065
      8062      8061      8057      8069      8063      8061      8057      8065
      8063      8061      8057      8069      8064      8061      8057      8065
      8064      8061      8057      8069      8065      8057      8058      8073
      8065      8057      8069      8070      8065      8057      8069      8071
      8065      8057      8069      8072      8066      8065      8057      8069
      8067      8065      8057      8069      8068      8065      8057      8069
      8069      8057      8058      8073      8073      8079      8076      8077
      8073      8079      8076      8078      8073      8079      8076      8080
      8074      8073      8079      8076      8075      8073      8079      8076
      8076      8080      8081      8082      8076      8080      8081      8083
      8076      8080      8081      8084      8077      8076      8080      8081
      8078      8076      8080      8081      8079      8076      8080      8081
      8080      8081      8084      8085      8080      8081      8084      8086
      8080      8081      8084      8092      8081      8084      8086      8087
      8081      8084      8092      8093      8081      8084      8092      8094
      8081      8084      8092      8095      8082      8081      8084      8085
      8082      8081      8084      8086      8082      8081      8084      8092
      8083      8081      8084      8085      8083      8081      8084      8086
      8083      8081      8084      8092      8084      8086      8087      8088
      8084      8086      8087      8089      8084      8092      8095      8096
      8085      8084      8086      8087      8085      8084      8092      8093
      8085      8084      8092      8094      8085      8084      8092      8095
      8086      8084      8092      8093      8086      8084      8092      8094
      8086      8084      8092      8095      8086      8087      8089      8090
      8086      8087      8089      8091      8086      8087      8089      8101
      8087      8086      8084      8092      8087      8089      8101      8102
      8087      8089      8101      8103      8087      8089      8101      8104
      8088      8087      8089      8090      8088      8087      8089      8091
      8088      8087      8089      8101      8089      8101      8104      8105
      8089      8101      8104      8106      8089      8101      8104      8107
      8090      8089      8101      8102      8090      8089      8101      8103
      8090      8089      8101      8104      8091      8089      8101      8102
      8091      8089      8101      8103      8091      8089      8101      8104
      8092      8095      8096      8097      8092      8095      8096      8098
      8093      8092      8095      8096      8094      8092      8095      8096
      8095      8096      8098      8099      8095      8096      8098      8100
      8095      8096      8098      8148      8096      8098      8148      8149
      8096      8098      8148      8150      8096      8098      8148      8151
      8097      8096      8098      8099      8097      8096      8098      8100
      8097      8096      8098      8148      8098      8148      8151      8152
      8098      8148      8151      8153      8098      8148      8151      8154
      8099      8098      8148      8149      8099      8098      8148      8150
      8099      8098      8148      8151      8100      8098      8148      8149
      8100      8098      8148      8150      8100      8098      8148      8151
      8101      8104      8107      8108      8101      8104      8107      8109
      8101      8104      8107      8110      8102      8101      8104      8105
      8102      8101      8104      8106      8102      8101      8104      8107
      8103      8101      8104      8105      8103      8101      8104      8106
      8103      8101      8104      8107      8104      8107      8110      8111
      8104      8107      8110      8112      8104      8107      8110      8113
      8105      8104      8107      8108      8105      8104      8107      8109
      8105      8104      8107      8110      8106      8104      8107      8108
      8106      8104      8107      8109      8106      8104      8107      8110
      8107      8110      8113      8114      8107      8110      8113      8115
      8107      8110      8113      8116      8108      8107      8110      8111
      8108      8107      8110      8112      8108      8107      8110      8113
      8109      8107      8110      8111      8109      8107      8110      8112
      8109      8107      8110      8113      8110      8113      8116      8117
      8110      8113      8116      8118      8110      8113      8116      8119
      8111      8110      8113      8114      8111      8110      8113      8115
      8111      8110      8113      8116      8112      8110      8113      8114
      8112      8110      8113      8115      8112      8110      8113      8116
      8113      8116      8119      8120      8113      8116      8119      8121
      8114      8113      8116      8117      8114      8113      8116      8118
      8114      8113      8116      8119      8115      8113      8116      8117
      8115      8113      8116      8118      8115      8113      8116      8119
      8116      8119      8121      8122      8116      8119      8121      8123
      8117      8116      8119      8120      8117      8116      8119      8121
      8118      8116      8119      8120      8118      8116      8119      8121
      8119      8121      8123      8124      8119      8121      8123      8125
      8119      8121      8123      8126      8120      8119      8121      8122
      8120      8119      8121      8123      8121      8123      8126      8127
      8121      8123      8126      8128      8121      8123      8126      8129
      8122      8121      8123      8124      8122      8121      8123      8125
      8122      8121      8123      8126      8123      8126      8129      8130
      8123      8126      8129      8131      8123      8126      8129      8132
      8124      8123      8126      8127      8124      8123      8126      8128
      8124      8123      8126      8129      8125      8123      8126      8127
      8125      8123      8126      8128      8125      8123      8126      8129
      8126      8129      8132      8133      8126      8129      8132      8134
      8126      8129      8132      8135      8127      8126      8129      8130
      8127      8126      8129      8131      8127      8126      8129      8132
      8128      8126      8129      8130      8128      8126      8129      8131
      8128      8126      8129      8132      8129      8132      8135      8136
      8129      8132      8135      8137      8129      8132      8135      8138
      8130      8129      8132      8133      8130      8129      8132      8134
      8130      8129      8132      8135      8131      8129      8132      8133
      8131      8129      8132      8134      8131      8129      8132      8135
      8132      8135      8138      8139      8132      8135      8138      8140
      8132      8135      8138      8141      8133      8132      8135      8136
      8133      8132      8135      8137      8133      8132      8135      8138
      8134      8132      8135      8136      8134      8132      8135      8137
      8134      8132      8135      8138      8135      8138      8141      8142
      8135      8138      8141      8143      8135      8138      8141      8144
      8136      8135      8138      8139      8136      8135      8138      8140
      8136      8135      8138      8141      8137      8135      8138      8139
      8137      8135      8138      8140      8137      8135      8138      8141
      8138      8141      8144      8145      8138      8141      8144      8146
      8138      8141      8144      8147      8139      8138      8141      8142
      8139      8138      8141      8143      8139      8138      8141      8144
      8140      8138      8141      8142      8140      8138      8141      8143
      8140      8138      8141      8144      8142      8141      8144      8145
      8142      8141      8144      8146      8142      8141      8144      8147
      8143      8141      8144      8145      8143      8141      8144      8146
      8143      8141      8144      8147      8148      8151      8154      8155
      8148      8151      8154      8156      8148      8151      8154      8157
      8149      8148      8151      8152      8149      8148      8151      8153
      8149      8148      8151      8154      8150      8148      8151      8152
      8150      8148      8151      8153      8150      8148      8151      8154
      8151      8154      8157      8158      8151      8154      8157      8159
      8151      8154      8157      8160      8152      8151      8154      8155
      8152      8151      8154      8156      8152      8151      8154      8157
      8153      8151      8154      8155      8153      8151      8154      8156
      8153      8151      8154      8157      8154      8157      8160      8161
      8154      8157      8160      8162      8154      8157      8160      8163
      8155      8154      8157      8158      8155      8154      8157      8159
      8155      8154      8157      8160      8156      8154      8157      8158
      8156      8154      8157      8159      8156      8154      8157      8160
      8157      8160      8163      8164      8157      8160      8163      8165
      8157      8160      8163      8166      8158      8157      8160      8161
      8158      8157      8160      8162      8158      8157      8160      8163
      8159      8157      8160      8161      8159      8157      8160      8162
      8159      8157      8160      8163      8160      8163      8166      8167
      8160      8163      8166      8168      8160      8163      8166      8169
      8161      8160      8163      8164      8161      8160      8163      8165
      8161      8160      8163      8166      8162      8160      8163      8164
      8162      8160      8163      8165      8162      8160      8163      8166
      8163      8166      8169      8170      8163      8166      8169      8171
      8163      8166      8169      8172      8164      8163      8166      8167
      8164      8163      8166      8168      8164      8163      8166      8169
      8165      8163      8166      8167      8165      8163      8166      8168
      8165      8163      8166      8169      8166      8169      8172      8173
      8166      8169      8172      8174      8166      8169      8172      8175
      8167      8166      8169      8170      8167      8166      8169      8171
      8167      8166      8169      8172      8168      8166      8169      8170
      8168      8166      8169      8171      8168      8166      8169      8172
      8169      8172      8175      8176      8169      8172      8175      8177
      8169      8172      8175      8178      8170      8169      8172      8173
      8170      8169      8172      8174      8170      8169      8172      8175
      8171      8169      8172      8173      8171      8169      8172      8174
      8171      8169      8172      8175      8172      8175      8178      8179
      8172      8175      8178      8180      8172      8175      8178      8181
      8173      8172      8175      8176      8173      8172      8175      8177
      8173      8172      8175      8178      8174      8172      8175      8176
      8174      8172      8175      8177      8174      8172      8175      8178
      8175      8178      8181      8182      8175      8178      8181      8183
      8175      8178      8181      8184      8176      8175      8178      8179
      8176      8175      8178      8180      8176      8175      8178      8181
      8177      8175      8178      8179      8177      8175      8178      8180
      8177      8175      8178      8181      8178      8181      8184      8185
      8178      8181      8184      8186      8178      8181      8184      8187
      8179      8178      8181      8182      8179      8178      8181      8183
      8179      8178      8181      8184      8180      8178      8181      8182
      8180      8178      8181      8183      8180      8178      8181      8184
      8181      8184      8187      8188      8181      8184      8187      8189
      8181      8184      8187      8190      8182      8181      8184      8185
      8182      8181      8184      8186      8182      8181      8184      8187
      8183      8181      8184      8185      8183      8181      8184      8186
      8183      8181      8184      8187      8185      8184      8187      8188
      8185      8184      8187      8189      8185      8184      8187      8190
      8186      8184      8187      8188      8186      8184      8187      8189
      8186      8184      8187      8190      8191      8192      8207      8208
      8191      8192      8207      8209      8191      8192      8207      8213
      8192      8191      8195      8196      8192      8191      8195      8197
      8192      8191      8195      8198      8192      8191      8199      8200
      8192      8191      8199      8201      8192      8191      8199      8202
      8192      8191      8203      8204      8192      8191      8203      8205
      8192      8191      8203      8206      8192      8207      8213      8210
      8193      8192      8191      8195      8193      8192      8191      8199
      8193      8192      8191      8203      8193      8192      8207      8208
      8193      8192      8207      8209      8193      8192      8207      8213
      8194      8192      8191      8195      8194      8192      8191      8199
      8194      8192      8191      8203      8194      8192      8207      8208
      8194      8192      8207      8209      8194      8192      8207      8213
      8195      8191      8192      8207      8195      8191      8199      8200
      8195      8191      8199      8201      8195      8191      8199      8202
      8195      8191      8203      8204      8195      8191      8203      8205
      8195      8191      8203      8206      8196      8195      8191      8199
      8196      8195      8191      8203      8197      8195      8191      8199
      8197      8195      8191      8203      8198      8195      8191      8199
      8198      8195      8191      8203      8199      8191      8192      8207
      8199      8191      8203      8204      8199      8191      8203      8205
      8199      8191      8203      8206      8200      8199      8191      8203
      8201      8199      8191      8203      8202      8199      8191      8203
      8203      8191      8192      8207      8207      8213      8210      8211
      8207      8213      8210      8212      8207      8213      8210      8214
      8208      8207      8213      8210      8209      8207      8213      8210
      8210      8214      8215      8216      8210      8214      8215      8217
      8210      8214      8215      8218      8211      8210      8214      8215
      8212      8210      8214      8215      8213      8210      8214      8215
      8214      8215      8218      8219      8214      8215      8218      8220
      8214      8215      8218      8226      8215      8218      8220      8221
      8215      8218      8226      8227      8215      8218      8226      8228
      8215      8218      8226      8229      8216      8215      8218      8219
      8216      8215      8218      8220      8216      8215      8218      8226
      8217      8215      8218      8219      8217      8215      8218      8220
      8217      8215      8218      8226      8218      8220      8221      8222
      8218      8220      8221      8223      8218      8226      8229      8230
      8219      8218      8220      8221      8219      8218      8226      8227
      8219      8218      8226      8228      8219      8218      8226      8229
      8220      8218      8226      8227      8220      8218      8226      8228
      8220      8218      8226      8229      8220      8221      8223      8224
      8220      8221      8223      8225      8220      8221      8223      8235
      8221      8220      8218      8226      8221      8223      8235      8236
      8221      8223      8235      8237      8221      8223      8235      8238
      8222      8221      8223      8224      8222      8221      8223      8225
      8222      8221      8223      8235      8223      8235      8238      8239
      8223      8235      8238      8240      8223      8235      8238      8241
      8224      8223      8235      8236      8224      8223      8235      8237
      8224      8223      8235      8238      8225      8223      8235      8236
      8225      8223      8235      8237      8225      8223      8235      8238
      8226      8229      8230      8231      8226      8229      8230      8232
      8227      8226      8229      8230      8228      8226      8229      8230
      8229      8230      8232      8233      8229      8230      8232      8234
      8229      8230      8232      8282      8230      8232      8282      8283
      8230      8232      8282      8284      8230      8232      8282      8285
      8231      8230      8232      8233      8231      8230      8232      8234
      8231      8230      8232      8282      8232      8282      8285      8286
      8232      8282      8285      8287      8232      8282      8285      8288
      8233      8232      8282      8283      8233      8232      8282      8284
      8233      8232      8282      8285      8234      8232      8282      8283
      8234      8232      8282      8284      8234      8232      8282      8285
      8235      8238      8241      8242      8235      8238      8241      8243
      8235      8238      8241      8244      8236      8235      8238      8239
      8236      8235      8238      8240      8236      8235      8238      8241
      8237      8235      8238      8239      8237      8235      8238      8240
      8237      8235      8238      8241      8238      8241      8244      8245
      8238      8241      8244      8246      8238      8241      8244      8247
      8239      8238      8241      8242      8239      8238      8241      8243
      8239      8238      8241      8244      8240      8238      8241      8242
      8240      8238      8241      8243      8240      8238      8241      8244
      8241      8244      8247      8248      8241      8244      8247      8249
      8241      8244      8247      8250      8242      8241      8244      8245
      8242      8241      8244      8246      8242      8241      8244      8247
      8243      8241      8244      8245      8243      8241      8244      8246
      8243      8241      8244      8247      8244      8247      8250      8251
      8244      8247      8250      8252      8244      8247      8250      8253
      8245      8244      8247      8248      8245      8244      8247      8249
      8245      8244      8247      8250      8246      8244      8247      8248
      8246      8244      8247      8249      8246      8244      8247      8250
      8247      8250      8253      8254      8247      8250      8253      8255
      8248      8247      8250      8251      8248      8247      8250      8252
      8248      8247      8250      8253      8249      8247      8250      8251
      8249      8247      8250      8252      8249      8247      8250      8253
      8250      8253      8255      8256      8250      8253      8255      8257
      8251      8250      8253      8254      8251      8250      8253      8255
      8252      8250      8253      8254      8252      8250      8253      8255
      8253      8255      8257      8258      8253      8255      8257      8259
      8253      8255      8257      8260      8254      8253      8255      8256
      8254      8253      8255      8257      8255      8257      8260      8261
      8255      8257      8260      8262      8255      8257      8260      8263
      8256      8255      8257      8258      8256      8255      8257      8259
      8256      8255      8257      8260      8257      8260      8263      8264
      8257      8260      8263      8265      8257      8260      8263      8266
      8258      8257      8260      8261      8258      8257      8260      8262
      8258      8257      8260      8263      8259      8257      8260      8261
      8259      8257      8260      8262      8259      8257      8260      8263
      8260      8263      8266      8267      8260      8263      8266      8268
      8260      8263      8266      8269      8261      8260      8263      8264
      8261      8260      8263      8265      8261      8260      8263      8266
      8262      8260      8263      8264      8262      8260      8263      8265
      8262      8260      8263      8266      8263      8266      8269      8270
      8263      8266      8269      8271      8263      8266      8269      8272
      8264      8263      8266      8267      8264      8263      8266      8268
      8264      8263      8266      8269      8265      8263      8266      8267
      8265      8263      8266      8268      8265      8263      8266      8269
      8266      8269      8272      8273      8266      8269      8272      8274
      8266      8269      8272      8275      8267      8266      8269      8270
      8267      8266      8269      8271      8267      8266      8269      8272
      8268      8266      8269      8270      8268      8266      8269      8271
      8268      8266      8269      8272      8269      8272      8275      8276
      8269      8272      8275      8277      8269      8272      8275      8278
      8270      8269      8272      8273      8270      8269      8272      8274
      8270      8269      8272      8275      8271      8269      8272      8273
      8271      8269      8272      8274      8271      8269      8272      8275
      8272      8275      8278      8279      8272      8275      8278      8280
      8272      8275      8278      8281      8273      8272      8275      8276
      8273      8272      8275      8277      8273      8272      8275      8278
      8274      8272      8275      8276      8274      8272      8275      8277
      8274      8272      8275      8278      8276      8275      8278      8279
      8276      8275      8278      8280      8276      8275      8278      8281
      8277      8275      8278      8279      8277      8275      8278      8280
      8277      8275      8278      8281      8282      8285      8288      8289
      8282      8285      8288      8290      8282      8285      8288      8291
      8283      8282      8285      8286      8283      8282      8285      8287
      8283      8282      8285      8288      8284      8282      8285      8286
      8284      8282      8285      8287      8284      8282      8285      8288
      8285      8288      8291      8292      8285      8288      8291      8293
      8285      8288      8291      8294      8286      8285      8288      8289
      8286      8285      8288      8290      8286      8285      8288      8291
      8287      8285      8288      8289      8287      8285      8288      8290
      8287      8285      8288      8291      8288      8291      8294      8295
      8288      8291      8294      8296      8288      8291      8294      8297
      8289      8288      8291      8292      8289      8288      8291      8293
      8289      8288      8291      8294      8290      8288      8291      8292
      8290      8288      8291      8293      8290      8288      8291      8294
      8291      8294      8297      8298      8291      8294      8297      8299
      8291      8294      8297      8300      8292      8291      8294      8295
      8292      8291      8294      8296      8292      8291      8294      8297
      8293      8291      8294      8295      8293      8291      8294      8296
      8293      8291      8294      8297      8294      8297      8300      8301
      8294      8297      8300      8302      8294      8297      8300      8303
      8295      8294      8297      8298      8295      8294      8297      8299
      8295      8294      8297      8300      8296      8294      8297      8298
      8296      8294      8297      8299      8296      8294      8297      8300
      8297      8300      8303      8304      8297      8300      8303      8305
      8297      8300      8303      8306      8298      8297      8300      8301
      8298      8297      8300      8302      8298      8297      8300      8303
      8299      8297      8300      8301      8299      8297      8300      8302
      8299      8297      8300      8303      8300      8303      8306      8307
      8300      8303      8306      8308      8300      8303      8306      8309
      8301      8300      8303      8304      8301      8300      8303      8305
      8301      8300      8303      8306      8302      8300      8303      8304
      8302      8300      8303      8305      8302      8300      8303      8306
      8303      8306      8309      8310      8303      8306      8309      8311
      8303      8306      8309      8312      8304      8303      8306      8307
      8304      8303      8306      8308      8304      8303      8306      8309
      8305      8303      8306      8307      8305      8303      8306      8308
      8305      8303      8306      8309      8306      8309      8312      8313
      8306      8309      8312      8314      8306      8309      8312      8315
      8307      8306      8309      8310      8307      8306      8309      8311
      8307      8306      8309      8312      8308      8306      8309      8310
      8308      8306      8309      8311      8308      8306      8309      8312
      8309      8312      8315      8316      8309      8312      8315      8317
      8309      8312      8315      8318      8310      8309      8312      8313
      8310      8309      8312      8314      8310      8309      8312      8315
      8311      8309      8312      8313      8311      8309      8312      8314
      8311      8309      8312      8315      8312      8315      8318      8319
      8312      8315      8318      8320      8312      8315      8318      8321
      8313      8312      8315      8316      8313      8312      8315      8317
      8313      8312      8315      8318      8314      8312      8315      8316
      8314      8312      8315      8317      8314      8312      8315      8318
      8315      8318      8321      8322      8315      8318      8321      8323
      8315      8318      8321      8324      8316      8315      8318      8319
      8316      8315      8318      8320      8316      8315      8318      8321
      8317      8315      8318      8319      8317      8315      8318      8320
      8317      8315      8318      8321      8319      8318      8321      8322
      8319      8318      8321      8323      8319      8318      8321      8324
      8320      8318      8321      8322      8320      8318      8321      8323
      8320      8318      8321      8324      8325      8326      8341      8342
      8325      8326      8341      8343      8325      8326      8341      8347
      8326      8325      8329      8330      8326      8325      8329      8331
      8326      8325      8329      8332      8326      8325      8333      8334
      8326      8325      8333      8335      8326      8325      8333      8336
      8326      8325      8337      8338      8326      8325      8337      8339
      8326      8325      8337      8340      8326      8341      8347      8344
      8327      8326      8325      8329      8327      8326      8325      8333
      8327      8326      8325      8337      8327      8326      8341      8342
      8327      8326      8341      8343      8327      8326      8341      8347
      8328      8326      8325      8329      8328      8326      8325      8333
      8328      8326      8325      8337      8328      8326      8341      8342
      8328      8326      8341      8343      8328      8326      8341      8347
      8329      8325      8326      8341      8329      8325      8333      8334
      8329      8325      8333      8335      8329      8325      8333      8336
      8329      8325      8337      8338      8329      8325      8337      8339
      8329      8325      8337      8340      8330      8329      8325      8333
      8330      8329      8325      8337      8331      8329      8325      8333
      8331      8329      8325      8337      8332      8329      8325      8333
      8332      8329      8325      8337      8333      8325      8326      8341
      8333      8325      8337      8338      8333      8325      8337      8339
      8333      8325      8337      8340      8334      8333      8325      8337
      8335      8333      8325      8337      8336      8333      8325      8337
      8337      8325      8326      8341      8341      8347      8344      8345
      8341      8347      8344      8346      8341      8347      8344      8348
      8342      8341      8347      8344      8343      8341      8347      8344
      8344      8348      8349      8350      8344      8348      8349      8351
      8344      8348      8349      8352      8345      8344      8348      8349
      8346      8344      8348      8349      8347      8344      8348      8349
      8348      8349      8352      8353      8348      8349      8352      8354
      8348      8349      8352      8360      8349      8352      8354      8355
      8349      8352      8360      8361      8349      8352      8360      8362
      8349      8352      8360      8363      8350      8349      8352      8353
      8350      8349      8352      8354      8350      8349      8352      8360
      8351      8349      8352      8353      8351      8349      8352      8354
      8351      8349      8352      8360      8352      8354      8355      8356
      8352      8354      8355      8357      8352      8360      8363      8364
      8353      8352      8354      8355      8353      8352      8360      8361
      8353      8352      8360      8362      8353      8352      8360      8363
      8354      8352      8360      8361      8354      8352      8360      8362
      8354      8352      8360      8363      8354      8355      8357      8358
      8354      8355      8357      8359      8354      8355      8357      8369
      8355      8354      8352      8360      8355      8357      8369      8370
      8355      8357      8369      8371      8355      8357      8369      8372
      8356      8355      8357      8358      8356      8355      8357      8359
      8356      8355      8357      8369      8357      8369      8372      8373
      8357      8369      8372      8374      8357      8369      8372      8375
      8358      8357      8369      8370      8358      8357      8369      8371
      8358      8357      8369      8372      8359      8357      8369      8370
      8359      8357      8369      8371      8359      8357      8369      8372
      8360      8363      8364      8365      8360      8363      8364      8366
      8361      8360      8363      8364      8362      8360      8363      8364
      8363      8364      8366      8367      8363      8364      8366      8368
      8363      8364      8366      8416      8364      8366      8416      8417
      8364      8366      8416      8418      8364      8366      8416      8419
      8365      8364      8366      8367      8365      8364      8366      8368
      8365      8364      8366      8416      8366      8416      8419      8420
      8366      8416      8419      8421      8366      8416      8419      8422
      8367      8366      8416      8417      8367      8366      8416      8418
      8367      8366      8416      8419      8368      8366      8416      8417
      8368      8366      8416      8418      8368      8366      8416      8419
      8369      8372      8375      8376      8369      8372      8375      8377
      8369      8372      8375      8378      8370      8369      8372      8373
      8370      8369      8372      8374      8370      8369      8372      8375
      8371      8369      8372      8373      8371      8369      8372      8374
      8371      8369      8372      8375      8372      8375      8378      8379
      8372      8375      8378      8380      8372      8375      8378      8381
      8373      8372      8375      8376      8373      8372      8375      8377
      8373      8372      8375      8378      8374      8372      8375      8376
      8374      8372      8375      8377      8374      8372      8375      8378
      8375      8378      8381      8382      8375      8378      8381      8383
      8375      8378      8381      8384      8376      8375      8378      8379
      8376      8375      8378      8380      8376      8375      8378      8381
      8377      8375      8378      8379      8377      8375      8378      8380
      8377      8375      8378      8381      8378      8381      8384      8385
      8378      8381      8384      8386      8378      8381      8384      8387
      8379      8378      8381      8382      8379      8378      8381      8383
      8379      8378      8381      8384      8380      8378      8381      8382
      8380      8378      8381      8383      8380      8378      8381      8384
      8381      8384      8387      8388      8381      8384      8387      8389
      8382      8381      8384      8385      8382      8381      8384      8386
      8382      8381      8384      8387      8383      8381      8384      8385
      8383      8381      8384      8386      8383      8381      8384      8387
      8384      8387      8389      8390      8384      8387      8389      8391
      8385      8384      8387      8388      8385      8384      8387      8389
      8386      8384      8387      8388      8386      8384      8387      8389
      8387      8389      8391      8392      8387      8389      8391      8393
      8387      8389      8391      8394      8388      8387      8389      8390
      8388      8387      8389      8391      8389      8391      8394      8395
      8389      8391      8394      8396      8389      8391      8394      8397
      8390      8389      8391      8392      8390      8389      8391      8393
      8390      8389      8391      8394      8391      8394      8397      8398
      8391      8394      8397      8399      8391      8394      8397      8400
      8392      8391      8394      8395      8392      8391      8394      8396
      8392      8391      8394      8397      8393      8391      8394      8395
      8393      8391      8394      8396      8393      8391      8394      8397
      8394      8397      8400      8401      8394      8397      8400      8402
      8394      8397      8400      8403      8395      8394      8397      8398
      8395      8394      8397      8399      8395      8394      8397      8400
      8396      8394      8397      8398      8396      8394      8397      8399
      8396      8394      8397      8400      8397      8400      8403      8404
      8397      8400      8403      8405      8397      8400      8403      8406
      8398      8397      8400      8401      8398      8397      8400      8402
      8398      8397      8400      8403      8399      8397      8400      8401
      8399      8397      8400      8402      8399      8397      8400      8403
      8400      8403      8406      8407      8400      8403      8406      8408
      8400      8403      8406      8409      8401      8400      8403      8404
      8401      8400      8403      8405      8401      8400      8403      8406
      8402      8400      8403      8404      8402      8400      8403      8405
      8402      8400      8403      8406      8403      8406      8409      8410
      8403      8406      8409      8411      8403      8406      8409      8412
      8404      8403      8406      8407      8404      8403      8406      8408
      8404      8403      8406      8409      8405      8403      8406      8407
      8405      8403      8406      8408      8405      8403      8406      8409
      8406      8409      8412      8413      8406      8409      8412      8414
      8406      8409      8412      8415      8407      8406      8409      8410
      8407      8406      8409      8411      8407      8406      8409      8412
      8408      8406      8409      8410      8408      8406      8409      8411
      8408      8406      8409      8412      8410      8409      8412      8413
      8410      8409      8412      8414      8410      8409      8412      8415
      8411      8409      8412      8413      8411      8409      8412      8414
      8411      8409      8412      8415      8416      8419      8422      8423
      8416      8419      8422      8424      8416      8419      8422      8425
      8417      8416      8419      8420      8417      8416      8419      8421
      8417      8416      8419      8422      8418      8416      8419      8420
      8418      8416      8419      8421      8418      8416      8419      8422
      8419      8422      8425      8426      8419      8422      8425      8427
      8419      8422      8425      8428      8420      8419      8422      8423
      8420      8419      8422      8424      8420      8419      8422      8425
      8421      8419      8422      8423      8421      8419      8422      8424
      8421      8419      8422      8425      8422      8425      8428      8429
      8422      8425      8428      8430      8422      8425      8428      8431
      8423      8422      8425      8426      8423      8422      8425      8427
      8423      8422      8425      8428      8424      8422      8425      8426
      8424      8422      8425      8427      8424      8422      8425      8428
      8425      8428      8431      8432      8425      8428      8431      8433
      8425      8428      8431      8434      8426      8425      8428      8429
      8426      8425      8428      8430      8426      8425      8428      8431
      8427      8425      8428      8429      8427      8425      8428      8430
      8427      8425      8428      8431      8428      8431      8434      8435
      8428      8431      8434      8436      8428      8431      8434      8437
      8429      8428      8431      8432      8429      8428      8431      8433
      8429      8428      8431      8434      8430      8428      8431      8432
      8430      8428      8431      8433      8430      8428      8431      8434
      8431      8434      8437      8438      8431      8434      8437      8439
      8431      8434      8437      8440      8432      8431      8434      8435
      8432      8431      8434      8436      8432      8431      8434      8437
      8433      8431      8434      8435      8433      8431      8434      8436
      8433      8431      8434      8437      8434      8437      8440      8441
      8434      8437      8440      8442      8434      8437      8440      8443
      8435      8434      8437      8438      8435      8434      8437      8439
      8435      8434      8437      8440      8436      8434      8437      8438
      8436      8434      8437      8439      8436      8434      8437      8440
      8437      8440      8443      8444      8437      8440      8443      8445
      8437      8440      8443      8446      8438      8437      8440      8441
      8438      8437      8440      8442      8438      8437      8440      8443
      8439      8437      8440      8441      8439      8437      8440      8442
      8439      8437      8440      8443      8440      8443      8446      8447
      8440      8443      8446      8448      8440      8443      8446      8449
      8441      8440      8443      8444      8441      8440      8443      8445
      8441      8440      8443      8446      8442      8440      8443      8444
      8442      8440      8443      8445      8442      8440      8443      8446
      8443      8446      8449      8450      8443      8446      8449      8451
      8443      8446      8449      8452      8444      8443      8446      8447
      8444      8443      8446      8448      8444      8443      8446      8449
      8445      8443      8446      8447      8445      8443      8446      8448
      8445      8443      8446      8449      8446      8449      8452      8453
      8446      8449      8452      8454      8446      8449      8452      8455
      8447      8446      8449      8450      8447      8446      8449      8451
      8447      8446      8449      8452      8448      8446      8449      8450
      8448      8446      8449      8451      8448      8446      8449      8452
      8449      8452      8455      8456      8449      8452      8455      8457
      8449      8452      8455      8458      8450      8449      8452      8453
      8450      8449      8452      8454      8450      8449      8452      8455
      8451      8449      8452      8453      8451      8449      8452      8454
      8451      8449      8452      8455      8453      8452      8455      8456
      8453      8452      8455      8457      8453      8452      8455      8458
      8454      8452      8455      8456      8454      8452      8455      8457
      8454      8452      8455      8458      8459      8460      8475      8476
      8459      8460      8475      8477      8459      8460      8475      8481
      8460      8459      8463      8464      8460      8459      8463      8465
      8460      8459      8463      8466      8460      8459      8467      8468
      8460      8459      8467      8469      8460      8459      8467      8470
      8460      8459      8471      8472      8460      8459      8471      8473
      8460      8459      8471      8474      8460      8475      8481      8478
      8461      8460      8459      8463      8461      8460      8459      8467
      8461      8460      8459      8471      8461      8460      8475      8476
      8461      8460      8475      8477      8461      8460      8475      8481
      8462      8460      8459      8463      8462      8460      8459      8467
      8462      8460      8459      8471      8462      8460      8475      8476
      8462      8460      8475      8477      8462      8460      8475      8481
      8463      8459      8460      8475      8463      8459      8467      8468
      8463      8459      8467      8469      8463      8459      8467      8470
      8463      8459      8471      8472      8463      8459      8471      8473
      8463      8459      8471      8474      8464      8463      8459      8467
      8464      8463      8459      8471      8465      8463      8459      8467
      8465      8463      8459      8471      8466      8463      8459      8467
      8466      8463      8459      8471      8467      8459      8460      8475
      8467      8459      8471      8472      8467      8459      8471      8473
      8467      8459      8471      8474      8468      8467      8459      8471
      8469      8467      8459      8471      8470      8467      8459      8471
      8471      8459      8460      8475      8475      8481      8478      8479
      8475      8481      8478      8480      8475      8481      8478      8482
      8476      8475      8481      8478      8477      8475      8481      8478
      8478      8482      8483      8484      8478      8482      8483      8485
      8478      8482      8483      8486      8479      8478      8482      8483
      8480      8478      8482      8483      8481      8478      8482      8483
      8482      8483      8486      8487      8482      8483      8486      8488
      8482      8483      8486      8494      8483      8486      8488      8489
      8483      8486      8494      8495      8483      8486      8494      8496
      8483      8486      8494      8497      8484      8483      8486      8487
      8484      8483      8486      8488      8484      8483      8486      8494
      8485      8483      8486      8487      8485      8483      8486      8488
      8485      8483      8486      8494      8486      8488      8489      8490
      8486      8488      8489      8491      8486      8494      8497      8498
      8487      8486      8488      8489      8487      8486      8494      8495
      8487      8486      8494      8496      8487      8486      8494      8497
      8488      8486      8494      8495      8488      8486      8494      8496
      8488      8486      8494      8497      8488      8489      8491      8492
      8488      8489      8491      8493      8488      8489      8491      8503
      8489      8488      8486      8494      8489      8491      8503      8504
      8489      8491      8503      8505      8489      8491      8503      8506
      8490      8489      8491      8492      8490      8489      8491      8493
      8490      8489      8491      8503      8491      8503      8506      8507
      8491      8503      8506      8508      8491      8503      8506      8509
      8492      8491      8503      8504      8492      8491      8503      8505
      8492      8491      8503      8506      8493      8491      8503      8504
      8493      8491      8503      8505      8493      8491      8503      8506
      8494      8497      8498      8499      8494      8497      8498      8500
      8495      8494      8497      8498      8496      8494      8497      8498
      8497      8498      8500      8501      8497      8498      8500      8502
      8497      8498      8500      8550      8498      8500      8550      8551
      8498      8500      8550      8552      8498      8500      8550      8553
      8499      8498      8500      8501      8499      8498      8500      8502
      8499      8498      8500      8550      8500      8550      8553      8554
      8500      8550      8553      8555      8500      8550      8553      8556
      8501      8500      8550      8551      8501      8500      8550      8552
      8501      8500      8550      8553      8502      8500      8550      8551
      8502      8500      8550      8552      8502      8500      8550      8553
      8503      8506      8509      8510      8503      8506      8509      8511
      8503      8506      8509      8512      8504      8503      8506      8507
      8504      8503      8506      8508      8504      8503      8506      8509
      8505      8503      8506      8507      8505      8503      8506      8508
      8505      8503      8506      8509      8506      8509      8512      8513
      8506      8509      8512      8514      8506      8509      8512      8515
      8507      8506      8509      8510      8507      8506      8509      8511
      8507      8506      8509      8512      8508      8506      8509      8510
      8508      8506      8509      8511      8508      8506      8509      8512
      8509      8512      8515      8516      8509      8512      8515      8517
      8509      8512      8515      8518      8510      8509      8512      8513
      8510      8509      8512      8514      8510      8509      8512      8515
      8511      8509      8512      8513      8511      8509      8512      8514
      8511      8509      8512      8515      8512      8515      8518      8519
      8512      8515      8518      8520      8512      8515      8518      8521
      8513      8512      8515      8516      8513      8512      8515      8517
      8513      8512      8515      8518      8514      8512      8515      8516
      8514      8512      8515      8517      8514      8512      8515      8518
      8515      8518      8521      8522      8515      8518      8521      8523
      8516      8515      8518      8519      8516      8515      8518      8520
      8516      8515      8518      8521      8517      8515      8518      8519
      8517      8515      8518      8520      8517      8515      8518      8521
      8518      8521      8523      8524      8518      8521      8523      8525
      8519      8518      8521      8522      8519      8518      8521      8523
      8520      8518      8521      8522      8520      8518      8521      8523
      8521      8523      8525      8526      8521      8523      8525      8527
      8521      8523      8525      8528      8522      8521      8523      8524
      8522      8521      8523      8525      8523      8525      8528      8529
      8523      8525      8528      8530      8523      8525      8528      8531
      8524      8523      8525      8526      8524      8523      8525      8527
      8524      8523      8525      8528      8525      8528      8531      8532
      8525      8528      8531      8533      8525      8528      8531      8534
      8526      8525      8528      8529      8526      8525      8528      8530
      8526      8525      8528      8531      8527      8525      8528      8529
      8527      8525      8528      8530      8527      8525      8528      8531
      8528      8531      8534      8535      8528      8531      8534      8536
      8528      8531      8534      8537      8529      8528      8531      8532
      8529      8528      8531      8533      8529      8528      8531      8534
      8530      8528      8531      8532      8530      8528      8531      8533
      8530      8528      8531      8534      8531      8534      8537      8538
      8531      8534      8537      8539      8531      8534      8537      8540
      8532      8531      8534      8535      8532      8531      8534      8536
      8532      8531      8534      8537      8533      8531      8534      8535
      8533      8531      8534      8536      8533      8531      8534      8537
      8534      8537      8540      8541      8534      8537      8540      8542
      8534      8537      8540      8543      8535      8534      8537      8538
      8535      8534      8537      8539      8535      8534      8537      8540
      8536      8534      8537      8538      8536      8534      8537      8539
      8536      8534      8537      8540      8537      8540      8543      8544
      8537      8540      8543      8545      8537      8540      8543      8546
      8538      8537      8540      8541      8538      8537      8540      8542
      8538      8537      8540      8543      8539      8537      8540      8541
      8539      8537      8540      8542      8539      8537      8540      8543
      8540      8543      8546      8547      8540      8543      8546      8548
      8540      8543      8546      8549      8541      8540      8543      8544
      8541      8540      8543      8545      8541      8540      8543      8546
      8542      8540      8543      8544      8542      8540      8543      8545
      8542      8540      8543      8546      8544      8543      8546      8547
      8544      8543      8546      8548      8544      8543      8546      8549
      8545      8543      8546      8547      8545      8543      8546      8548
      8545      8543      8546      8549      8550      8553      8556      8557
      8550      8553      8556      8558      8550      8553      8556      8559
      8551      8550      8553      8554      8551      8550      8553      8555
      8551      8550      8553      8556      8552      8550      8553      8554
      8552      8550      8553      8555      8552      8550      8553      8556
      8553      8556      8559      8560      8553      8556      8559      8561
      8553      8556      8559      8562      8554      8553      8556      8557
      8554      8553      8556      8558      8554      8553      8556      8559
      8555      8553      8556      8557      8555      8553      8556      8558
      8555      8553      8556      8559      8556      8559      8562      8563
      8556      8559      8562      8564      8556      8559      8562      8565
      8557      8556      8559      8560      8557      8556      8559      8561
      8557      8556      8559      8562      8558      8556      8559      8560
      8558      8556      8559      8561      8558      8556      8559      8562
      8559      8562      8565      8566      8559      8562      8565      8567
      8559      8562      8565      8568      8560      8559      8562      8563
      8560      8559      8562      8564      8560      8559      8562      8565
      8561      8559      8562      8563      8561      8559      8562      8564
      8561      8559      8562      8565      8562      8565      8568      8569
      8562      8565      8568      8570      8562      8565      8568      8571
      8563      8562      8565      8566      8563      8562      8565      8567
      8563      8562      8565      8568      8564      8562      8565      8566
      8564      8562      8565      8567      8564      8562      8565      8568
      8565      8568      8571      8572      8565      8568      8571      8573
      8565      8568      8571      8574      8566      8565      8568      8569
      8566      8565      8568      8570      8566      8565      8568      8571
      8567      8565      8568      8569      8567      8565      8568      8570
      8567      8565      8568      8571      8568      8571      8574      8575
      8568      8571      8574      8576      8568      8571      8574      8577
      8569      8568      8571      8572      8569      8568      8571      8573
      8569      8568      8571      8574      8570      8568      8571      8572
      8570      8568      8571      8573      8570      8568      8571      8574
      8571      8574      8577      8578      8571      8574      8577      8579
      8571      8574      8577      8580      8572      8571      8574      8575
      8572      8571      8574      8576      8572      8571      8574      8577
      8573      8571      8574      8575      8573      8571      8574      8576
      8573      8571      8574      8577      8574      8577      8580      8581
      8574      8577      8580      8582      8574      8577      8580      8583
      8575      8574      8577      8578      8575      8574      8577      8579
      8575      8574      8577      8580      8576      8574      8577      8578
      8576      8574      8577      8579      8576      8574      8577      8580
      8577      8580      8583      8584      8577      8580      8583      8585
      8577      8580      8583      8586      8578      8577      8580      8581
      8578      8577      8580      8582      8578      8577      8580      8583
      8579      8577      8580      8581      8579      8577      8580      8582
      8579      8577      8580      8583      8580      8583      8586      8587
      8580      8583      8586      8588      8580      8583      8586      8589
      8581      8580      8583      8584      8581      8580      8583      8585
      8581      8580      8583      8586      8582      8580      8583      8584
      8582      8580      8583      8585      8582      8580      8583      8586
      8583      8586      8589      8590      8583      8586      8589      8591
      8583      8586      8589      8592      8584      8583      8586      8587
      8584      8583      8586      8588      8584      8583      8586      8589
      8585      8583      8586      8587      8585      8583      8586      8588
      8585      8583      8586      8589      8587      8586      8589      8590
      8587      8586      8589      8591      8587      8586      8589      8592
      8588      8586      8589      8590      8588      8586      8589      8591
      8588      8586      8589      8592      8593      8594      8609      8610
      8593      8594      8609      8611      8593      8594      8609      8615
      8594      8593      8597      8598      8594      8593      8597      8599
      8594      8593      8597      8600      8594      8593      8601      8602
      8594      8593      8601      8603      8594      8593      8601      8604
      8594      8593      8605      8606      8594      8593      8605      8607
      8594      8593      8605      8608      8594      8609      8615      8612
      8595      8594      8593      8597      8595      8594      8593      8601
      8595      8594      8593      8605      8595      8594      8609      8610
      8595      8594      8609      8611      8595      8594      8609      8615
      8596      8594      8593      8597      8596      8594      8593      8601
      8596      8594      8593      8605      8596      8594      8609      8610
      8596      8594      8609      8611      8596      8594      8609      8615
      8597      8593      8594      8609      8597      8593      8601      8602
      8597      8593      8601      8603      8597      8593      8601      8604
      8597      8593      8605      8606      8597      8593      8605      8607
      8597      8593      8605      8608      8598      8597      8593      8601
      8598      8597      8593      8605      8599      8597      8593      8601
      8599      8597      8593      8605      8600      8597      8593      8601
      8600      8597      8593      8605      8601      8593      8594      8609
      8601      8593      8605      8606      8601      8593      8605      8607
      8601      8593      8605      8608      8602      8601      8593      8605
      8603      8601      8593      8605      8604      8601      8593      8605
      8605      8593      8594      8609      8609      8615      8612      8613
      8609      8615      8612      8614      8609      8615      8612      8616
      8610      8609      8615      8612      8611      8609      8615      8612
      8612      8616      8617      8618      8612      8616      8617      8619
      8612      8616      8617      8620      8613      8612      8616      8617
      8614      8612      8616      8617      8615      8612      8616      8617
      8616      8617      8620      8621      8616      8617      8620      8622
      8616      8617      8620      8628      8617      8620      8622      8623
      8617      8620      8628      8629      8617      8620      8628      8630
      8617      8620      8628      8631      8618      8617      8620      8621
      8618      8617      8620      8622      8618      8617      8620      8628
      8619      8617      8620      8621      8619      8617      8620      8622
      8619      8617      8620      8628      8620      8622      8623      8624
      8620      8622      8623      8625      8620      8628      8631      8632
      8621      8620      8622      8623      8621      8620      8628      8629
      8621      8620      8628      8630      8621      8620      8628      8631
      8622      8620      8628      8629      8622      8620      8628      8630
      8622      8620      8628      8631      8622      8623      8625      8626
      8622      8623      8625      8627      8622      8623      8625      8637
      8623      8622      8620      8628      8623      8625      8637      8638
      8623      8625      8637      8639      8623      8625      8637      8640
      8624      8623      8625      8626      8624      8623      8625      8627
      8624      8623      8625      8637      8625      8637      8640      8641
      8625      8637      8640      8642      8625      8637      8640      8643
      8626      8625      8637      8638      8626      8625      8637      8639
      8626      8625      8637      8640      8627      8625      8637      8638
      8627      8625      8637      8639      8627      8625      8637      8640
      8628      8631      8632      8633      8628      8631      8632      8634
      8629      8628      8631      8632      8630      8628      8631      8632
      8631      8632      8634      8635      8631      8632      8634      8636
      8631      8632      8634      8684      8632      8634      8684      8685
      8632      8634      8684      8686      8632      8634      8684      8687
      8633      8632      8634      8635      8633      8632      8634      8636
      8633      8632      8634      8684      8634      8684      8687      8688
      8634      8684      8687      8689      8634      8684      8687      8690
      8635      8634      8684      8685      8635      8634      8684      8686
      8635      8634      8684      8687      8636      8634      8684      8685
      8636      8634      8684      8686      8636      8634      8684      8687
      8637      8640      8643      8644      8637      8640      8643      8645
      8637      8640      8643      8646      8638      8637      8640      8641
      8638      8637      8640      8642      8638      8637      8640      8643
      8639      8637      8640      8641      8639      8637      8640      8642
      8639      8637      8640      8643      8640      8643      8646      8647
      8640      8643      8646      8648      8640      8643      8646      8649
      8641      8640      8643      8644      8641      8640      8643      8645
      8641      8640      8643      8646      8642      8640      8643      8644
      8642      8640      8643      8645      8642      8640      8643      8646
      8643      8646      8649      8650      8643      8646      8649      8651
      8643      8646      8649      8652      8644      8643      8646      8647
      8644      8643      8646      8648      8644      8643      8646      8649
      8645      8643      8646      8647      8645      8643      8646      8648
      8645      8643      8646      8649      8646      8649      8652      8653
      8646      8649      8652      8654      8646      8649      8652      8655
      8647      8646      8649      8650      8647      8646      8649      8651
      8647      8646      8649      8652      8648      8646      8649      8650
      8648      8646      8649      8651      8648      8646      8649      8652
      8649      8652      8655      8656      8649      8652      8655      8657
      8650      8649      8652      8653      8650      8649      8652      8654
      8650      8649      8652      8655      8651      8649      8652      8653
      8651      8649      8652      8654      8651      8649      8652      8655
      8652      8655      8657      8658      8652      8655      8657      8659
      8653      8652      8655      8656      8653      8652      8655      8657
      8654      8652      8655      8656      8654      8652      8655      8657
      8655      8657      8659      8660      8655      8657      8659      8661
      8655      8657      8659      8662      8656      8655      8657      8658
      8656      8655      8657      8659      8657      8659      8662      8663
      8657      8659      8662      8664      8657      8659      8662      8665
      8658      8657      8659      8660      8658      8657      8659      8661
      8658      8657      8659      8662      8659      8662      8665      8666
      8659      8662      8665      8667      8659      8662      8665      8668
      8660      8659      8662      8663      8660      8659      8662      8664
      8660      8659      8662      8665      8661      8659      8662      8663
      8661      8659      8662      8664      8661      8659      8662      8665
      8662      8665      8668      8669      8662      8665      8668      8670
      8662      8665      8668      8671      8663      8662      8665      8666
      8663      8662      8665      8667      8663      8662      8665      8668
      8664      8662      8665      8666      8664      8662      8665      8667
      8664      8662      8665      8668      8665      8668      8671      8672
      8665      8668      8671      8673      8665      8668      8671      8674
      8666      8665      8668      8669      8666      8665      8668      8670
      8666      8665      8668      8671      8667      8665      8668      8669
      8667      8665      8668      8670      8667      8665      8668      8671
      8668      8671      8674      8675      8668      8671      8674      8676
      8668      8671      8674      8677      8669      8668      8671      8672
      8669      8668      8671      8673      8669      8668      8671      8674
      8670      8668      8671      8672      8670      8668      8671      8673
      8670      8668      8671      8674      8671      8674      8677      8678
      8671      8674      8677      8679      8671      8674      8677      8680
      8672      8671      8674      8675      8672      8671      8674      8676
      8672      8671      8674      8677      8673      8671      8674      8675
      8673      8671      8674      8676      8673      8671      8674      8677
      8674      8677      8680      8681      8674      8677      8680      8682
      8674      8677      8680      8683      8675      8674      8677      8678
      8675      8674      8677      8679      8675      8674      8677      8680
      8676      8674      8677      8678      8676      8674      8677      8679
      8676      8674      8677      8680      8678      8677      8680      8681
      8678      8677      8680      8682      8678      8677      8680      8683
      8679      8677      8680      8681      8679      8677      8680      8682
      8679      8677      8680      8683      8684      8687      8690      8691
      8684      8687      8690      8692      8684      8687      8690      8693
      8685      8684      8687      8688      8685      8684      8687      8689
      8685      8684      8687      8690      8686      8684      8687      8688
      8686      8684      8687      8689      8686      8684      8687      8690
      8687      8690      8693      8694      8687      8690      8693      8695
      8687      8690      8693      8696      8688      8687      8690      8691
      8688      8687      8690      8692      8688      8687      8690      8693
      8689      8687      8690      8691      8689      8687      8690      8692
      8689      8687      8690      8693      8690      8693      8696      8697
      8690      8693      8696      8698      8690      8693      8696      8699
      8691      8690      8693      8694      8691      8690      8693      8695
      8691      8690      8693      8696      8692      8690      8693      8694
      8692      8690      8693      8695      8692      8690      8693      8696
      8693      8696      8699      8700      8693      8696      8699      8701
      8693      8696      8699      8702      8694      8693      8696      8697
      8694      8693      8696      8698      8694      8693      8696      8699
      8695      8693      8696      8697      8695      8693      8696      8698
      8695      8693      8696      8699      8696      8699      8702      8703
      8696      8699      8702      8704      8696      8699      8702      8705
      8697      8696      8699      8700      8697      8696      8699      8701
      8697      8696      8699      8702      8698      8696      8699      8700
      8698      8696      8699      8701      8698      8696      8699      8702
      8699      8702      8705      8706      8699      8702      8705      8707
      8699      8702      8705      8708      8700      8699      8702      8703
      8700      8699      8702      8704      8700      8699      8702      8705
      8701      8699      8702      8703      8701      8699      8702      8704
      8701      8699      8702      8705      8702      8705      8708      8709
      8702      8705      8708      8710      8702      8705      8708      8711
      8703      8702      8705      8706      8703      8702      8705      8707
      8703      8702      8705      8708      8704      8702      8705      8706
      8704      8702      8705      8707      8704      8702      8705      8708
      8705      8708      8711      8712      8705      8708      8711      8713
      8705      8708      8711      8714      8706      8705      8708      8709
      8706      8705      8708      8710      8706      8705      8708      8711
      8707      8705      8708      8709      8707      8705      8708      8710
      8707      8705      8708      8711      8708      8711      8714      8715
      8708      8711      8714      8716      8708      8711      8714      8717
      8709      8708      8711      8712      8709      8708      8711      8713
      8709      8708      8711      8714      8710      8708      8711      8712
      8710      8708      8711      8713      8710      8708      8711      8714
      8711      8714      8717      8718      8711      8714      8717      8719
      8711      8714      8717      8720      8712      8711      8714      8715
      8712      8711      8714      8716      8712      8711      8714      8717
      8713      8711      8714      8715      8713      8711      8714      8716
      8713      8711      8714      8717      8714      8717      8720      8721
      8714      8717      8720      8722      8714      8717      8720      8723
      8715      8714      8717      8718      8715      8714      8717      8719
      8715      8714      8717      8720      8716      8714      8717      8718
      8716      8714      8717      8719      8716      8714      8717      8720
      8717      8720      8723      8724      8717      8720      8723      8725
      8717      8720      8723      8726      8718      8717      8720      8721
      8718      8717      8720      8722      8718      8717      8720      8723
      8719      8717      8720      8721      8719      8717      8720      8722
      8719      8717      8720      8723      8721      8720      8723      8724
      8721      8720      8723      8725      8721      8720      8723      8726
      8722      8720      8723      8724      8722      8720      8723      8725
      8722      8720      8723      8726      8727      8728      8743      8744
      8727      8728      8743      8745      8727      8728      8743      8749
      8728      8727      8731      8732      8728      8727      8731      8733
      8728      8727      8731      8734      8728      8727      8735      8736
      8728      8727      8735      8737      8728      8727      8735      8738
      8728      8727      8739      8740      8728      8727      8739      8741
      8728      8727      8739      8742      8728      8743      8749      8746
      8729      8728      8727      8731      8729      8728      8727      8735
      8729      8728      8727      8739      8729      8728      8743      8744
      8729      8728      8743      8745      8729      8728      8743      8749
      8730      8728      8727      8731      8730      8728      8727      8735
      8730      8728      8727      8739      8730      8728      8743      8744
      8730      8728      8743      8745      8730      8728      8743      8749
      8731      8727      8728      8743      8731      8727      8735      8736
      8731      8727      8735      8737      8731      8727      8735      8738
      8731      8727      8739      8740      8731      8727      8739      8741
      8731      8727      8739      8742      8732      8731      8727      8735
      8732      8731      8727      8739      8733      8731      8727      8735
      8733      8731      8727      8739      8734      8731      8727      8735
      8734      8731      8727      8739      8735      8727      8728      8743
      8735      8727      8739      8740      8735      8727      8739      8741
      8735      8727      8739      8742      8736      8735      8727      8739
      8737      8735      8727      8739      8738      8735      8727      8739
      8739      8727      8728      8743      8743      8749      8746      8747
      8743      8749      8746      8748      8743      8749      8746      8750
      8744      8743      8749      8746      8745      8743      8749      8746
      8746      8750      8751      8752      8746      8750      8751      8753
      8746      8750      8751      8754      8747      8746      8750      8751
      8748      8746      8750      8751      8749      8746      8750      8751
      8750      8751      8754      8755      8750      8751      8754      8756
      8750      8751      8754      8762      8751      8754      8756      8757
      8751      8754      8762      8763      8751      8754      8762      8764
      8751      8754      8762      8765      8752      8751      8754      8755
      8752      8751      8754      8756      8752      8751      8754      8762
      8753      8751      8754      8755      8753      8751      8754      8756
      8753      8751      8754      8762      8754      8756      8757      8758
      8754      8756      8757      8759      8754      8762      8765      8766
      8755      8754      8756      8757      8755      8754      8762      8763
      8755      8754      8762      8764      8755      8754      8762      8765
      8756      8754      8762      8763      8756      8754      8762      8764
      8756      8754      8762      8765      8756      8757      8759      8760
      8756      8757      8759      8761      8756      8757      8759      8771
      8757      8756      8754      8762      8757      8759      8771      8772
      8757      8759      8771      8773      8757      8759      8771      8774
      8758      8757      8759      8760      8758      8757      8759      8761
      8758      8757      8759      8771      8759      8771      8774      8775
      8759      8771      8774      8776      8759      8771      8774      8777
      8760      8759      8771      8772      8760      8759      8771      8773
      8760      8759      8771      8774      8761      8759      8771      8772
      8761      8759      8771      8773      8761      8759      8771      8774
      8762      8765      8766      8767      8762      8765      8766      8768
      8763      8762      8765      8766      8764      8762      8765      8766
      8765      8766      8768      8769      8765      8766      8768      8770
      8765      8766      8768      8818      8766      8768      8818      8819
      8766      8768      8818      8820      8766      8768      8818      8821
      8767      8766      8768      8769      8767      8766      8768      8770
      8767      8766      8768      8818      8768      8818      8821      8822
      8768      8818      8821      8823      8768      8818      8821      8824
      8769      8768      8818      8819      8769      8768      8818      8820
      8769      8768      8818      8821      8770      8768      8818      8819
      8770      8768      8818      8820      8770      8768      8818      8821
      8771      8774      8777      8778      8771      8774      8777      8779
      8771      8774      8777      8780      8772      8771      8774      8775
      8772      8771      8774      8776      8772      8771      8774      8777
      8773      8771      8774      8775      8773      8771      8774      8776
      8773      8771      8774      8777      8774      8777      8780      8781
      8774      8777      8780      8782      8774      8777      8780      8783
      8775      8774      8777      8778      8775      8774      8777      8779
      8775      8774      8777      8780      8776      8774      8777      8778
      8776      8774      8777      8779      8776      8774      8777      8780
      8777      8780      8783      8784      8777      8780      8783      8785
      8777      8780      8783      8786      8778      8777      8780      8781
      8778      8777      8780      8782      8778      8777      8780      8783
      8779      8777      8780      8781      8779      8777      8780      8782
      8779      8777      8780      8783      8780      8783      8786      8787
      8780      8783      8786      8788      8780      8783      8786      8789
      8781      8780      8783      8784      8781      8780      8783      8785
      8781      8780      8783      8786      8782      8780      8783      8784
      8782      8780      8783      8785      8782      8780      8783      8786
      8783      8786      8789      8790      8783      8786      8789      8791
      8784      8783      8786      8787      8784      8783      8786      8788
      8784      8783      8786      8789      8785      8783      8786      8787
      8785      8783      8786      8788      8785      8783      8786      8789
      8786      8789      8791      8792      8786      8789      8791      8793
      8787      8786      8789      8790      8787      8786      8789      8791
      8788      8786      8789      8790      8788      8786      8789      8791
      8789      8791      8793      8794      8789      8791      8793      8795
      8789      8791      8793      8796      8790      8789      8791      8792
      8790      8789      8791      8793      8791      8793      8796      8797
      8791      8793      8796      8798      8791      8793      8796      8799
      8792      8791      8793      8794      8792      8791      8793      8795
      8792      8791      8793      8796      8793      8796      8799      8800
      8793      8796      8799      8801      8793      8796      8799      8802
      8794      8793      8796      8797      8794      8793      8796      8798
      8794      8793      8796      8799      8795      8793      8796      8797
      8795      8793      8796      8798      8795      8793      8796      8799
      8796      8799      8802      8803      8796      8799      8802      8804
      8796      8799      8802      8805      8797      8796      8799      8800
      8797      8796      8799      8801      8797      8796      8799      8802
      8798      8796      8799      8800      8798      8796      8799      8801
      8798      8796      8799      8802      8799      8802      8805      8806
      8799      8802      8805      8807      8799      8802      8805      8808
      8800      8799      8802      8803      8800      8799      8802      8804
      8800      8799      8802      8805      8801      8799      8802      8803
      8801      8799      8802      8804      8801      8799      8802      8805
      8802      8805      8808      8809      8802      8805      8808      8810
      8802      8805      8808      8811      8803      8802      8805      8806
      8803      8802      8805      8807      8803      8802      8805      8808
      8804      8802      8805      8806      8804      8802      8805      8807
      8804      8802      8805      8808      8805      8808      8811      8812
      8805      8808      8811      8813      8805      8808      8811      8814
      8806      8805      8808      8809      8806      8805      8808      8810
      8806      8805      8808      8811      8807      8805      8808      8809
      8807      8805      8808      8810      8807      8805      8808      8811
      8808      8811      8814      8815      8808      8811      8814      8816
      8808      8811      8814      8817      8809      8808      8811      8812
      8809      8808      8811      8813      8809      8808      8811      8814
      8810      8808      8811      8812      8810      8808      8811      8813
      8810      8808      8811      8814      8812      8811      8814      8815
      8812      8811      8814      8816      8812      8811      8814      8817
      8813      8811      8814      8815      8813      8811      8814      8816
      8813      8811      8814      8817      8818      8821      8824      8825
      8818      8821      8824      8826      8818      8821      8824      8827
      8819      8818      8821      8822      8819      8818      8821      8823
      8819      8818      8821      8824      8820      8818      8821      8822
      8820      8818      8821      8823      8820      8818      8821      8824
      8821      8824      8827      8828      8821      8824      8827      8829
      8821      8824      8827      8830      8822      8821      8824      8825
      8822      8821      8824      8826      8822      8821      8824      8827
      8823      8821      8824      8825      8823      8821      8824      8826
      8823      8821      8824      8827      8824      8827      8830      8831
      8824      8827      8830      8832      8824      8827      8830      8833
      8825      8824      8827      8828      8825      8824      8827      8829
      8825      8824      8827      8830      8826      8824      8827      8828
      8826      8824      8827      8829      8826      8824      8827      8830
      8827      8830      8833      8834      8827      8830      8833      8835
      8827      8830      8833      8836      8828      8827      8830      8831
      8828      8827      8830      8832      8828      8827      8830      8833
      8829      8827      8830      8831      8829      8827      8830      8832
      8829      8827      8830      8833      8830      8833      8836      8837
      8830      8833      8836      8838      8830      8833      8836      8839
      8831      8830      8833      8834      8831      8830      8833      8835
      8831      8830      8833      8836      8832      8830      8833      8834
      8832      8830      8833      8835      8832      8830      8833      8836
      8833      8836      8839      8840      8833      8836      8839      8841
      8833      8836      8839      8842      8834      8833      8836      8837
      8834      8833      8836      8838      8834      8833      8836      8839
      8835      8833      8836      8837      8835      8833      8836      8838
      8835      8833      8836      8839      8836      8839      8842      8843
      8836      8839      8842      8844      8836      8839      8842      8845
      8837      8836      8839      8840      8837      8836      8839      8841
      8837      8836      8839      8842      8838      8836      8839      8840
      8838      8836      8839      8841      8838      8836      8839      8842
      8839      8842      8845      8846      8839      8842      8845      8847
      8839      8842      8845      8848      8840      8839      8842      8843
      8840      8839      8842      8844      8840      8839      8842      8845
      8841      8839      8842      8843      8841      8839      8842      8844
      8841      8839      8842      8845      8842      8845      8848      8849
      8842      8845      8848      8850      8842      8845      8848      8851
      8843      8842      8845      8846      8843      8842      8845      8847
      8843      8842      8845      8848      8844      8842      8845      8846
      8844      8842      8845      8847      8844      8842      8845      8848
      8845      8848      8851      8852      8845      8848      8851      8853
      8845      8848      8851      8854      8846      8845      8848      8849
      8846      8845      8848      8850      8846      8845      8848      8851
      8847      8845      8848      8849      8847      8845      8848      8850
      8847      8845      8848      8851      8848      8851      8854      8855
      8848      8851      8854      8856      8848      8851      8854      8857
      8849      8848      8851      8852      8849      8848      8851      8853
      8849      8848      8851      8854      8850      8848      8851      8852
      8850      8848      8851      8853      8850      8848      8851      8854
      8851      8854      8857      8858      8851      8854      8857      8859
      8851      8854      8857      8860      8852      8851      8854      8855
      8852      8851      8854      8856      8852      8851      8854      8857
      8853      8851      8854      8855      8853      8851      8854      8856
      8853      8851      8854      8857      8855      8854      8857      8858
      8855      8854      8857      8859      8855      8854      8857      8860
      8856      8854      8857      8858      8856      8854      8857      8859
      8856      8854      8857      8860      8861      8862      8877      8878
      8861      8862      8877      8879      8861      8862      8877      8883
      8862      8861      8865      8866      8862      8861      8865      8867
      8862      8861      8865      8868      8862      8861      8869      8870
      8862      8861      8869      8871      8862      8861      8869      8872
      8862      8861      8873      8874      8862      8861      8873      8875
      8862      8861      8873      8876      8862      8877      8883      8880
      8863      8862      8861      8865      8863      8862      8861      8869
      8863      8862      8861      8873      8863      8862      8877      8878
      8863      8862      8877      8879      8863      8862      8877      8883
      8864      8862      8861      8865      8864      8862      8861      8869
      8864      8862      8861      8873      8864      8862      8877      8878
      8864      8862      8877      8879      8864      8862      8877      8883
      8865      8861      8862      8877      8865      8861      8869      8870
      8865      8861      8869      8871      8865      8861      8869      8872
      8865      8861      8873      8874      8865      8861      8873      8875
      8865      8861      8873      8876      8866      8865      8861      8869
      8866      8865      8861      8873      8867      8865      8861      8869
      8867      8865      8861      8873      8868      8865      8861      8869
      8868      8865      8861      8873      8869      8861      8862      8877
      8869      8861      8873      8874      8869      8861      8873      8875
      8869      8861      8873      8876      8870      8869      8861      8873
      8871      8869      8861      8873      8872      8869      8861      8873
      8873      8861      8862      8877      8877      8883      8880      8881
      8877      8883      8880      8882      8877      8883      8880      8884
      8878      8877      8883      8880      8879      8877      8883      8880
      8880      8884      8885      8886      8880      8884      8885      8887
      8880      8884      8885      8888      8881      8880      8884      8885
      8882      8880      8884      8885      8883      8880      8884      8885
      8884      8885      8888      8889      8884      8885      8888      8890
      8884      8885      8888      8896      8885      8888      8890      8891
      8885      8888      8896      8897      8885      8888      8896      8898
      8885      8888      8896      8899      8886      8885      8888      8889
      8886      8885      8888      8890      8886      8885      8888      8896
      8887      8885      8888      8889      8887      8885      8888      8890
      8887      8885      8888      8896      8888      8890      8891      8892
      8888      8890      8891      8893      8888      8896      8899      8900
      8889      8888      8890      8891      8889      8888      8896      8897
      8889      8888      8896      8898      8889      8888      8896      8899
      8890      8888      8896      8897      8890      8888      8896      8898
      8890      8888      8896      8899      8890      8891      8893      8894
      8890      8891      8893      8895      8890      8891      8893      8905
      8891      8890      8888      8896      8891      8893      8905      8906
      8891      8893      8905      8907      8891      8893      8905      8908
      8892      8891      8893      8894      8892      8891      8893      8895
      8892      8891      8893      8905      8893      8905      8908      8909
      8893      8905      8908      8910      8893      8905      8908      8911
      8894      8893      8905      8906      8894      8893      8905      8907
      8894      8893      8905      8908      8895      8893      8905      8906
      8895      8893      8905      8907      8895      8893      8905      8908
      8896      8899      8900      8901      8896      8899      8900      8902
      8897      8896      8899      8900      8898      8896      8899      8900
      8899      8900      8902      8903      8899      8900      8902      8904
      8899      8900      8902      8952      8900      8902      8952      8953
      8900      8902      8952      8954      8900      8902      8952      8955
      8901      8900      8902      8903      8901      8900      8902      8904
      8901      8900      8902      8952      8902      8952      8955      8956
      8902      8952      8955      8957      8902      8952      8955      8958
      8903      8902      8952      8953      8903      8902      8952      8954
      8903      8902      8952      8955      8904      8902      8952      8953
      8904      8902      8952      8954      8904      8902      8952      8955
      8905      8908      8911      8912      8905      8908      8911      8913
      8905      8908      8911      8914      8906      8905      8908      8909
      8906      8905      8908      8910      8906      8905      8908      8911
      8907      8905      8908      8909      8907      8905      8908      8910
      8907      8905      8908      8911      8908      8911      8914      8915
      8908      8911      8914      8916      8908      8911      8914      8917
      8909      8908      8911      8912      8909      8908      8911      8913
      8909      8908      8911      8914      8910      8908      8911      8912
      8910      8908      8911      8913      8910      8908      8911      8914
      8911      8914      8917      8918      8911      8914      8917      8919
      8911      8914      8917      8920      8912      8911      8914      8915
      8912      8911      8914      8916      8912      8911      8914      8917
      8913      8911      8914      8915      8913      8911      8914      8916
      8913      8911      8914      8917      8914      8917      8920      8921
      8914      8917      8920      8922      8914      8917      8920      8923
      8915      8914      8917      8918      8915      8914      8917      8919
      8915      8914      8917      8920      8916      8914      8917      8918
      8916      8914      8917      8919      8916      8914      8917      8920
      8917      8920      8923      8924      8917      8920      8923      8925
      8918      8917      8920      8921      8918      8917      8920      8922
      8918      8917      8920      8923      8919      8917      8920      8921
      8919      8917      8920      8922      8919      8917      8920      8923
      8920      8923      8925      8926      8920      8923      8925      8927
      8921      8920      8923      8924      8921      8920      8923      8925
      8922      8920      8923      8924      8922      8920      8923      8925
      8923      8925      8927      8928      8923      8925      8927      8929
      8923      8925      8927      8930      8924      8923      8925      8926
      8924      8923      8925      8927      8925      8927      8930      8931
      8925      8927      8930      8932      8925      8927      8930      8933
      8926      8925      8927      8928      8926      8925      8927      8929
      8926      8925      8927      8930      8927      8930      8933      8934
      8927      8930      8933      8935      8927      8930      8933      8936
      8928      8927      8930      8931      8928      8927      8930      8932
      8928      8927      8930      8933      8929      8927      8930      8931
      8929      8927      8930      8932      8929      8927      8930      8933
      8930      8933      8936      8937      8930      8933      8936      8938
      8930      8933      8936      8939      8931      8930      8933      8934
      8931      8930      8933      8935      8931      8930      8933      8936
      8932      8930      8933      8934      8932      8930      8933      8935
      8932      8930      8933      8936      8933      8936      8939      8940
      8933      8936      8939      8941      8933      8936      8939      8942
      8934      8933      8936      8937      8934      8933      8936      8938
      8934      8933      8936      8939      8935      8933      8936      8937
      8935      8933      8936      8938      8935      8933      8936      8939
      8936      8939      8942      8943      8936      8939      8942      8944
      8936      8939      8942      8945      8937      8936      8939      8940
      8937      8936      8939      8941      8937      8936      8939      8942
      8938      8936      8939      8940      8938      8936      8939      8941
      8938      8936      8939      8942      8939      8942      8945      8946
      8939      8942      8945      8947      8939      8942      8945      8948
      8940      8939      8942      8943      8940      8939      8942      8944
      8940      8939      8942      8945      8941      8939      8942      8943
      8941      8939      8942      8944      8941      8939      8942      8945
      8942      8945      8948      8949      8942      8945      8948      8950
      8942      8945      8948      8951      8943      8942      8945      8946
      8943      8942      8945      8947      8943      8942      8945      8948
      8944      8942      8945      8946      8944      8942      8945      8947
      8944      8942      8945      8948      8946      8945      8948      8949
      8946      8945      8948      8950      8946      8945      8948      8951
      8947      8945      8948      8949      8947      8945      8948      8950
      8947      8945      8948      8951      8952      8955      8958      8959
      8952      8955      8958      8960      8952      8955      8958      8961
      8953      8952      8955      8956      8953      8952      8955      8957
      8953      8952      8955      8958      8954      8952      8955      8956
      8954      8952      8955      8957      8954      8952      8955      8958
      8955      8958      8961      8962      8955      8958      8961      8963
      8955      8958      8961      8964      8956      8955      8958      8959
      8956      8955      8958      8960      8956      8955      8958      8961
      8957      8955      8958      8959      8957      8955      8958      8960
      8957      8955      8958      8961      8958      8961      8964      8965
      8958      8961      8964      8966      8958      8961      8964      8967
      8959      8958      8961      8962      8959      8958      8961      8963
      8959      8958      8961      8964      8960      8958      8961      8962
      8960      8958      8961      8963      8960      8958      8961      8964
      8961      8964      8967      8968      8961      8964      8967      8969
      8961      8964      8967      8970      8962      8961      8964      8965
      8962      8961      8964      8966      8962      8961      8964      8967
      8963      8961      8964      8965      8963      8961      8964      8966
      8963      8961      8964      8967      8964      8967      8970      8971
      8964      8967      8970      8972      8964      8967      8970      8973
      8965      8964      8967      8968      8965      8964      8967      8969
      8965      8964      8967      8970      8966      8964      8967      8968
      8966      8964      8967      8969      8966      8964      8967      8970
      8967      8970      8973      8974      8967      8970      8973      8975
      8967      8970      8973      8976      8968      8967      8970      8971
      8968      8967      8970      8972      8968      8967      8970      8973
      8969      8967      8970      8971      8969      8967      8970      8972
      8969      8967      8970      8973      8970      8973      8976      8977
      8970      8973      8976      8978      8970      8973      8976      8979
      8971      8970      8973      8974      8971      8970      8973      8975
      8971      8970      8973      8976      8972      8970      8973      8974
      8972      8970      8973      8975      8972      8970      8973      8976
      8973      8976      8979      8980      8973      8976      8979      8981
      8973      8976      8979      8982      8974      8973      8976      8977
      8974      8973      8976      8978      8974      8973      8976      8979
      8975      8973      8976      8977      8975      8973      8976      8978
      8975      8973      8976      8979      8976      8979      8982      8983
      8976      8979      8982      8984      8976      8979      8982      8985
      8977      8976      8979      8980      8977      8976      8979      8981
      8977      8976      8979      8982      8978      8976      8979      8980
      8978      8976      8979      8981      8978      8976      8979      8982
      8979      8982      8985      8986      8979      8982      8985      8987
      8979      8982      8985      8988      8980      8979      8982      8983
      8980      8979      8982      8984      8980      8979      8982      8985
      8981      8979      8982      8983      8981      8979      8982      8984
      8981      8979      8982      8985      8982      8985      8988      8989
      8982      8985      8988      8990      8982      8985      8988      8991
      8983      8982      8985      8986      8983      8982      8985      8987
      8983      8982      8985      8988      8984      8982      8985      8986
      8984      8982      8985      8987      8984      8982      8985      8988
      8985      8988      8991      8992      8985      8988      8991      8993
      8985      8988      8991      8994      8986      8985      8988      8989
      8986      8985      8988      8990      8986      8985      8988      8991
      8987      8985      8988      8989      8987      8985      8988      8990
      8987      8985      8988      8991      8989      8988      8991      8992
      8989      8988      8991      8993      8989      8988      8991      8994
      8990      8988      8991      8992      8990      8988      8991      8993
      8990      8988      8991      8994      8995      8996      9011      9012
      8995      8996      9011      9013      8995      8996      9011      9017
      8996      8995      8999      9000      8996      8995      8999      9001
      8996      8995      8999      9002      8996      8995      9003      9004
      8996      8995      9003      9005      8996      8995      9003      9006
      8996      8995      9007      9008      8996      8995      9007      9009
      8996      8995      9007      9010      8996      9011      9017      9014
      8997      8996      8995      8999      8997      8996      8995      9003
      8997      8996      8995      9007      8997      8996      9011      9012
      8997      8996      9011      9013      8997      8996      9011      9017
      8998      8996      8995      8999      8998      8996      8995      9003
      8998      8996      8995      9007      8998      8996      9011      9012
      8998      8996      9011      9013      8998      8996      9011      9017
      8999      8995      8996      9011      8999      8995      9003      9004
      8999      8995      9003      9005      8999      8995      9003      9006
      8999      8995      9007      9008      8999      8995      9007      9009
      8999      8995      9007      9010      9000      8999      8995      9003
      9000      8999      8995      9007      9001      8999      8995      9003
      9001      8999      8995      9007      9002      8999      8995      9003
      9002      8999      8995      9007      9003      8995      8996      9011
      9003      8995      9007      9008      9003      8995      9007      9009
      9003      8995      9007      9010      9004      9003      8995      9007
      9005      9003      8995      9007      9006      9003      8995      9007
      9007      8995      8996      9011      9011      9017      9014      9015
      9011      9017      9014      9016      9011      9017      9014      9018
      9012      9011      9017      9014      9013      9011      9017      9014
      9014      9018      9019      9020      9014      9018      9019      9021
      9014      9018      9019      9022      9015      9014      9018      9019
      9016      9014      9018      9019      9017      9014      9018      9019
      9018      9019      9022      9023      9018      9019      9022      9024
      9018      9019      9022      9030      9019      9022      9024      9025
      9019      9022      9030      9031      9019      9022      9030      9032
      9019      9022      9030      9033      9020      9019      9022      9023
      9020      9019      9022      9024      9020      9019      9022      9030
      9021      9019      9022      9023      9021      9019      9022      9024
      9021      9019      9022      9030      9022      9024      9025      9026
      9022      9024      9025      9027      9022      9030      9033      9034
      9023      9022      9024      9025      9023      9022      9030      9031
      9023      9022      9030      9032      9023      9022      9030      9033
      9024      9022      9030      9031      9024      9022      9030      9032
      9024      9022      9030      9033      9024      9025      9027      9028
      9024      9025      9027      9029      9024      9025      9027      9039
      9025      9024      9022      9030      9025      9027      9039      9040
      9025      9027      9039      9041      9025      9027      9039      9042
      9026      9025      9027      9028      9026      9025      9027      9029
      9026      9025      9027      9039      9027      9039      9042      9043
      9027      9039      9042      9044      9027      9039      9042      9045
      9028      9027      9039      9040      9028      9027      9039      9041
      9028      9027      9039      9042      9029      9027      9039      9040
      9029      9027      9039      9041      9029      9027      9039      9042
      9030      9033      9034      9035      9030      9033      9034      9036
      9031      9030      9033      9034      9032      9030      9033      9034
      9033      9034      9036      9037      9033      9034      9036      9038
      9033      9034      9036      9086      9034      9036      9086      9087
      9034      9036      9086      9088      9034      9036      9086      9089
      9035      9034      9036      9037      9035      9034      9036      9038
      9035      9034      9036      9086      9036      9086      9089      9090
      9036      9086      9089      9091      9036      9086      9089      9092
      9037      9036      9086      9087      9037      9036      9086      9088
      9037      9036      9086      9089      9038      9036      9086      9087
      9038      9036      9086      9088      9038      9036      9086      9089
      9039      9042      9045      9046      9039      9042      9045      9047
      9039      9042      9045      9048      9040      9039      9042      9043
      9040      9039      9042      9044      9040      9039      9042      9045
      9041      9039      9042      9043      9041      9039      9042      9044
      9041      9039      9042      9045      9042      9045      9048      9049
      9042      9045      9048      9050      9042      9045      9048      9051
      9043      9042      9045      9046      9043      9042      9045      9047
      9043      9042      9045      9048      9044      9042      9045      9046
      9044      9042      9045      9047      9044      9042      9045      9048
      9045      9048      9051      9052      9045      9048      9051      9053
      9045      9048      9051      9054      9046      9045      9048      9049
      9046      9045      9048      9050      9046      9045      9048      9051
      9047      9045      9048      9049      9047      9045      9048      9050
      9047      9045      9048      9051      9048      9051      9054      9055
      9048      9051      9054      9056      9048      9051      9054      9057
      9049      9048      9051      9052      9049      9048      9051      9053
      9049      9048      9051      9054      9050      9048      9051      9052
      9050      9048      9051      9053      9050      9048      9051      9054
      9051      9054      9057      9058      9051      9054      9057      9059
      9052      9051      9054      9055      9052      9051      9054      9056
      9052      9051      9054      9057      9053      9051      9054      9055
      9053      9051      9054      9056      9053      9051      9054      9057
      9054      9057      9059      9060      9054      9057      9059      9061
      9055      9054      9057      9058      9055      9054      9057      9059
      9056      9054      9057      9058      9056      9054      9057      9059
      9057      9059      9061      9062      9057      9059      9061      9063
      9057      9059      9061      9064      9058      9057      9059      9060
      9058      9057      9059      9061      9059      9061      9064      9065
      9059      9061      9064      9066      9059      9061      9064      9067
      9060      9059      9061      9062      9060      9059      9061      9063
      9060      9059      9061      9064      9061      9064      9067      9068
      9061      9064      9067      9069      9061      9064      9067      9070
      9062      9061      9064      9065      9062      9061      9064      9066
      9062      9061      9064      9067      9063      9061      9064      9065
      9063      9061      9064      9066      9063      9061      9064      9067
      9064      9067      9070      9071      9064      9067      9070      9072
      9064      9067      9070      9073      9065      9064      9067      9068
      9065      9064      9067      9069      9065      9064      9067      9070
      9066      9064      9067      9068      9066      9064      9067      9069
      9066      9064      9067      9070      9067      9070      9073      9074
      9067      9070      9073      9075      9067      9070      9073      9076
      9068      9067      9070      9071      9068      9067      9070      9072
      9068      9067      9070      9073      9069      9067      9070      9071
      9069      9067      9070      9072      9069      9067      9070      9073
      9070      9073      9076      9077      9070      9073      9076      9078
      9070      9073      9076      9079      9071      9070      9073      9074
      9071      9070      9073      9075      9071      9070      9073      9076
      9072      9070      9073      9074      9072      9070      9073      9075
      9072      9070      9073      9076      9073      9076      9079      9080
      9073      9076      9079      9081      9073      9076      9079      9082
      9074      9073      9076      9077      9074      9073      9076      9078
      9074      9073      9076      9079      9075      9073      9076      9077
      9075      9073      9076      9078      9075      9073      9076      9079
      9076      9079      9082      9083      9076      9079      9082      9084
      9076      9079      9082      9085      9077      9076      9079      9080
      9077      9076      9079      9081      9077      9076      9079      9082
      9078      9076      9079      9080      9078      9076      9079      9081
      9078      9076      9079      9082      9080      9079      9082      9083
      9080      9079      9082      9084      9080      9079      9082      9085
      9081      9079      9082      9083      9081      9079      9082      9084
      9081      9079      9082      9085      9086      9089      9092      9093
      9086      9089      9092      9094      9086      9089      9092      9095
      9087      9086      9089      9090      9087      9086      9089      9091
      9087      9086      9089      9092      9088      9086      9089      9090
      9088      9086      9089      9091      9088      9086      9089      9092
      9089      9092      9095      9096      9089      9092      9095      9097
      9089      9092      9095      9098      9090      9089      9092      9093
      9090      9089      9092      9094      9090      9089      9092      9095
      9091      9089      9092      9093      9091      9089      9092      9094
      9091      9089      9092      9095      9092      9095      9098      9099
      9092      9095      9098      9100      9092      9095      9098      9101
      9093      9092      9095      9096      9093      9092      9095      9097
      9093      9092      9095      9098      9094      9092      9095      9096
      9094      9092      9095      9097      9094      9092      9095      9098
      9095      9098      9101      9102      9095      9098      9101      9103
      9095      9098      9101      9104      9096      9095      9098      9099
      9096      9095      9098      9100      9096      9095      9098      9101
      9097      9095      9098      9099      9097      9095      9098      9100
      9097      9095      9098      9101      9098      9101      9104      9105
      9098      9101      9104      9106      9098      9101      9104      9107
      9099      9098      9101      9102      9099      9098      9101      9103
      9099      9098      9101      9104      9100      9098      9101      9102
      9100      9098      9101      9103      9100      9098      9101      9104
      9101      9104      9107      9108      9101      9104      9107      9109
      9101      9104      9107      9110      9102      9101      9104      9105
      9102      9101      9104      9106      9102      9101      9104      9107
      9103      9101      9104      9105      9103      9101      9104      9106
      9103      9101      9104      9107      9104      9107      9110      9111
      9104      9107      9110      9112      9104      9107      9110      9113
      9105      9104      9107      9108      9105      9104      9107      9109
      9105      9104      9107      9110      9106      9104      9107      9108
      9106      9104      9107      9109      9106      9104      9107      9110
      9107      9110      9113      9114      9107      9110      9113      9115
      9107      9110      9113      9116      9108      9107      9110      9111
      9108      9107      9110      9112      9108      9107      9110      9113
      9109      9107      9110      9111      9109      9107      9110      9112
      9109      9107      9110      9113      9110      9113      9116      9117
      9110      9113      9116      9118      9110      9113      9116      9119
      9111      9110      9113      9114      9111      9110      9113      9115
      9111      9110      9113      9116      9112      9110      9113      9114
      9112      9110      9113      9115      9112      9110      9113      9116
      9113      9116      9119      9120      9113      9116      9119      9121
      9113      9116      9119      9122      9114      9113      9116      9117
      9114      9113      9116      9118      9114      9113      9116      9119
      9115      9113      9116      9117      9115      9113      9116      9118
      9115      9113      9116      9119      9116      9119      9122      9123
      9116      9119      9122      9124      9116      9119      9122      9125
      9117      9116      9119      9120      9117      9116      9119      9121
      9117      9116      9119      9122      9118      9116      9119      9120
      9118      9116      9119      9121      9118      9116      9119      9122
      9119      9122      9125      9126      9119      9122      9125      9127
      9119      9122      9125      9128      9120      9119      9122      9123
      9120      9119      9122      9124      9120      9119      9122      9125
      9121      9119      9122      9123      9121      9119      9122      9124
      9121      9119      9122      9125      9123      9122      9125      9126
      9123      9122      9125      9127      9123      9122      9125      9128
      9124      9122      9125      9126      9124      9122      9125      9127
      9124      9122      9125      9128      9129      9130      9145      9146
      9129      9130      9145      9147      9129      9130      9145      9151
      9130      9129      9133      9134      9130      9129      9133      9135
      9130      9129      9133      9136      9130      9129      9137      9138
      9130      9129      9137      9139      9130      9129      9137      9140
      9130      9129      9141      9142      9130      9129      9141      9143
      9130      9129      9141      9144      9130      9145      9151      9148
      9131      9130      9129      9133      9131      9130      9129      9137
      9131      9130      9129      9141      9131      9130      9145      9146
      9131      9130      9145      9147      9131      9130      9145      9151
      9132      9130      9129      9133      9132      9130      9129      9137
      9132      9130      9129      9141      9132      9130      9145      9146
      9132      9130      9145      9147      9132      9130      9145      9151
      9133      9129      9130      9145      9133      9129      9137      9138
      9133      9129      9137      9139      9133      9129      9137      9140
      9133      9129      9141      9142      9133      9129      9141      9143
      9133      9129      9141      9144      9134      9133      9129      9137
      9134      9133      9129      9141      9135      9133      9129      9137
      9135      9133      9129      9141      9136      9133      9129      9137
      9136      9133      9129      9141      9137      9129      9130      9145
      9137      9129      9141      9142      9137      9129      9141      9143
      9137      9129      9141      9144      9138      9137      9129      9141
      9139      9137      9129      9141      9140      9137      9129      9141
      9141      9129      9130      9145      9145      9151      9148      9149
      9145      9151      9148      9150      9145      9151      9148      9152
      9146      9145      9151      9148      9147      9145      9151      9148
      9148      9152      9153      9154      9148      9152      9153      9155
      9148      9152      9153      9156      9149      9148      9152      9153
      9150      9148      9152      9153      9151      9148      9152      9153
      9152      9153      9156      9157      9152      9153      9156      9158
      9152      9153      9156      9164      9153      9156      9158      9159
      9153      9156      9164      9165      9153      9156      9164      9166
      9153      9156      9164      9167      9154      9153      9156      9157
      9154      9153      9156      9158      9154      9153      9156      9164
      9155      9153      9156      9157      9155      9153      9156      9158
      9155      9153      9156      9164      9156      9158      9159      9160
      9156      9158      9159      9161      9156      9164      9167      9168
      9157      9156      9158      9159      9157      9156      9164      9165
      9157      9156      9164      9166      9157      9156      9164      9167
      9158      9156      9164      9165      9158      9156      9164      9166
      9158      9156      9164      9167      9158      9159      9161      9162
      9158      9159      9161      9163      9158      9159      9161      9173
      9159      9158      9156      9164      9159      9161      9173      9174
      9159      9161      9173      9175      9159      9161      9173      9176
      9160      9159      9161      9162      9160      9159      9161      9163
      9160      9159      9161      9173      9161      9173      9176      9177
      9161      9173      9176      9178      9161      9173      9176      9179
      9162      9161      9173      9174      9162      9161      9173      9175
      9162      9161      9173      9176      9163      9161      9173      9174
      9163      9161      9173      9175      9163      9161      9173      9176
      9164      9167      9168      9169      9164      9167      9168      9170
      9165      9164      9167      9168      9166      9164      9167      9168
      9167      9168      9170      9171      9167      9168      9170      9172
      9167      9168      9170      9220      9168      9170      9220      9221
      9168      9170      9220      9222      9168      9170      9220      9223
      9169      9168      9170      9171      9169      9168      9170      9172
      9169      9168      9170      9220      9170      9220      9223      9224
      9170      9220      9223      9225      9170      9220      9223      9226
      9171      9170      9220      9221      9171      9170      9220      9222
      9171      9170      9220      9223      9172      9170      9220      9221
      9172      9170      9220      9222      9172      9170      9220      9223
      9173      9176      9179      9180      9173      9176      9179      9181
      9173      9176      9179      9182      9174      9173      9176      9177
      9174      9173      9176      9178      9174      9173      9176      9179
      9175      9173      9176      9177      9175      9173      9176      9178
      9175      9173      9176      9179      9176      9179      9182      9183
      9176      9179      9182      9184      9176      9179      9182      9185
      9177      9176      9179      9180      9177      9176      9179      9181
      9177      9176      9179      9182      9178      9176      9179      9180
      9178      9176      9179      9181      9178      9176      9179      9182
      9179      9182      9185      9186      9179      9182      9185      9187
      9179      9182      9185      9188      9180      9179      9182      9183
      9180      9179      9182      9184      9180      9179      9182      9185
      9181      9179      9182      9183      9181      9179      9182      9184
      9181      9179      9182      9185      9182      9185      9188      9189
      9182      9185      9188      9190      9182      9185      9188      9191
      9183      9182      9185      9186      9183      9182      9185      9187
      9183      9182      9185      9188      9184      9182      9185      9186
      9184      9182      9185      9187      9184      9182      9185      9188
      9185      9188      9191      9192      9185      9188      9191      9193
      9186      9185      9188      9189      9186      9185      9188      9190
      9186      9185      9188      9191      9187      9185      9188      9189
      9187      9185      9188      9190      9187      9185      9188      9191
      9188      9191      9193      9194      9188      9191      9193      9195
      9189      9188      9191      9192      9189      9188      9191      9193
      9190      9188      9191      9192      9190      9188      9191      9193
      9191      9193      9195      9196      9191      9193      9195      9197
      9191      9193      9195      9198      9192      9191      9193      9194
      9192      9191      9193      9195      9193      9195      9198      9199
      9193      9195      9198      9200      9193      9195      9198      9201
      9194      9193      9195      9196      9194      9193      9195      9197
      9194      9193      9195      9198      9195      9198      9201      9202
      9195      9198      9201      9203      9195      9198      9201      9204
      9196      9195      9198      9199      9196      9195      9198      9200
      9196      9195      9198      9201      9197      9195      9198      9199
      9197      9195      9198      9200      9197      9195      9198      9201
      9198      9201      9204      9205      9198      9201      9204      9206
      9198      9201      9204      9207      9199      9198      9201      9202
      9199      9198      9201      9203      9199      9198      9201      9204
      9200      9198      9201      9202      9200      9198      9201      9203
      9200      9198      9201      9204      9201      9204      9207      9208
      9201      9204      9207      9209      9201      9204      9207      9210
      9202      9201      9204      9205      9202      9201      9204      9206
      9202      9201      9204      9207      9203      9201      9204      9205
      9203      9201      9204      9206      9203      9201      9204      9207
      9204      9207      9210      9211      9204      9207      9210      9212
      9204      9207      9210      9213      9205      9204      9207      9208
      9205      9204      9207      9209      9205      9204      9207      9210
      9206      9204      9207      9208      9206      9204      9207      9209
      9206      9204      9207      9210      9207      9210      9213      9214
      9207      9210      9213      9215      9207      9210      9213      9216
      9208      9207      9210      9211      9208      9207      9210      9212
      9208      9207      9210      9213      9209      9207      9210      9211
      9209      9207      9210      9212      9209      9207      9210      9213
      9210      9213      9216      9217      9210      9213      9216      9218
      9210      9213      9216      9219      9211      9210      9213      9214
      9211      9210      9213      9215      9211      9210      9213      9216
      9212      9210      9213      9214      9212      9210      9213      9215
      9212      9210      9213      9216      9214      9213      9216      9217
      9214      9213      9216      9218      9214      9213      9216      9219
      9215      9213      9216      9217      9215      9213      9216      9218
      9215      9213      9216      9219      9220      9223      9226      9227
      9220      9223      9226      9228      9220      9223      9226      9229
      9221      9220      9223      9224      9221      9220      9223      9225
      9221      9220      9223      9226      9222      9220      9223      9224
      9222      9220      9223      9225      9222      9220      9223      9226
      9223      9226      9229      9230      9223      9226      9229      9231
      9223      9226      9229      9232      9224      9223      9226      9227
      9224      9223      9226      9228      9224      9223      9226      9229
      9225      9223      9226      9227      9225      9223      9226      9228
      9225      9223      9226      9229      9226      9229      9232      9233
      9226      9229      9232      9234      9226      9229      9232      9235
      9227      9226      9229      9230      9227      9226      9229      9231
      9227      9226      9229      9232      9228      9226      9229      9230
      9228      9226      9229      9231      9228      9226      9229      9232
      9229      9232      9235      9236      9229      9232      9235      9237
      9229      9232      9235      9238      9230      9229      9232      9233
      9230      9229      9232      9234      9230      9229      9232      9235
      9231      9229      9232      9233      9231      9229      9232      9234
      9231      9229      9232      9235      9232      9235      9238      9239
      9232      9235      9238      9240      9232      9235      9238      9241
      9233      9232      9235      9236      9233      9232      9235      9237
      9233      9232      9235      9238      9234      9232      9235      9236
      9234      9232      9235      9237      9234      9232      9235      9238
      9235      9238      9241      9242      9235      9238      9241      9243
      9235      9238      9241      9244      9236      9235      9238      9239
      9236      9235      9238      9240      9236      9235      9238      9241
      9237      9235      9238      9239      9237      9235      9238      9240
      9237      9235      9238      9241      9238      9241      9244      9245
      9238      9241      9244      9246      9238      9241      9244      9247
      9239      9238      9241      9242      9239      9238      9241      9243
      9239      9238      9241      9244      9240      9238      9241      9242
      9240      9238      9241      9243      9240      9238      9241      9244
      9241      9244      9247      9248      9241      9244      9247      9249
      9241      9244      9247      9250      9242      9241      9244      9245
      9242      9241      9244      9246      9242      9241      9244      9247
      9243      9241      9244      9245      9243      9241      9244      9246
      9243      9241      9244      9247      9244      9247      9250      9251
      9244      9247      9250      9252      9244      9247      9250      9253
      9245      9244      9247      9248      9245      9244      9247      9249
      9245      9244      9247      9250      9246      9244      9247      9248
      9246      9244      9247      9249      9246      9244      9247      9250
      9247      9250      9253      9254      9247      9250      9253      9255
      9247      9250      9253      9256      9248      9247      9250      9251
      9248      9247      9250      9252      9248      9247      9250      9253
      9249      9247      9250      9251      9249      9247      9250      9252
      9249      9247      9250      9253      9250      9253      9256      9257
      9250      9253      9256      9258      9250      9253      9256      9259
      9251      9250      9253      9254      9251      9250      9253      9255
      9251      9250      9253      9256      9252      9250      9253      9254
      9252      9250      9253      9255      9252      9250      9253      9256
      9253      9256      9259      9260      9253      9256      9259      9261
      9253      9256      9259      9262      9254      9253      9256      9257
      9254      9253      9256      9258      9254      9253      9256      9259
      9255      9253      9256      9257      9255      9253      9256      9258
      9255      9253      9256      9259      9257      9256      9259      9260
      9257      9256      9259      9261      9257      9256      9259      9262
      9258      9256      9259      9260      9258      9256      9259      9261
      9258      9256      9259      9262      9263      9264      9279      9280
      9263      9264      9279      9281      9263      9264      9279      9285
      9264      9263      9267      9268      9264      9263      9267      9269
      9264      9263      9267      9270      9264      9263      9271      9272
      9264      9263      9271      9273      9264      9263      9271      9274
      9264      9263      9275      9276      9264      9263      9275      9277
      9264      9263      9275      9278      9264      9279      9285      9282
      9265      9264      9263      9267      9265      9264      9263      9271
      9265      9264      9263      9275      9265      9264      9279      9280
      9265      9264      9279      9281      9265      9264      9279      9285
      9266      9264      9263      9267      9266      9264      9263      9271
      9266      9264      9263      9275      9266      9264      9279      9280
      9266      9264      9279      9281      9266      9264      9279      9285
      9267      9263      9264      9279      9267      9263      9271      9272
      9267      9263      9271      9273      9267      9263      9271      9274
      9267      9263      9275      9276      9267      9263      9275      9277
      9267      9263      9275      9278      9268      9267      9263      9271
      9268      9267      9263      9275      9269      9267      9263      9271
      9269      9267      9263      9275      9270      9267      9263      9271
      9270      9267      9263      9275      9271      9263      9264      9279
      9271      9263      9275      9276      9271      9263      9275      9277
      9271      9263      9275      9278      9272      9271      9263      9275
      9273      9271      9263      9275      9274      9271      9263      9275
      9275      9263      9264      9279      9279      9285      9282      9283
      9279      9285      9282      9284      9279      9285      9282      9286
      9280      9279      9285      9282      9281      9279      9285      9282
      9282      9286      9287      9288      9282      9286      9287      9289
      9282      9286      9287      9290      9283      9282      9286      9287
      9284      9282      9286      9287      9285      9282      9286      9287
      9286      9287      9290      9291      9286      9287      9290      9292
      9286      9287      9290      9298      9287      9290      9292      9293
      9287      9290      9298      9299      9287      9290      9298      9300
      9287      9290      9298      9301      9288      9287      9290      9291
      9288      9287      9290      9292      9288      9287      9290      9298
      9289      9287      9290      9291      9289      9287      9290      9292
      9289      9287      9290      9298      9290      9292      9293      9294
      9290      9292      9293      9295      9290      9298      9301      9302
      9291      9290      9292      9293      9291      9290      9298      9299
      9291      9290      9298      9300      9291      9290      9298      9301
      9292      9290      9298      9299      9292      9290      9298      9300
      9292      9290      9298      9301      9292      9293      9295      9296
      9292      9293      9295      9297      9292      9293      9295      9307
      9293      9292      9290      9298      9293      9295      9307      9308
      9293      9295      9307      9309      9293      9295      9307      9310
      9294      9293      9295      9296      9294      9293      9295      9297
      9294      9293      9295      9307      9295      9307      9310      9311
      9295      9307      9310      9312      9295      9307      9310      9313
      9296      9295      9307      9308      9296      9295      9307      9309
      9296      9295      9307      9310      9297      9295      9307      9308
      9297      9295      9307      9309      9297      9295      9307      9310
      9298      9301      9302      9303      9298      9301      9302      9304
      9299      9298      9301      9302      9300      9298      9301      9302
      9301      9302      9304      9305      9301      9302      9304      9306
      9301      9302      9304      9354      9302      9304      9354      9355
      9302      9304      9354      9356      9302      9304      9354      9357
      9303      9302      9304      9305      9303      9302      9304      9306
      9303      9302      9304      9354      9304      9354      9357      9358
      9304      9354      9357      9359      9304      9354      9357      9360
      9305      9304      9354      9355      9305      9304      9354      9356
      9305      9304      9354      9357      9306      9304      9354      9355
      9306      9304      9354      9356      9306      9304      9354      9357
      9307      9310      9313      9314      9307      9310      9313      9315
      9307      9310      9313      9316      9308      9307      9310      9311
      9308      9307      9310      9312      9308      9307      9310      9313
      9309      9307      9310      9311      9309      9307      9310      9312
      9309      9307      9310      9313      9310      9313      9316      9317
      9310      9313      9316      9318      9310      9313      9316      9319
      9311      9310      9313      9314      9311      9310      9313      9315
      9311      9310      9313      9316      9312      9310      9313      9314
      9312      9310      9313      9315      9312      9310      9313      9316
      9313      9316      9319      9320      9313      9316      9319      9321
      9313      9316      9319      9322      9314      9313      9316      9317
      9314      9313      9316      9318      9314      9313      9316      9319
      9315      9313      9316      9317      9315      9313      9316      9318
      9315      9313      9316      9319      9316      9319      9322      9323
      9316      9319      9322      9324      9316      9319      9322      9325
      9317      9316      9319      9320      9317      9316      9319      9321
      9317      9316      9319      9322      9318      9316      9319      9320
      9318      9316      9319      9321      9318      9316      9319      9322
      9319      9322      9325      9326      9319      9322      9325      9327
      9320      9319      9322      9323      9320      9319      9322      9324
      9320      9319      9322      9325      9321      9319      9322      9323
      9321      9319      9322      9324      9321      9319      9322      9325
      9322      9325      9327      9328      9322      9325      9327      9329
      9323      9322      9325      9326      9323      9322      9325      9327
      9324      9322      9325      9326      9324      9322      9325      9327
      9325      9327      9329      9330      9325      9327      9329      9331
      9325      9327      9329      9332      9326      9325      9327      9328
      9326      9325      9327      9329      9327      9329      9332      9333
      9327      9329      9332      9334      9327      9329      9332      9335
      9328      9327      9329      9330      9328      9327      9329      9331
      9328      9327      9329      9332      9329      9332      9335      9336
      9329      9332      9335      9337      9329      9332      9335      9338
      9330      9329      9332      9333      9330      9329      9332      9334
      9330      9329      9332      9335      9331      9329      9332      9333
      9331      9329      9332      9334      9331      9329      9332      9335
      9332      9335      9338      9339      9332      9335      9338      9340
      9332      9335      9338      9341      9333      9332      9335      9336
      9333      9332      9335      9337      9333      9332      9335      9338
      9334      9332      9335      9336      9334      9332      9335      9337
      9334      9332      9335      9338      9335      9338      9341      9342
      9335      9338      9341      9343      9335      9338      9341      9344
      9336      9335      9338      9339      9336      9335      9338      9340
      9336      9335      9338      9341      9337      9335      9338      9339
      9337      9335      9338      9340      9337      9335      9338      9341
      9338      9341      9344      9345      9338      9341      9344      9346
      9338      9341      9344      9347      9339      9338      9341      9342
      9339      9338      9341      9343      9339      9338      9341      9344
      9340      9338      9341      9342      9340      9338      9341      9343
      9340      9338      9341      9344      9341      9344      9347      9348
      9341      9344      9347      9349      9341      9344      9347      9350
      9342      9341      9344      9345      9342      9341      9344      9346
      9342      9341      9344      9347      9343      9341      9344      9345
      9343      9341      9344      9346      9343      9341      9344      9347
      9344      9347      9350      9351      9344      9347      9350      9352
      9344      9347      9350      9353      9345      9344      9347      9348
      9345      9344      9347      9349      9345      9344      9347      9350
      9346      9344      9347      9348      9346      9344      9347      9349
      9346      9344      9347      9350      9348      9347      9350      9351
      9348      9347      9350      9352      9348      9347      9350      9353
      9349      9347      9350      9351      9349      9347      9350      9352
      9349      9347      9350      9353      9354      9357      9360      9361
      9354      9357      9360      9362      9354      9357      9360      9363
      9355      9354      9357      9358      9355      9354      9357      9359
      9355      9354      9357      9360      9356      9354      9357      9358
      9356      9354      9357      9359      9356      9354      9357      9360
      9357      9360      9363      9364      9357      9360      9363      9365
      9357      9360      9363      9366      9358      9357      9360      9361
      9358      9357      9360      9362      9358      9357      9360      9363
      9359      9357      9360      9361      9359      9357      9360      9362
      9359      9357      9360      9363      9360      9363      9366      9367
      9360      9363      9366      9368      9360      9363      9366      9369
      9361      9360      9363      9364      9361      9360      9363      9365
      9361      9360      9363      9366      9362      9360      9363      9364
      9362      9360      9363      9365      9362      9360      9363      9366
      9363      9366      9369      9370      9363      9366      9369      9371
      9363      9366      9369      9372      9364      9363      9366      9367
      9364      9363      9366      9368      9364      9363      9366      9369
      9365      9363      9366      9367      9365      9363      9366      9368
      9365      9363      9366      9369      9366      9369      9372      9373
      9366      9369      9372      9374      9366      9369      9372      9375
      9367      9366      9369      9370      9367      9366      9369      9371
      9367      9366      9369      9372      9368      9366      9369      9370
      9368      9366      9369      9371      9368      9366      9369      9372
      9369      9372      9375      9376      9369      9372      9375      9377
      9369      9372      9375      9378      9370      9369      9372      9373
      9370      9369      9372      9374      9370      9369      9372      9375
      9371      9369      9372      9373      9371      9369      9372      9374
      9371      9369      9372      9375      9372      9375      9378      9379
      9372      9375      9378      9380      9372      9375      9378      9381
      9373      9372      9375      9376      9373      9372      9375      9377
      9373      9372      9375      9378      9374      9372      9375      9376
      9374      9372      9375      9377      9374      9372      9375      9378
      9375      9378      9381      9382      9375      9378      9381      9383
      9375      9378      9381      9384      9376      9375      9378      9379
      9376      9375      9378      9380      9376      9375      9378      9381
      9377      9375      9378      9379      9377      9375      9378      9380
      9377      9375      9378      9381      9378      9381      9384      9385
      9378      9381      9384      9386      9378      9381      9384      9387
      9379      9378      9381      9382      9379      9378      9381      9383
      9379      9378      9381      9384      9380      9378      9381      9382
      9380      9378      9381      9383      9380      9378      9381      9384
      9381      9384      9387      9388      9381      9384      9387      9389
      9381      9384      9387      9390      9382      9381      9384      9385
      9382      9381      9384      9386      9382      9381      9384      9387
      9383      9381      9384      9385      9383      9381      9384      9386
      9383      9381      9384      9387      9384      9387      9390      9391
      9384      9387      9390      9392      9384      9387      9390      9393
      9385      9384      9387      9388      9385      9384      9387      9389
      9385      9384      9387      9390      9386      9384      9387      9388
      9386      9384      9387      9389      9386      9384      9387      9390
      9387      9390      9393      9394      9387      9390      9393      9395
      9387      9390      9393      9396      9388      9387      9390      9391
      9388      9387      9390      9392      9388      9387      9390      9393
      9389      9387      9390      9391      9389      9387      9390      9392
      9389      9387      9390      9393      9391      9390      9393      9394
      9391      9390      9393      9395      9391      9390      9393      9396
      9392      9390      9393      9394      9392      9390      9393      9395
      9392      9390      9393      9396      9397      9398      9413      9414
      9397      9398      9413      9415      9397      9398      9413      9419
      9398      9397      9401      9402      9398      9397      9401      9403
      9398      9397      9401      9404      9398      9397      9405      9406
      9398      9397      9405      9407      9398      9397      9405      9408
      9398      9397      9409      9410      9398      9397      9409      9411
      9398      9397      9409      9412      9398      9413      9419      9416
      9399      9398      9397      9401      9399      9398      9397      9405
      9399      9398      9397      9409      9399      9398      9413      9414
      9399      9398      9413      9415      9399      9398      9413      9419
      9400      9398      9397      9401      9400      9398      9397      9405
      9400      9398      9397      9409      9400      9398      9413      9414
      9400      9398      9413      9415      9400      9398      9413      9419
      9401      9397      9398      9413      9401      9397      9405      9406
      9401      9397      9405      9407      9401      9397      9405      9408
      9401      9397      9409      9410      9401      9397      9409      9411
      9401      9397      9409      9412      9402      9401      9397      9405
      9402      9401      9397      9409      9403      9401      9397      9405
      9403      9401      9397      9409      9404      9401      9397      9405
      9404      9401      9397      9409      9405      9397      9398      9413
      9405      9397      9409      9410      9405      9397      9409      9411
      9405      9397      9409      9412      9406      9405      9397      9409
      9407      9405      9397      9409      9408      9405      9397      9409
      9409      9397      9398      9413      9413      9419      9416      9417
      9413      9419      9416      9418      9413      9419      9416      9420
      9414      9413      9419      9416      9415      9413      9419      9416
      9416      9420      9421      9422      9416      9420      9421      9423
      9416      9420      9421      9424      9417      9416      9420      9421
      9418      9416      9420      9421      9419      9416      9420      9421
      9420      9421      9424      9425      9420      9421      9424      9426
      9420      9421      9424      9432      9421      9424      9426      9427
      9421      9424      9432      9433      9421      9424      9432      9434
      9421      9424      9432      9435      9422      9421      9424      9425
      9422      9421      9424      9426      9422      9421      9424      9432
      9423      9421      9424      9425      9423      9421      9424      9426
      9423      9421      9424      9432      9424      9426      9427      9428
      9424      9426      9427      9429      9424      9432      9435      9436
      9425      9424      9426      9427      9425      9424      9432      9433
      9425      9424      9432      9434      9425      9424      9432      9435
      9426      9424      9432      9433      9426      9424      9432      9434
      9426      9424      9432      9435      9426      9427      9429      9430
      9426      9427      9429      9431      9426      9427      9429      9441
      9427      9426      9424      9432      9427      9429      9441      9442
      9427      9429      9441      9443      9427      9429      9441      9444
      9428      9427      9429      9430      9428      9427      9429      9431
      9428      9427      9429      9441      9429      9441      9444      9445
      9429      9441      9444      9446      9429      9441      9444      9447
      9430      9429      9441      9442      9430      9429      9441      9443
      9430      9429      9441      9444      9431      9429      9441      9442
      9431      9429      9441      9443      9431      9429      9441      9444
      9432      9435      9436      9437      9432      9435      9436      9438
      9433      9432      9435      9436      9434      9432      9435      9436
      9435      9436      9438      9439      9435      9436      9438      9440
      9435      9436      9438      9488      9436      9438      9488      9489
      9436      9438      9488      9490      9436      9438      9488      9491
      9437      9436      9438      9439      9437      9436      9438      9440
      9437      9436      9438      9488      9438      9488      9491      9492
      9438      9488      9491      9493      9438      9488      9491      9494
      9439      9438      9488      9489      9439      9438      9488      9490
      9439      9438      9488      9491      9440      9438      9488      9489
      9440      9438      9488      9490      9440      9438      9488      9491
      9441      9444      9447      9448      9441      9444      9447      9449
      9441      9444      9447      9450      9442      9441      9444      9445
      9442      9441      9444      9446      9442      9441      9444      9447
      9443      9441      9444      9445      9443      9441      9444      9446
      9443      9441      9444      9447      9444      9447      9450      9451
      9444      9447      9450      9452      9444      9447      9450      9453
      9445      9444      9447      9448      9445      9444      9447      9449
      9445      9444      9447      9450      9446      9444      9447      9448
      9446      9444      9447      9449      9446      9444      9447      9450
      9447      9450      9453      9454      9447      9450      9453      9455
      9447      9450      9453      9456      9448      9447      9450      9451
      9448      9447      9450      9452      9448      9447      9450      9453
      9449      9447      9450      9451      9449      9447      9450      9452
      9449      9447      9450      9453      9450      9453      9456      9457
      9450      9453      9456      9458      9450      9453      9456      9459
      9451      9450      9453      9454      9451      9450      9453      9455
      9451      9450      9453      9456      9452      9450      9453      9454
      9452      9450      9453      9455      9452      9450      9453      9456
      9453      9456      9459      9460      9453      9456      9459      9461
      9454      9453      9456      9457      9454      9453      9456      9458
      9454      9453      9456      9459      9455      9453      9456      9457
      9455      9453      9456      9458      9455      9453      9456      9459
      9456      9459      9461      9462      9456      9459      9461      9463
      9457      9456      9459      9460      9457      9456      9459      9461
      9458      9456      9459      9460      9458      9456      9459      9461
      9459      9461      9463      9464      9459      9461      9463      9465
      9459      9461      9463      9466      9460      9459      9461      9462
      9460      9459      9461      9463      9461      9463      9466      9467
      9461      9463      9466      9468      9461      9463      9466      9469
      9462      9461      9463      9464      9462      9461      9463      9465
      9462      9461      9463      9466      9463      9466      9469      9470
      9463      9466      9469      9471      9463      9466      9469      9472
      9464      9463      9466      9467      9464      9463      9466      9468
      9464      9463      9466      9469      9465      9463      9466      9467
      9465      9463      9466      9468      9465      9463      9466      9469
      9466      9469      9472      9473      9466      9469      9472      9474
      9466      9469      9472      9475      9467      9466      9469      9470
      9467      9466      9469      9471      9467      9466      9469      9472
      9468      9466      9469      9470      9468      9466      9469      9471
      9468      9466      9469      9472      9469      9472      9475      9476
      9469      9472      9475      9477      9469      9472      9475      9478
      9470      9469      9472      9473      9470      9469      9472      9474
      9470      9469      9472      9475      9471      9469      9472      9473
      9471      9469      9472      9474      9471      9469      9472      9475
      9472      9475      9478      9479      9472      9475      9478      9480
      9472      9475      9478      9481      9473      9472      9475      9476
      9473      9472      9475      9477      9473      9472      9475      9478
      9474      9472      9475      9476      9474      9472      9475      9477
      9474      9472      9475      9478      9475      9478      9481      9482
      9475      9478      9481      9483      9475      9478      9481      9484
      9476      9475      9478      9479      9476      9475      9478      9480
      9476      9475      9478      9481      9477      9475      9478      9479
      9477      9475      9478      9480      9477      9475      9478      9481
      9478      9481      9484      9485      9478      9481      9484      9486
      9478      9481      9484      9487      9479      9478      9481      9482
      9479      9478      9481      9483      9479      9478      9481      9484
      9480      9478      9481      9482      9480      9478      9481      9483
      9480      9478      9481      9484      9482      9481      9484      9485
      9482      9481      9484      9486      9482      9481      9484      9487
      9483      9481      9484      9485      9483      9481      9484      9486
      9483      9481      9484      9487      9488      9491      9494      9495
      9488      9491      9494      9496      9488      9491      9494      9497
      9489      9488      9491      9492      9489      9488      9491      9493
      9489      9488      9491      9494      9490      9488      9491      9492
      9490      9488      9491      9493      9490      9488      9491      9494
      9491      9494      9497      9498      9491      9494      9497      9499
      9491      9494      9497      9500      9492      9491      9494      9495
      9492      9491      9494      9496      9492      9491      9494      9497
      9493      9491      9494      9495      9493      9491      9494      9496
      9493      9491      9494      9497      9494      9497      9500      9501
      9494      9497      9500      9502      9494      9497      9500      9503
      9495      9494      9497      9498      9495      9494      9497      9499
      9495      9494      9497      9500      9496      9494      9497      9498
      9496      9494      9497      9499      9496      9494      9497      9500
      9497      9500      9503      9504      9497      9500      9503      9505
      9497      9500      9503      9506      9498      9497      9500      9501
      9498      9497      9500      9502      9498      9497      9500      9503
      9499      9497      9500      9501      9499      9497      9500      9502
      9499      9497      9500      9503      9500      9503      9506      9507
      9500      9503      9506      9508      9500      9503      9506      9509
      9501      9500      9503      9504      9501      9500      9503      9505
      9501      9500      9503      9506      9502      9500      9503      9504
      9502      9500      9503      9505      9502      9500      9503      9506
      9503      9506      9509      9510      9503      9506      9509      9511
      9503      9506      9509      9512      9504      9503      9506      9507
      9504      9503      9506      9508      9504      9503      9506      9509
      9505      9503      9506      9507      9505      9503      9506      9508
      9505      9503      9506      9509      9506      9509      9512      9513
      9506      9509      9512      9514      9506      9509      9512      9515
      9507      9506      9509      9510      9507      9506      9509      9511
      9507      9506      9509      9512      9508      9506      9509      9510
      9508      9506      9509      9511      9508      9506      9509      9512
      9509      9512      9515      9516      9509      9512      9515      9517
      9509      9512      9515      9518      9510      9509      9512      9513
      9510      9509      9512      9514      9510      9509      9512      9515
      9511      9509      9512      9513      9511      9509      9512      9514
      9511      9509      9512      9515      9512      9515      9518      9519
      9512      9515      9518      9520      9512      9515      9518      9521
      9513      9512      9515      9516      9513      9512      9515      9517
      9513      9512      9515      9518      9514      9512      9515      9516
      9514      9512      9515      9517      9514      9512      9515      9518
      9515      9518      9521      9522      9515      9518      9521      9523
      9515      9518      9521      9524      9516      9515      9518      9519
      9516      9515      9518      9520      9516      9515      9518      9521
      9517      9515      9518      9519      9517      9515      9518      9520
      9517      9515      9518      9521      9518      9521      9524      9525
      9518      9521      9524      9526      9518      9521      9524      9527
      9519      9518      9521      9522      9519      9518      9521      9523
      9519      9518      9521      9524      9520      9518      9521      9522
      9520      9518      9521      9523      9520      9518      9521      9524
      9521      9524      9527      9528      9521      9524      9527      9529
      9521      9524      9527      9530      9522      9521      9524      9525
      9522      9521      9524      9526      9522      9521      9524      9527
      9523      9521      9524      9525      9523      9521      9524      9526
      9523      9521      9524      9527      9525      9524      9527      9528
      9525      9524      9527      9529      9525      9524      9527      9530
      9526      9524      9527      9528      9526      9524      9527      9529
      9526      9524      9527      9530      9531      9532      9547      9548
      9531      9532      9547      9549      9531      9532      9547      9553
      9532      9531      9535      9536      9532      9531      9535      9537
      9532      9531      9535      9538      9532      9531      9539      9540
      9532      9531      9539      9541      9532      9531      9539      9542
      9532      9531      9543      9544      9532      9531      9543      9545
      9532      9531      9543      9546      9532      9547      9553      9550
      9533      9532      9531      9535      9533      9532      9531      9539
      9533      9532      9531      9543      9533      9532      9547      9548
      9533      9532      9547      9549      9533      9532      9547      9553
      9534      9532      9531      9535      9534      9532      9531      9539
      9534      9532      9531      9543      9534      9532      9547      9548
      9534      9532      9547      9549      9534      9532      9547      9553
      9535      9531      9532      9547      9535      9531      9539      9540
      9535      9531      9539      9541      9535      9531      9539      9542
      9535      9531      9543      9544      9535      9531      9543      9545
      9535      9531      9543      9546      9536      9535      9531      9539
      9536      9535      9531      9543      9537      9535      9531      9539
      9537      9535      9531      9543      9538      9535      9531      9539
      9538      9535      9531      9543      9539      9531      9532      9547
      9539      9531      9543      9544      9539      9531      9543      9545
      9539      9531      9543      9546      9540      9539      9531      9543
      9541      9539      9531      9543      9542      9539      9531      9543
      9543      9531      9532      9547      9547      9553      9550      9551
      9547      9553      9550      9552      9547      9553      9550      9554
      9548      9547      9553      9550      9549      9547      9553      9550
      9550      9554      9555      9556      9550      9554      9555      9557
      9550      9554      9555      9558      9551      9550      9554      9555
      9552      9550      9554      9555      9553      9550      9554      9555
      9554      9555      9558      9559      9554      9555      9558      9560
      9554      9555      9558      9566      9555      9558      9560      9561
      9555      9558      9566      9567      9555      9558      9566      9568
      9555      9558      9566      9569      9556      9555      9558      9559
      9556      9555      9558      9560      9556      9555      9558      9566
      9557      9555      9558      9559      9557      9555      9558      9560
      9557      9555      9558      9566      9558      9560      9561      9562
      9558      9560      9561      9563      9558      9566      9569      9570
      9559      9558      9560      9561      9559      9558      9566      9567
      9559      9558      9566      9568      9559      9558      9566      9569
      9560      9558      9566      9567      9560      9558      9566      9568
      9560      9558      9566      9569      9560      9561      9563      9564
      9560      9561      9563      9565      9560      9561      9563      9575
      9561      9560      9558      9566      9561      9563      9575      9576
      9561      9563      9575      9577      9561      9563      9575      9578
      9562      9561      9563      9564      9562      9561      9563      9565
      9562      9561      9563      9575      9563      9575      9578      9579
      9563      9575      9578      9580      9563      9575      9578      9581
      9564      9563      9575      9576      9564      9563      9575      9577
      9564      9563      9575      9578      9565      9563      9575      9576
      9565      9563      9575      9577      9565      9563      9575      9578
      9566      9569      9570      9571      9566      9569      9570      9572
      9567      9566      9569      9570      9568      9566      9569      9570
      9569      9570      9572      9573      9569      9570      9572      9574
      9569      9570      9572      9622      9570      9572      9622      9623
      9570      9572      9622      9624      9570      9572      9622      9625
      9571      9570      9572      9573      9571      9570      9572      9574
      9571      9570      9572      9622      9572      9622      9625      9626
      9572      9622      9625      9627      9572      9622      9625      9628
      9573      9572      9622      9623      9573      9572      9622      9624
      9573      9572      9622      9625      9574      9572      9622      9623
      9574      9572      9622      9624      9574      9572      9622      9625
      9575      9578      9581      9582      9575      9578      9581      9583
      9575      9578      9581      9584      9576      9575      9578      9579
      9576      9575      9578      9580      9576      9575      9578      9581
      9577      9575      9578      9579      9577      9575      9578      9580
      9577      9575      9578      9581      9578      9581      9584      9585
      9578      9581      9584      9586      9578      9581      9584      9587
      9579      9578      9581      9582      9579      9578      9581      9583
      9579      9578      9581      9584      9580      9578      9581      9582
      9580      9578      9581      9583      9580      9578      9581      9584
      9581      9584      9587      9588      9581      9584      9587      9589
      9581      9584      9587      9590      9582      9581      9584      9585
      9582      9581      9584      9586      9582      9581      9584      9587
      9583      9581      9584      9585      9583      9581      9584      9586
      9583      9581      9584      9587      9584      9587      9590      9591
      9584      9587      9590      9592      9584      9587      9590      9593
      9585      9584      9587      9588      9585      9584      9587      9589
      9585      9584      9587      9590      9586      9584      9587      9588
      9586      9584      9587      9589      9586      9584      9587      9590
      9587      9590      9593      9594      9587      9590      9593      9595
      9588      9587      9590      9591      9588      9587      9590      9592
      9588      9587      9590      9593      9589      9587      9590      9591
      9589      9587      9590      9592      9589      9587      9590      9593
      9590      9593      9595      9596      9590      9593      9595      9597
      9591      9590      9593      9594      9591      9590      9593      9595
      9592      9590      9593      9594      9592      9590      9593      9595
      9593      9595      9597      9598      9593      9595      9597      9599
      9593      9595      9597      9600      9594      9593      9595      9596
      9594      9593      9595      9597      9595      9597      9600      9601
      9595      9597      9600      9602      9595      9597      9600      9603
      9596      9595      9597      9598      9596      9595      9597      9599
      9596      9595      9597      9600      9597      9600      9603      9604
      9597      9600      9603      9605      9597      9600      9603      9606
      9598      9597      9600      9601      9598      9597      9600      9602
      9598      9597      9600      9603      9599      9597      9600      9601
      9599      9597      9600      9602      9599      9597      9600      9603
      9600      9603      9606      9607      9600      9603      9606      9608
      9600      9603      9606      9609      9601      9600      9603      9604
      9601      9600      9603      9605      9601      9600      9603      9606
      9602      9600      9603      9604      9602      9600      9603      9605
      9602      9600      9603      9606      9603      9606      9609      9610
      9603      9606      9609      9611      9603      9606      9609      9612
      9604      9603      9606      9607      9604      9603      9606      9608
      9604      9603      9606      9609      9605      9603      9606      9607
      9605      9603      9606      9608      9605      9603      9606      9609
      9606      9609      9612      9613      9606      9609      9612      9614
      9606      9609      9612      9615      9607      9606      9609      9610
      9607      9606      9609      9611      9607      9606      9609      9612
      9608      9606      9609      9610      9608      9606      9609      9611
      9608      9606      9609      9612      9609      9612      9615      9616
      9609      9612      9615      9617      9609      9612      9615      9618
      9610      9609      9612      9613      9610      9609      9612      9614
      9610      9609      9612      9615      9611      9609      9612      9613
      9611      9609      9612      9614      9611      9609      9612      9615
      9612      9615      9618      9619      9612      9615      9618      9620
      9612      9615      9618      9621      9613      9612      9615      9616
      9613      9612      9615      9617      9613      9612      9615      9618
      9614      9612      9615      9616      9614      9612      9615      9617
      9614      9612      9615      9618      9616      9615      9618      9619
      9616      9615      9618      9620      9616      9615      9618      9621
      9617      9615      9618      9619      9617      9615      9618      9620
      9617      9615      9618      9621      9622      9625      9628      9629
      9622      9625      9628      9630      9622      9625      9628      9631
      9623      9622      9625      9626      9623      9622      9625      9627
      9623      9622      9625      9628      9624      9622      9625      9626
      9624      9622      9625      9627      9624      9622      9625      9628
      9625      9628      9631      9632      9625      9628      9631      9633
      9625      9628      9631      9634      9626      9625      9628      9629
      9626      9625      9628      9630      9626      9625      9628      9631
      9627      9625      9628      9629      9627      9625      9628      9630
      9627      9625      9628      9631      9628      9631      9634      9635
      9628      9631      9634      9636      9628      9631      9634      9637
      9629      9628      9631      9632      9629      9628      9631      9633
      9629      9628      9631      9634      9630      9628      9631      9632
      9630      9628      9631      9633      9630      9628      9631      9634
      9631      9634      9637      9638      9631      9634      9637      9639
      9631      9634      9637      9640      9632      9631      9634      9635
      9632      9631      9634      9636      9632      9631      9634      9637
      9633      9631      9634      9635      9633      9631      9634      9636
      9633      9631      9634      9637      9634      9637      9640      9641
      9634      9637      9640      9642      9634      9637      9640      9643
      9635      9634      9637      9638      9635      9634      9637      9639
      9635      9634      9637      9640      9636      9634      9637      9638
      9636      9634      9637      9639      9636      9634      9637      9640
      9637      9640      9643      9644      9637      9640      9643      9645
      9637      9640      9643      9646      9638      9637      9640      9641
      9638      9637      9640      9642      9638      9637      9640      9643
      9639      9637      9640      9641      9639      9637      9640      9642
      9639      9637      9640      9643      9640      9643      9646      9647
      9640      9643      9646      9648      9640      9643      9646      9649
      9641      9640      9643      9644      9641      9640      9643      9645
      9641      9640      9643      9646      9642      9640      9643      9644
      9642      9640      9643      9645      9642      9640      9643      9646
      9643      9646      9649      9650      9643      9646      9649      9651
      9643      9646      9649      9652      9644      9643      9646      9647
      9644      9643      9646      9648      9644      9643      9646      9649
      9645      9643      9646      9647      9645      9643      9646      9648
      9645      9643      9646      9649      9646      9649      9652      9653
      9646      9649      9652      9654      9646      9649      9652      9655
      9647      9646      9649      9650      9647      9646      9649      9651
      9647      9646      9649      9652      9648      9646      9649      9650
      9648      9646      9649      9651      9648      9646      9649      9652
      9649      9652      9655      9656      9649      9652      9655      9657
      9649      9652      9655      9658      9650      9649      9652      9653
      9650      9649      9652      9654      9650      9649      9652      9655
      9651      9649      9652      9653      9651      9649      9652      9654
      9651      9649      9652      9655      9652      9655      9658      9659
      9652      9655      9658      9660      9652      9655      9658      9661
      9653      9652      9655      9656      9653      9652      9655      9657
      9653      9652      9655      9658      9654      9652      9655      9656
      9654      9652      9655      9657      9654      9652      9655      9658
      9655      9658      9661      9662      9655      9658      9661      9663
      9655      9658      9661      9664      9656      9655      9658      9659
      9656      9655      9658      9660      9656      9655      9658      9661
      9657      9655      9658      9659      9657      9655      9658      9660
      9657      9655      9658      9661      9659      9658      9661      9662
      9659      9658      9661      9663      9659      9658      9661      9664
      9660      9658      9661      9662      9660      9658      9661      9663
      9660      9658      9661      9664      9665      9666      9681      9682
      9665      9666      9681      9683      9665      9666      9681      9687
      9666      9665      9669      9670      9666      9665      9669      9671
      9666      9665      9669      9672      9666      9665      9673      9674
      9666      9665      9673      9675      9666      9665      9673      9676
      9666      9665      9677      9678      9666      9665      9677      9679
      9666      9665      9677      9680      9666      9681      9687      9684
      9667      9666      9665      9669      9667      9666      9665      9673
      9667      9666      9665      9677      9667      9666      9681      9682
      9667      9666      9681      9683      9667      9666      9681      9687
      9668      9666      9665      9669      9668      9666      9665      9673
      9668      9666      9665      9677      9668      9666      9681      9682
      9668      9666      9681      9683      9668      9666      9681      9687
      9669      9665      9666      9681      9669      9665      9673      9674
      9669      9665      9673      9675      9669      9665      9673      9676
      9669      9665      9677      9678      9669      9665      9677      9679
      9669      9665      9677      9680      9670      9669      9665      9673
      9670      9669      9665      9677      9671      9669      9665      9673
      9671      9669      9665      9677      9672      9669      9665      9673
      9672      9669      9665      9677      9673      9665      9666      9681
      9673      9665      9677      9678      9673      9665      9677      9679
      9673      9665      9677      9680      9674      9673      9665      9677
      9675      9673      9665      9677      9676      9673      9665      9677
      9677      9665      9666      9681      9681      9687      9684      9685
      9681      9687      9684      9686      9681      9687      9684      9688
      9682      9681      9687      9684      9683      9681      9687      9684
      9684      9688      9689      9690      9684      9688      9689      9691
      9684      9688      9689      9692      9685      9684      9688      9689
      9686      9684      9688      9689      9687      9684      9688      9689
      9688      9689      9692      9693      9688      9689      9692      9694
      9688      9689      9692      9700      9689      9692      9694      9695
      9689      9692      9700      9701      9689      9692      9700      9702
      9689      9692      9700      9703      9690      9689      9692      9693
      9690      9689      9692      9694      9690      9689      9692      9700
      9691      9689      9692      9693      9691      9689      9692      9694
      9691      9689      9692      9700      9692      9694      9695      9696
      9692      9694      9695      9697      9692      9700      9703      9704
      9693      9692      9694      9695      9693      9692      9700      9701
      9693      9692      9700      9702      9693      9692      9700      9703
      9694      9692      9700      9701      9694      9692      9700      9702
      9694      9692      9700      9703      9694      9695      9697      9698
      9694      9695      9697      9699      9694      9695      9697      9709
      9695      9694      9692      9700      9695      9697      9709      9710
      9695      9697      9709      9711      9695      9697      9709      9712
      9696      9695      9697      9698      9696      9695      9697      9699
      9696      9695      9697      9709      9697      9709      9712      9713
      9697      9709      9712      9714      9697      9709      9712      9715
      9698      9697      9709      9710      9698      9697      9709      9711
      9698      9697      9709      9712      9699      9697      9709      9710
      9699      9697      9709      9711      9699      9697      9709      9712
      9700      9703      9704      9705      9700      9703      9704      9706
      9701      9700      9703      9704      9702      9700      9703      9704
      9703      9704      9706      9707      9703      9704      9706      9708
      9703      9704      9706      9756      9704      9706      9756      9757
      9704      9706      9756      9758      9704      9706      9756      9759
      9705      9704      9706      9707      9705      9704      9706      9708
      9705      9704      9706      9756      9706      9756      9759      9760
      9706      9756      9759      9761      9706      9756      9759      9762
      9707      9706      9756      9757      9707      9706      9756      9758
      9707      9706      9756      9759      9708      9706      9756      9757
      9708      9706      9756      9758      9708      9706      9756      9759
      9709      9712      9715      9716      9709      9712      9715      9717
      9709      9712      9715      9718      9710      9709      9712      9713
      9710      9709      9712      9714      9710      9709      9712      9715
      9711      9709      9712      9713      9711      9709      9712      9714
      9711      9709      9712      9715      9712      9715      9718      9719
      9712      9715      9718      9720      9712      9715      9718      9721
      9713      9712      9715      9716      9713      9712      9715      9717
      9713      9712      9715      9718      9714      9712      9715      9716
      9714      9712      9715      9717      9714      9712      9715      9718
      9715      9718      9721      9722      9715      9718      9721      9723
      9715      9718      9721      9724      9716      9715      9718      9719
      9716      9715      9718      9720      9716      9715      9718      9721
      9717      9715      9718      9719      9717      9715      9718      9720
      9717      9715      9718      9721      9718      9721      9724      9725
      9718      9721      9724      9726      9718      9721      9724      9727
      9719      9718      9721      9722      9719      9718      9721      9723
      9719      9718      9721      9724      9720      9718      9721      9722
      9720      9718      9721      9723      9720      9718      9721      9724
      9721      9724      9727      9728      9721      9724      9727      9729
      9722      9721      9724      9725      9722      9721      9724      9726
      9722      9721      9724      9727      9723      9721      9724      9725
      9723      9721      9724      9726      9723      9721      9724      9727
      9724      9727      9729      9730      9724      9727      9729      9731
      9725      9724      9727      9728      9725      9724      9727      9729
      9726      9724      9727      9728      9726      9724      9727      9729
      9727      9729      9731      9732      9727      9729      9731      9733
      9727      9729      9731      9734      9728      9727      9729      9730
      9728      9727      9729      9731      9729      9731      9734      9735
      9729      9731      9734      9736      9729      9731      9734      9737
      9730      9729      9731      9732      9730      9729      9731      9733
      9730      9729      9731      9734      9731      9734      9737      9738
      9731      9734      9737      9739      9731      9734      9737      9740
      9732      9731      9734      9735      9732      9731      9734      9736
      9732      9731      9734      9737      9733      9731      9734      9735
      9733      9731      9734      9736      9733      9731      9734      9737
      9734      9737      9740      9741      9734      9737      9740      9742
      9734      9737      9740      9743      9735      9734      9737      9738
      9735      9734      9737      9739      9735      9734      9737      9740
      9736      9734      9737      9738      9736      9734      9737      9739
      9736      9734      9737      9740      9737      9740      9743      9744
      9737      9740      9743      9745      9737      9740      9743      9746
      9738      9737      9740      9741      9738      9737      9740      9742
      9738      9737      9740      9743      9739      9737      9740      9741
      9739      9737      9740      9742      9739      9737      9740      9743
      9740      9743      9746      9747      9740      9743      9746      9748
      9740      9743      9746      9749      9741      9740      9743      9744
      9741      9740      9743      9745      9741      9740      9743      9746
      9742      9740      9743      9744      9742      9740      9743      9745
      9742      9740      9743      9746      9743      9746      9749      9750
      9743      9746      9749      9751      9743      9746      9749      9752
      9744      9743      9746      9747      9744      9743      9746      9748
      9744      9743      9746      9749      9745      9743      9746      9747
      9745      9743      9746      9748      9745      9743      9746      9749
      9746      9749      9752      9753      9746      9749      9752      9754
      9746      9749      9752      9755      9747      9746      9749      9750
      9747      9746      9749      9751      9747      9746      9749      9752
      9748      9746      9749      9750      9748      9746      9749      9751
      9748      9746      9749      9752      9750      9749      9752      9753
      9750      9749      9752      9754      9750      9749      9752      9755
      9751      9749      9752      9753      9751      9749      9752      9754
      9751      9749      9752      9755      9756      9759      9762      9763
      9756      9759      9762      9764      9756      9759      9762      9765
      9757      9756      9759      9760      9757      9756      9759      9761
      9757      9756      9759      9762      9758      9756      9759      9760
      9758      9756      9759      9761      9758      9756      9759      9762
      9759      9762      9765      9766      9759      9762      9765      9767
      9759      9762      9765      9768      9760      9759      9762      9763
      9760      9759      9762      9764      9760      9759      9762      9765
      9761      9759      9762      9763      9761      9759      9762      9764
      9761      9759      9762      9765      9762      9765      9768      9769
      9762      9765      9768      9770      9762      9765      9768      9771
      9763      9762      9765      9766      9763      9762      9765      9767
      9763      9762      9765      9768      9764      9762      9765      9766
      9764      9762      9765      9767      9764      9762      9765      9768
      9765      9768      9771      9772      9765      9768      9771      9773
      9765      9768      9771      9774      9766      9765      9768      9769
      9766      9765      9768      9770      9766      9765      9768      9771
      9767      9765      9768      9769      9767      9765      9768      9770
      9767      9765      9768      9771      9768      9771      9774      9775
      9768      9771      9774      9776      9768      9771      9774      9777
      9769      9768      9771      9772      9769      9768      9771      9773
      9769      9768      9771      9774      9770      9768      9771      9772
      9770      9768      9771      9773      9770      9768      9771      9774
      9771      9774      9777      9778      9771      9774      9777      9779
      9771      9774      9777      9780      9772      9771      9774      9775
      9772      9771      9774      9776      9772      9771      9774      9777
      9773      9771      9774      9775      9773      9771      9774      9776
      9773      9771      9774      9777      9774      9777      9780      9781
      9774      9777      9780      9782      9774      9777      9780      9783
      9775      9774      9777      9778      9775      9774      9777      9779
      9775      9774      9777      9780      9776      9774      9777      9778
      9776      9774      9777      9779      9776      9774      9777      9780
      9777      9780      9783      9784      9777      9780      9783      9785
      9777      9780      9783      9786      9778      9777      9780      9781
      9778      9777      9780      9782      9778      9777      9780      9783
      9779      9777      9780      9781      9779      9777      9780      9782
      9779      9777      9780      9783      9780      9783      9786      9787
      9780      9783      9786      9788      9780      9783      9786      9789
      9781      9780      9783      9784      9781      9780      9783      9785
      9781      9780      9783      9786      9782      9780      9783      9784
      9782      9780      9783      9785      9782      9780      9783      9786
      9783      9786      9789      9790      9783      9786      9789      9791
      9783      9786      9789      9792      9784      9783      9786      9787
      9784      9783      9786      9788      9784      9783      9786      9789
      9785      9783      9786      9787      9785      9783      9786      9788
      9785      9783      9786      9789      9786      9789      9792      9793
      9786      9789      9792      9794      9786      9789      9792      9795
      9787      9786      9789      9790      9787      9786      9789      9791
      9787      9786      9789      9792      9788      9786      9789      9790
      9788      9786      9789      9791      9788      9786      9789      9792
      9789      9792      9795      9796      9789      9792      9795      9797
      9789      9792      9795      9798      9790      9789      9792      9793
      9790      9789      9792      9794      9790      9789      9792      9795
      9791      9789      9792      9793      9791      9789      9792      9794
      9791      9789      9792      9795      9793      9792      9795      9796
      9793      9792      9795      9797      9793      9792      9795      9798
      9794      9792      9795      9796      9794      9792      9795      9797
      9794      9792      9795      9798      9799      9800      9815      9816
      9799      9800      9815      9817      9799      9800      9815      9821
      9800      9799      9803      9804      9800      9799      9803      9805
      9800      9799      9803      9806      9800      9799      9807      9808
      9800      9799      9807      9809      9800      9799      9807      9810
      9800      9799      9811      9812      9800      9799      9811      9813
      9800      9799      9811      9814      9800      9815      9821      9818
      9801      9800      9799      9803      9801      9800      9799      9807
      9801      9800      9799      9811      9801      9800      9815      9816
      9801      9800      9815      9817      9801      9800      9815      9821
      9802      9800      9799      9803      9802      9800      9799      9807
      9802      9800      9799      9811      9802      9800      9815      9816
      9802      9800      9815      9817      9802      9800      9815      9821
      9803      9799      9800      9815      9803      9799      9807      9808
      9803      9799      9807      9809      9803      9799      9807      9810
      9803      9799      9811      9812      9803      9799      9811      9813
      9803      9799      9811      9814      9804      9803      9799      9807
      9804      9803      9799      9811      9805      9803      9799      9807
      9805      9803      9799      9811      9806      9803      9799      9807
      9806      9803      9799      9811      9807      9799      9800      9815
      9807      9799      9811      9812      9807      9799      9811      9813
      9807      9799      9811      9814      9808      9807      9799      9811
      9809      9807      9799      9811      9810      9807      9799      9811
      9811      9799      9800      9815      9815      9821      9818      9819
      9815      9821      9818      9820      9815      9821      9818      9822
      9816      9815      9821      9818      9817      9815      9821      9818
      9818      9822      9823      9824      9818      9822      9823      9825
      9818      9822      9823      9826      9819      9818      9822      9823
      9820      9818      9822      9823      9821      9818      9822      9823
      9822      9823      9826      9827      9822      9823      9826      9828
      9822      9823      9826      9834      9823      9826      9828      9829
      9823      9826      9834      9835      9823      9826      9834      9836
      9823      9826      9834      9837      9824      9823      9826      9827
      9824      9823      9826      9828      9824      9823      9826      9834
      9825      9823      9826      9827      9825      9823      9826      9828
      9825      9823      9826      9834      9826      9828      9829      9830
      9826      9828      9829      9831      9826      9834      9837      9838
      9827      9826      9828      9829      9827      9826      9834      9835
      9827      9826      9834      9836      9827      9826      9834      9837
      9828      9826      9834      9835      9828      9826      9834      9836
      9828      9826      9834      9837      9828      9829      9831      9832
      9828      9829      9831      9833      9828      9829      9831      9843
      9829      9828      9826      9834      9829      9831      9843      9844
      9829      9831      9843      9845      9829      9831      9843      9846
      9830      9829      9831      9832      9830      9829      9831      9833
      9830      9829      9831      9843      9831      9843      9846      9847
      9831      9843      9846      9848      9831      9843      9846      9849
      9832      9831      9843      9844      9832      9831      9843      9845
      9832      9831      9843      9846      9833      9831      9843      9844
      9833      9831      9843      9845      9833      9831      9843      9846
      9834      9837      9838      9839      9834      9837      9838      9840
      9835      9834      9837      9838      9836      9834      9837      9838
      9837      9838      9840      9841      9837      9838      9840      9842
      9837      9838      9840      9890      9838      9840      9890      9891
      9838      9840      9890      9892      9838      9840      9890      9893
      9839      9838      9840      9841      9839      9838      9840      9842
      9839      9838      9840      9890      9840      9890      9893      9894
      9840      9890      9893      9895      9840      9890      9893      9896
      9841      9840      9890      9891      9841      9840      9890      9892
      9841      9840      9890      9893      9842      9840      9890      9891
      9842      9840      9890      9892      9842      9840      9890      9893
      9843      9846      9849      9850      9843      9846      9849      9851
      9843      9846      9849      9852      9844      9843      9846      9847
      9844      9843      9846      9848      9844      9843      9846      9849
      9845      9843      9846      9847      9845      9843      9846      9848
      9845      9843      9846      9849      9846      9849      9852      9853
      9846      9849      9852      9854      9846      9849      9852      9855
      9847      9846      9849      9850      9847      9846      9849      9851
      9847      9846      9849      9852      9848      9846      9849      9850
      9848      9846      9849      9851      9848      9846      9849      9852
      9849      9852      9855      9856      9849      9852      9855      9857
      9849      9852      9855      9858      9850      9849      9852      9853
      9850      9849      9852      9854      9850      9849      9852      9855
      9851      9849      9852      9853      9851      9849      9852      9854
      9851      9849      9852      9855      9852      9855      9858      9859
      9852      9855      9858      9860      9852      9855      9858      9861
      9853      9852      9855      9856      9853      9852      9855      9857
      9853      9852      9855      9858      9854      9852      9855      9856
      9854      9852      9855      9857      9854      9852      9855      9858
      9855      9858      9861      9862      9855      9858      9861      9863
      9856      9855      9858      9859      9856      9855      9858      9860
      9856      9855      9858      9861      9857      9855      9858      9859
      9857      9855      9858      9860      9857      9855      9858      9861
      9858      9861      9863      9864      9858      9861      9863      9865
      9859      9858      9861      9862      9859      9858      9861      9863
      9860      9858      9861      9862      9860      9858      9861      9863
      9861      9863      9865      9866      9861      9863      9865      9867
      9861      9863      9865      9868      9862      9861      9863      9864
      9862      9861      9863      9865      9863      9865      9868      9869
      9863      9865      9868      9870      9863      9865      9868      9871
      9864      9863      9865      9866      9864      9863      9865      9867
      9864      9863      9865      9868      9865      9868      9871      9872
      9865      9868      9871      9873      9865      9868      9871      9874
      9866      9865      9868      9869      9866      9865      9868      9870
      9866      9865      9868      9871      9867      9865      9868      9869
      9867      9865      9868      9870      9867      9865      9868      9871
      9868      9871      9874      9875      9868      9871      9874      9876
      9868      9871      9874      9877      9869      9868      9871      9872
      9869      9868      9871      9873      9869      9868      9871      9874
      9870      9868      9871      9872      9870      9868      9871      9873
      9870      9868      9871      9874      9871      9874      9877      9878
      9871      9874      9877      9879      9871      9874      9877      9880
      9872      9871      9874      9875      9872      9871      9874      9876
      9872      9871      9874      9877      9873      9871      9874      9875
      9873      9871      9874      9876      9873      9871      9874      9877
      9874      9877      9880      9881      9874      9877      9880      9882
      9874      9877      9880      9883      9875      9874      9877      9878
      9875      9874      9877      9879      9875      9874      9877      9880
      9876      9874      9877      9878      9876      9874      9877      9879
      9876      9874      9877      9880      9877      9880      9883      9884
      9877      9880      9883      9885      9877      9880      9883      9886
      9878      9877      9880      9881      9878      9877      9880      9882
      9878      9877      9880      9883      9879      9877      9880      9881
      9879      9877      9880      9882      9879      9877      9880      9883
      9880      9883      9886      9887      9880      9883      9886      9888
      9880      9883      9886      9889      9881      9880      9883      9884
      9881      9880      9883      9885      9881      9880      9883      9886
      9882      9880      9883      9884      9882      9880      9883      9885
      9882      9880      9883      9886      9884      9883      9886      9887
      9884      9883      9886      9888      9884      9883      9886      9889
      9885      9883      9886      9887      9885      9883      9886      9888
      9885      9883      9886      9889      9890      9893      9896      9897
      9890      9893      9896      9898      9890      9893      9896      9899
      9891      9890      9893      9894      9891      9890      9893      9895
      9891      9890      9893      9896      9892      9890      9893      9894
      9892      9890      9893      9895      9892      9890      9893      9896
      9893      9896      9899      9900      9893      9896      9899      9901
      9893      9896      9899      9902      9894      9893      9896      9897
      9894      9893      9896      9898      9894      9893      9896      9899
      9895      9893      9896      9897      9895      9893      9896      9898
      9895      9893      9896      9899      9896      9899      9902      9903
      9896      9899      9902      9904      9896      9899      9902      9905
      9897      9896      9899      9900      9897      9896      9899      9901
      9897      9896      9899      9902      9898      9896      9899      9900
      9898      9896      9899      9901      9898      9896      9899      9902
      9899      9902      9905      9906      9899      9902      9905      9907
      9899      9902      9905      9908      9900      9899      9902      9903
      9900      9899      9902      9904      9900      9899      9902      9905
      9901      9899      9902      9903      9901      9899      9902      9904
      9901      9899      9902      9905      9902      9905      9908      9909
      9902      9905      9908      9910      9902      9905      9908      9911
      9903      9902      9905      9906      9903      9902      9905      9907
      9903      9902      9905      9908      9904      9902      9905      9906
      9904      9902      9905      9907      9904      9902      9905      9908
      9905      9908      9911      9912      9905      9908      9911      9913
      9905      9908      9911      9914      9906      9905      9908      9909
      9906      9905      9908      9910      9906      9905      9908      9911
      9907      9905      9908      9909      9907      9905      9908      9910
      9907      9905      9908      9911      9908      9911      9914      9915
      9908      9911      9914      9916      9908      9911      9914      9917
      9909      9908      9911      9912      9909      9908      9911      9913
      9909      9908      9911      9914      9910      9908      9911      9912
      9910      9908      9911      9913      9910      9908      9911      9914
      9911      9914      9917      9918      9911      9914      9917      9919
      9911      9914      9917      9920      9912      9911      9914      9915
      9912      9911      9914      9916      9912      9911      9914      9917
      9913      9911      9914      9915      9913      9911      9914      9916
      9913      9911      9914      9917      9914      9917      9920      9921
      9914      9917      9920      9922      9914      9917      9920      9923
      9915      9914      9917      9918      9915      9914      9917      9919
      9915      9914      9917      9920      9916      9914      9917      9918
      9916      9914      9917      9919      9916      9914      9917      9920
      9917      9920      9923      9924      9917      9920      9923      9925
      9917      9920      9923      9926      9918      9917      9920      9921
      9918      9917      9920      9922      9918      9917      9920      9923
      9919      9917      9920      9921      9919      9917      9920      9922
      9919      9917      9920      9923      9920      9923      9926      9927
      9920      9923      9926      9928      9920      9923      9926      9929
      9921      9920      9923      9924      9921      9920      9923      9925
      9921      9920      9923      9926      9922      9920      9923      9924
      9922      9920      9923      9925      9922      9920      9923      9926
      9923      9926      9929      9930      9923      9926      9929      9931
      9923      9926      9929      9932      9924      9923      9926      9927
      9924      9923      9926      9928      9924      9923      9926      9929
      9925      9923      9926      9927      9925      9923      9926      9928
      9925      9923      9926      9929      9927      9926      9929      9930
      9927      9926      9929      9931      9927      9926      9929      9932
      9928      9926      9929      9930      9928      9926      9929      9931
      9928      9926      9929      9932      9933      9934      9949      9950
      9933      9934      9949      9951      9933      9934      9949      9955
      9934      9933      9937      9938      9934      9933      9937      9939
      9934      9933      9937      9940      9934      9933      9941      9942
      9934      9933      9941      9943      9934      9933      9941      9944
      9934      9933      9945      9946      9934      9933      9945      9947
      9934      9933      9945      9948      9934      9949      9955      9952
      9935      9934      9933      9937      9935      9934      9933      9941
      9935      9934      9933      9945      9935      9934      9949      9950
      9935      9934      9949      9951      9935      9934      9949      9955
      9936      9934      9933      9937      9936      9934      9933      9941
      9936      9934      9933      9945      9936      9934      9949      9950
      9936      9934      9949      9951      9936      9934      9949      9955
      9937      9933      9934      9949      9937      9933      9941      9942
      9937      9933      9941      9943      9937      9933      9941      9944
      9937      9933      9945      9946      9937      9933      9945      9947
      9937      9933      9945      9948      9938      9937      9933      9941
      9938      9937      9933      9945      9939      9937      9933      9941
      9939      9937      9933      9945      9940      9937      9933      9941
      9940      9937      9933      9945      9941      9933      9934      9949
      9941      9933      9945      9946      9941      9933      9945      9947
      9941      9933      9945      9948      9942      9941      9933      9945
      9943      9941      9933      9945      9944      9941      9933      9945
      9945      9933      9934      9949      9949      9955      9952      9953
      9949      9955      9952      9954      9949      9955      9952      9956
      9950      9949      9955      9952      9951      9949      9955      9952
      9952      9956      9957      9958      9952      9956      9957      9959
      9952      9956      9957      9960      9953      9952      9956      9957
      9954      9952      9956      9957      9955      9952      9956      9957
      9956      9957      9960      9961      9956      9957      9960      9962
      9956      9957      9960      9968      9957      9960      9962      9963
      9957      9960      9968      9969      9957      9960      9968      9970
      9957      9960      9968      9971      9958      9957      9960      9961
      9958      9957      9960      9962      9958      9957      9960      9968
      9959      9957      9960      9961      9959      9957      9960      9962
      9959      9957      9960      9968      9960      9962      9963      9964
      9960      9962      9963      9965      9960      9968      9971      9972
      9961      9960      9962      9963      9961      9960      9968      9969
      9961      9960      9968      9970      9961      9960      9968      9971
      9962      9960      9968      9969      9962      9960      9968      9970
      9962      9960      9968      9971      9962      9963      9965      9966
      9962      9963      9965      9967      9962      9963      9965      9977
      9963      9962      9960      9968      9963      9965      9977      9978
      9963      9965      9977      9979      9963      9965      9977      9980
      9964      9963      9965      9966      9964      9963      9965      9967
      9964      9963      9965      9977      9965      9977      9980      9981
      9965      9977      9980      9982      9965      9977      9980      9983
      9966      9965      9977      9978      9966      9965      9977      9979
      9966      9965      9977      9980      9967      9965      9977      9978
      9967      9965      9977      9979      9967      9965      9977      9980
      9968      9971      9972      9973      9968      9971      9972      9974
      9969      9968      9971      9972      9970      9968      9971      9972
      9971      9972      9974      9975      9971      9972      9974      9976
      9971      9972      9974     10024      9972      9974     10024     10025
      9972      9974     10024     10026      9972      9974     10024     10027
      9973      9972      9974      9975      9973      9972      9974      9976
      9973      9972      9974     10024      9974     10024     10027     10028
      9974     10024     10027     10029      9974     10024     10027     10030
      9975      9974     10024     10025      9975      9974     10024     10026
      9975      9974     10024     10027      9976      9974     10024     10025
      9976      9974     10024     10026      9976      9974     10024     10027
      9977      9980      9983      9984      9977      9980      9983      9985
      9977      9980      9983      9986      9978      9977      9980      9981
      9978      9977      9980      9982      9978      9977      9980      9983
      9979      9977      9980      9981      9979      9977      9980      9982
      9979      9977      9980      9983      9980      9983      9986      9987
      9980      9983      9986      9988      9980      9983      9986      9989
      9981      9980      9983      9984      9981      9980      9983      9985
      9981      9980      9983      9986      9982      9980      9983      9984
      9982      9980      9983      9985      9982      9980      9983      9986
      9983      9986      9989      9990      9983      9986      9989      9991
      9983      9986      9989      9992      9984      9983      9986      9987
      9984      9983      9986      9988      9984      9983      9986      9989
      9985      9983      9986      9987      9985      9983      9986      9988
      9985      9983      9986      9989      9986      9989      9992      9993
      9986      9989      9992      9994      9986      9989      9992      9995
      9987      9986      9989      9990      9987      9986      9989      9991
      9987      9986      9989      9992      9988      9986      9989      9990
      9988      9986      9989      9991      9988      9986      9989      9992
      9989      9992      9995      9996      9989      9992      9995      9997
      9990      9989      9992      9993      9990      9989      9992      9994
      9990      9989      9992      9995      9991      9989      9992      9993
      9991      9989      9992      9994      9991      9989      9992      9995
      9992      9995      9997      9998      9992      9995      9997      9999
      9993      9992      9995      9996      9993      9992      9995      9997
      9994      9992      9995      9996      9994      9992      9995      9997
      9995      9997      9999     10000      9995      9997      9999     10001
      9995      9997      9999     10002      9996      9995      9997      9998
      9996      9995      9997      9999      9997      9999     10002     10003
      9997      9999     10002     10004      9997      9999     10002     10005
      9998      9997      9999     10000      9998      9997      9999     10001
      9998      9997      9999     10002      9999     10002     10005     10006
      9999     10002     10005     10007      9999     10002     10005     10008
     10000      9999     10002     10003     10000      9999     10002     10004
     10000      9999     10002     10005     10001      9999     10002     10003
     10001      9999     10002     10004     10001      9999     10002     10005
     10002     10005     10008     10009     10002     10005     10008     10010
     10002     10005     10008     10011     10003     10002     10005     10006
     10003     10002     10005     10007     10003     10002     10005     10008
     10004     10002     10005     10006     10004     10002     10005     10007
     10004     10002     10005     10008     10005     10008     10011     10012
     10005     10008     10011     10013     10005     10008     10011     10014
     10006     10005     10008     10009     10006     10005     10008     10010
     10006     10005     10008     10011     10007     10005     10008     10009
     10007     10005     10008     10010     10007     10005     10008     10011
     10008     10011     10014     10015     10008     10011     10014     10016
     10008     10011     10014     10017     10009     10008     10011     10012
     10009     10008     10011     10013     10009     10008     10011     10014
     10010     10008     10011     10012     10010     10008     10011     10013
     10010     10008     10011     10014     10011     10014     10017     10018
     10011     10014     10017     10019     10011     10014     10017     10020
     10012     10011     10014     10015     10012     10011     10014     10016
     10012     10011     10014     10017     10013     10011     10014     10015
     10013     10011     10014     10016     10013     10011     10014     10017
     10014     10017     10020     10021     10014     10017     10020     10022
     10014     10017     10020     10023     10015     10014     10017     10018
     10015     10014     10017     10019     10015     10014     10017     10020
     10016     10014     10017     10018     10016     10014     10017     10019
     10016     10014     10017     10020     10018     10017     10020     10021
     10018     10017     10020     10022     10018     10017     10020     10023
     10019     10017     10020     10021     10019     10017     10020     10022
     10019     10017     10020     10023     10024     10027     10030     10031
     10024     10027     10030     10032     10024     10027     10030     10033
     10025     10024     10027     10028     10025     10024     10027     10029
     10025     10024     10027     10030     10026     10024     10027     10028
     10026     10024     10027     10029     10026     10024     10027     10030
     10027     10030     10033     10034     10027     10030     10033     10035
     10027     10030     10033     10036     10028     10027     10030     10031
     10028     10027     10030     10032     10028     10027     10030     10033
     10029     10027     10030     10031     10029     10027     10030     10032
     10029     10027     10030     10033     10030     10033     10036     10037
     10030     10033     10036     10038     10030     10033     10036     10039
     10031     10030     10033     10034     10031     10030     10033     10035
     10031     10030     10033     10036     10032     10030     10033     10034
     10032     10030     10033     10035     10032     10030     10033     10036
     10033     10036     10039     10040     10033     10036     10039     10041
     10033     10036     10039     10042     10034     10033     10036     10037
     10034     10033     10036     10038     10034     10033     10036     10039
     10035     10033     10036     10037     10035     10033     10036     10038
     10035     10033     10036     10039     10036     10039     10042     10043
     10036     10039     10042     10044     10036     10039     10042     10045
     10037     10036     10039     10040     10037     10036     10039     10041
     10037     10036     10039     10042     10038     10036     10039     10040
     10038     10036     10039     10041     10038     10036     10039     10042
     10039     10042     10045     10046     10039     10042     10045     10047
     10039     10042     10045     10048     10040     10039     10042     10043
     10040     10039     10042     10044     10040     10039     10042     10045
     10041     10039     10042     10043     10041     10039     10042     10044
     10041     10039     10042     10045     10042     10045     10048     10049
     10042     10045     10048     10050     10042     10045     10048     10051
     10043     10042     10045     10046     10043     10042     10045     10047
     10043     10042     10045     10048     10044     10042     10045     10046
     10044     10042     10045     10047     10044     10042     10045     10048
     10045     10048     10051     10052     10045     10048     10051     10053
     10045     10048     10051     10054     10046     10045     10048     10049
     10046     10045     10048     10050     10046     10045     10048     10051
     10047     10045     10048     10049     10047     10045     10048     10050
     10047     10045     10048     10051     10048     10051     10054     10055
     10048     10051     10054     10056     10048     10051     10054     10057
     10049     10048     10051     10052     10049     10048     10051     10053
     10049     10048     10051     10054     10050     10048     10051     10052
     10050     10048     10051     10053     10050     10048     10051     10054
     10051     10054     10057     10058     10051     10054     10057     10059
     10051     10054     10057     10060     10052     10051     10054     10055
     10052     10051     10054     10056     10052     10051     10054     10057
     10053     10051     10054     10055     10053     10051     10054     10056
     10053     10051     10054     10057     10054     10057     10060     10061
     10054     10057     10060     10062     10054     10057     10060     10063
     10055     10054     10057     10058     10055     10054     10057     10059
     10055     10054     10057     10060     10056     10054     10057     10058
     10056     10054     10057     10059     10056     10054     10057     10060
     10057     10060     10063     10064     10057     10060     10063     10065
     10057     10060     10063     10066     10058     10057     10060     10061
     10058     10057     10060     10062     10058     10057     10060     10063
     10059     10057     10060     10061     10059     10057     10060     10062
     10059     10057     10060     10063     10061     10060     10063     10064
     10061     10060     10063     10065     10061     10060     10063     10066
     10062     10060     10063     10064     10062     10060     10063     10065
     10062     10060     10063     10066     10067     10068     10083     10084
     10067     10068     10083     10085     10067     10068     10083     10089
     10068     10067     10071     10072     10068     10067     10071     10073
     10068     10067     10071     10074     10068     10067     10075     10076
     10068     10067     10075     10077     10068     10067     10075     10078
     10068     10067     10079     10080     10068     10067     10079     10081
     10068     10067     10079     10082     10068     10083     10089     10086
     10069     10068     10067     10071     10069     10068     10067     10075
     10069     10068     10067     10079     10069     10068     10083     10084
     10069     10068     10083     10085     10069     10068     10083     10089
     10070     10068     10067     10071     10070     10068     10067     10075
     10070     10068     10067     10079     10070     10068     10083     10084
     10070     10068     10083     10085     10070     10068     10083     10089
     10071     10067     10068     10083     10071     10067     10075     10076
     10071     10067     10075     10077     10071     10067     10075     10078
     10071     10067     10079     10080     10071     10067     10079     10081
     10071     10067     10079     10082     10072     10071     10067     10075
     10072     10071     10067     10079     10073     10071     10067     10075
     10073     10071     10067     10079     10074     10071     10067     10075
     10074     10071     10067     10079     10075     10067     10068     10083
     10075     10067     10079     10080     10075     10067     10079     10081
     10075     10067     10079     10082     10076     10075     10067     10079
     10077     10075     10067     10079     10078     10075     10067     10079
     10079     10067     10068     10083     10083     10089     10086     10087
     10083     10089     10086     10088     10083     10089     10086     10090
     10084     10083     10089     10086     10085     10083     10089     10086
     10086     10090     10091     10092     10086     10090     10091     10093
     10086     10090     10091     10094     10087     10086     10090     10091
     10088     10086     10090     10091     10089     10086     10090     10091
     10090     10091     10094     10095     10090     10091     10094     10096
     10090     10091     10094     10102     10091     10094     10096     10097
     10091     10094     10102     10103     10091     10094     10102     10104
     10091     10094     10102     10105     10092     10091     10094     10095
     10092     10091     10094     10096     10092     10091     10094     10102
     10093     10091     10094     10095     10093     10091     10094     10096
     10093     10091     10094     10102     10094     10096     10097     10098
     10094     10096     10097     10099     10094     10102     10105     10106
     10095     10094     10096     10097     10095     10094     10102     10103
     10095     10094     10102     10104     10095     10094     10102     10105
     10096     10094     10102     10103     10096     10094     10102     10104
     10096     10094     10102     10105     10096     10097     10099     10100
     10096     10097     10099     10101     10096     10097     10099     10111
     10097     10096     10094     10102     10097     10099     10111     10112
     10097     10099     10111     10113     10097     10099     10111     10114
     10098     10097     10099     10100     10098     10097     10099     10101
     10098     10097     10099     10111     10099     10111     10114     10115
     10099     10111     10114     10116     10099     10111     10114     10117
     10100     10099     10111     10112     10100     10099     10111     10113
     10100     10099     10111     10114     10101     10099     10111     10112
     10101     10099     10111     10113     10101     10099     10111     10114
     10102     10105     10106     10107     10102     10105     10106     10108
     10103     10102     10105     10106     10104     10102     10105     10106
     10105     10106     10108     10109     10105     10106     10108     10110
     10105     10106     10108     10158     10106     10108     10158     10159
     10106     10108     10158     10160     10106     10108     10158     10161
     10107     10106     10108     10109     10107     10106     10108     10110
     10107     10106     10108     10158     10108     10158     10161     10162
     10108     10158     10161     10163     10108     10158     10161     10164
     10109     10108     10158     10159     10109     10108     10158     10160
     10109     10108     10158     10161     10110     10108     10158     10159
     10110     10108     10158     10160     10110     10108     10158     10161
     10111     10114     10117     10118     10111     10114     10117     10119
     10111     10114     10117     10120     10112     10111     10114     10115
     10112     10111     10114     10116     10112     10111     10114     10117
     10113     10111     10114     10115     10113     10111     10114     10116
     10113     10111     10114     10117     10114     10117     10120     10121
     10114     10117     10120     10122     10114     10117     10120     10123
     10115     10114     10117     10118     10115     10114     10117     10119
     10115     10114     10117     10120     10116     10114     10117     10118
     10116     10114     10117     10119     10116     10114     10117     10120
     10117     10120     10123     10124     10117     10120     10123     10125
     10117     10120     10123     10126     10118     10117     10120     10121
     10118     10117     10120     10122     10118     10117     10120     10123
     10119     10117     10120     10121     10119     10117     10120     10122
     10119     10117     10120     10123     10120     10123     10126     10127
     10120     10123     10126     10128     10120     10123     10126     10129
     10121     10120     10123     10124     10121     10120     10123     10125
     10121     10120     10123     10126     10122     10120     10123     10124
     10122     10120     10123     10125     10122     10120     10123     10126
     10123     10126     10129     10130     10123     10126     10129     10131
     10124     10123     10126     10127     10124     10123     10126     10128
     10124     10123     10126     10129     10125     10123     10126     10127
     10125     10123     10126     10128     10125     10123     10126     10129
     10126     10129     10131     10132     10126     10129     10131     10133
     10127     10126     10129     10130     10127     10126     10129     10131
     10128     10126     10129     10130     10128     10126     10129     10131
     10129     10131     10133     10134     10129     10131     10133     10135
     10129     10131     10133     10136     10130     10129     10131     10132
     10130     10129     10131     10133     10131     10133     10136     10137
     10131     10133     10136     10138     10131     10133     10136     10139
     10132     10131     10133     10134     10132     10131     10133     10135
     10132     10131     10133     10136     10133     10136     10139     10140
     10133     10136     10139     10141     10133     10136     10139     10142
     10134     10133     10136     10137     10134     10133     10136     10138
     10134     10133     10136     10139     10135     10133     10136     10137
     10135     10133     10136     10138     10135     10133     10136     10139
     10136     10139     10142     10143     10136     10139     10142     10144
     10136     10139     10142     10145     10137     10136     10139     10140
     10137     10136     10139     10141     10137     10136     10139     10142
     10138     10136     10139     10140     10138     10136     10139     10141
     10138     10136     10139     10142     10139     10142     10145     10146
     10139     10142     10145     10147     10139     10142     10145     10148
     10140     10139     10142     10143     10140     10139     10142     10144
     10140     10139     10142     10145     10141     10139     10142     10143
     10141     10139     10142     10144     10141     10139     10142     10145
     10142     10145     10148     10149     10142     10145     10148     10150
     10142     10145     10148     10151     10143     10142     10145     10146
     10143     10142     10145     10147     10143     10142     10145     10148
     10144     10142     10145     10146     10144     10142     10145     10147
     10144     10142     10145     10148     10145     10148     10151     10152
     10145     10148     10151     10153     10145     10148     10151     10154
     10146     10145     10148     10149     10146     10145     10148     10150
     10146     10145     10148     10151     10147     10145     10148     10149
     10147     10145     10148     10150     10147     10145     10148     10151
     10148     10151     10154     10155     10148     10151     10154     10156
     10148     10151     10154     10157     10149     10148     10151     10152
     10149     10148     10151     10153     10149     10148     10151     10154
     10150     10148     10151     10152     10150     10148     10151     10153
     10150     10148     10151     10154     10152     10151     10154     10155
     10152     10151     10154     10156     10152     10151     10154     10157
     10153     10151     10154     10155     10153     10151     10154     10156
     10153     10151     10154     10157     10158     10161     10164     10165
     10158     10161     10164     10166     10158     10161     10164     10167
     10159     10158     10161     10162     10159     10158     10161     10163
     10159     10158     10161     10164     10160     10158     10161     10162
     10160     10158     10161     10163     10160     10158     10161     10164
     10161     10164     10167     10168     10161     10164     10167     10169
     10161     10164     10167     10170     10162     10161     10164     10165
     10162     10161     10164     10166     10162     10161     10164     10167
     10163     10161     10164     10165     10163     10161     10164     10166
     10163     10161     10164     10167     10164     10167     10170     10171
     10164     10167     10170     10172     10164     10167     10170     10173
     10165     10164     10167     10168     10165     10164     10167     10169
     10165     10164     10167     10170     10166     10164     10167     10168
     10166     10164     10167     10169     10166     10164     10167     10170
     10167     10170     10173     10174     10167     10170     10173     10175
     10167     10170     10173     10176     10168     10167     10170     10171
     10168     10167     10170     10172     10168     10167     10170     10173
     10169     10167     10170     10171     10169     10167     10170     10172
     10169     10167     10170     10173     10170     10173     10176     10177
     10170     10173     10176     10178     10170     10173     10176     10179
     10171     10170     10173     10174     10171     10170     10173     10175
     10171     10170     10173     10176     10172     10170     10173     10174
     10172     10170     10173     10175     10172     10170     10173     10176
     10173     10176     10179     10180     10173     10176     10179     10181
     10173     10176     10179     10182     10174     10173     10176     10177
     10174     10173     10176     10178     10174     10173     10176     10179
     10175     10173     10176     10177     10175     10173     10176     10178
     10175     10173     10176     10179     10176     10179     10182     10183
     10176     10179     10182     10184     10176     10179     10182     10185
     10177     10176     10179     10180     10177     10176     10179     10181
     10177     10176     10179     10182     10178     10176     10179     10180
     10178     10176     10179     10181     10178     10176     10179     10182
     10179     10182     10185     10186     10179     10182     10185     10187
     10179     10182     10185     10188     10180     10179     10182     10183
     10180     10179     10182     10184     10180     10179     10182     10185
     10181     10179     10182     10183     10181     10179     10182     10184
     10181     10179     10182     10185     10182     10185     10188     10189
     10182     10185     10188     10190     10182     10185     10188     10191
     10183     10182     10185     10186     10183     10182     10185     10187
     10183     10182     10185     10188     10184     10182     10185     10186
     10184     10182     10185     10187     10184     10182     10185     10188
     10185     10188     10191     10192     10185     10188     10191     10193
     10185     10188     10191     10194     10186     10185     10188     10189
     10186     10185     10188     10190     10186     10185     10188     10191
     10187     10185     10188     10189     10187     10185     10188     10190
     10187     10185     10188     10191     10188     10191     10194     10195
     10188     10191     10194     10196     10188     10191     10194     10197
     10189     10188     10191     10192     10189     10188     10191     10193
     10189     10188     10191     10194     10190     10188     10191     10192
     10190     10188     10191     10193     10190     10188     10191     10194
     10191     10194     10197     10198     10191     10194     10197     10199
     10191     10194     10197     10200     10192     10191     10194     10195
     10192     10191     10194     10196     10192     10191     10194     10197
     10193     10191     10194     10195     10193     10191     10194     10196
     10193     10191     10194     10197     10195     10194     10197     10198
     10195     10194     10197     10199     10195     10194     10197     10200
     10196     10194     10197     10198     10196     10194     10197     10199
     10196     10194     10197     10200     10201     10202     10217     10218
     10201     10202     10217     10219     10201     10202     10217     10223
     10202     10201     10205     10206     10202     10201     10205     10207
     10202     10201     10205     10208     10202     10201     10209     10210
     10202     10201     10209     10211     10202     10201     10209     10212
     10202     10201     10213     10214     10202     10201     10213     10215
     10202     10201     10213     10216     10202     10217     10223     10220
     10203     10202     10201     10205     10203     10202     10201     10209
     10203     10202     10201     10213     10203     10202     10217     10218
     10203     10202     10217     10219     10203     10202     10217     10223
     10204     10202     10201     10205     10204     10202     10201     10209
     10204     10202     10201     10213     10204     10202     10217     10218
     10204     10202     10217     10219     10204     10202     10217     10223
     10205     10201     10202     10217     10205     10201     10209     10210
     10205     10201     10209     10211     10205     10201     10209     10212
     10205     10201     10213     10214     10205     10201     10213     10215
     10205     10201     10213     10216     10206     10205     10201     10209
     10206     10205     10201     10213     10207     10205     10201     10209
     10207     10205     10201     10213     10208     10205     10201     10209
     10208     10205     10201     10213     10209     10201     10202     10217
     10209     10201     10213     10214     10209     10201     10213     10215
     10209     10201     10213     10216     10210     10209     10201     10213
     10211     10209     10201     10213     10212     10209     10201     10213
     10213     10201     10202     10217     10217     10223     10220     10221
     10217     10223     10220     10222     10217     10223     10220     10224
     10218     10217     10223     10220     10219     10217     10223     10220
     10220     10224     10225     10226     10220     10224     10225     10227
     10220     10224     10225     10228     10221     10220     10224     10225
     10222     10220     10224     10225     10223     10220     10224     10225
     10224     10225     10228     10229     10224     10225     10228     10230
     10224     10225     10228     10236     10225     10228     10230     10231
     10225     10228     10236     10237     10225     10228     10236     10238
     10225     10228     10236     10239     10226     10225     10228     10229
     10226     10225     10228     10230     10226     10225     10228     10236
     10227     10225     10228     10229     10227     10225     10228     10230
     10227     10225     10228     10236     10228     10230     10231     10232
     10228     10230     10231     10233     10228     10236     10239     10240
     10229     10228     10230     10231     10229     10228     10236     10237
     10229     10228     10236     10238     10229     10228     10236     10239
     10230     10228     10236     10237     10230     10228     10236     10238
     10230     10228     10236     10239     10230     10231     10233     10234
     10230     10231     10233     10235     10230     10231     10233     10245
     10231     10230     10228     10236     10231     10233     10245     10246
     10231     10233     10245     10247     10231     10233     10245     10248
     10232     10231     10233     10234     10232     10231     10233     10235
     10232     10231     10233     10245     10233     10245     10248     10249
     10233     10245     10248     10250     10233     10245     10248     10251
     10234     10233     10245     10246     10234     10233     10245     10247
     10234     10233     10245     10248     10235     10233     10245     10246
     10235     10233     10245     10247     10235     10233     10245     10248
     10236     10239     10240     10241     10236     10239     10240     10242
     10237     10236     10239     10240     10238     10236     10239     10240
     10239     10240     10242     10243     10239     10240     10242     10244
     10239     10240     10242     10292     10240     10242     10292     10293
     10240     10242     10292     10294     10240     10242     10292     10295
     10241     10240     10242     10243     10241     10240     10242     10244
     10241     10240     10242     10292     10242     10292     10295     10296
     10242     10292     10295     10297     10242     10292     10295     10298
     10243     10242     10292     10293     10243     10242     10292     10294
     10243     10242     10292     10295     10244     10242     10292     10293
     10244     10242     10292     10294     10244     10242     10292     10295
     10245     10248     10251     10252     10245     10248     10251     10253
     10245     10248     10251     10254     10246     10245     10248     10249
     10246     10245     10248     10250     10246     10245     10248     10251
     10247     10245     10248     10249     10247     10245     10248     10250
     10247     10245     10248     10251     10248     10251     10254     10255
     10248     10251     10254     10256     10248     10251     10254     10257
     10249     10248     10251     10252     10249     10248     10251     10253
     10249     10248     10251     10254     10250     10248     10251     10252
     10250     10248     10251     10253     10250     10248     10251     10254
     10251     10254     10257     10258     10251     10254     10257     10259
     10251     10254     10257     10260     10252     10251     10254     10255
     10252     10251     10254     10256     10252     10251     10254     10257
     10253     10251     10254     10255     10253     10251     10254     10256
     10253     10251     10254     10257     10254     10257     10260     10261
     10254     10257     10260     10262     10254     10257     10260     10263
     10255     10254     10257     10258     10255     10254     10257     10259
     10255     10254     10257     10260     10256     10254     10257     10258
     10256     10254     10257     10259     10256     10254     10257     10260
     10257     10260     10263     10264     10257     10260     10263     10265
     10258     10257     10260     10261     10258     10257     10260     10262
     10258     10257     10260     10263     10259     10257     10260     10261
     10259     10257     10260     10262     10259     10257     10260     10263
     10260     10263     10265     10266     10260     10263     10265     10267
     10261     10260     10263     10264     10261     10260     10263     10265
     10262     10260     10263     10264     10262     10260     10263     10265
     10263     10265     10267     10268     10263     10265     10267     10269
     10263     10265     10267     10270     10264     10263     10265     10266
     10264     10263     10265     10267     10265     10267     10270     10271
     10265     10267     10270     10272     10265     10267     10270     10273
     10266     10265     10267     10268     10266     10265     10267     10269
     10266     10265     10267     10270     10267     10270     10273     10274
     10267     10270     10273     10275     10267     10270     10273     10276
     10268     10267     10270     10271     10268     10267     10270     10272
     10268     10267     10270     10273     10269     10267     10270     10271
     10269     10267     10270     10272     10269     10267     10270     10273
     10270     10273     10276     10277     10270     10273     10276     10278
     10270     10273     10276     10279     10271     10270     10273     10274
     10271     10270     10273     10275     10271     10270     10273     10276
     10272     10270     10273     10274     10272     10270     10273     10275
     10272     10270     10273     10276     10273     10276     10279     10280
     10273     10276     10279     10281     10273     10276     10279     10282
     10274     10273     10276     10277     10274     10273     10276     10278
     10274     10273     10276     10279     10275     10273     10276     10277
     10275     10273     10276     10278     10275     10273     10276     10279
     10276     10279     10282     10283     10276     10279     10282     10284
     10276     10279     10282     10285     10277     10276     10279     10280
     10277     10276     10279     10281     10277     10276     10279     10282
     10278     10276     10279     10280     10278     10276     10279     10281
     10278     10276     10279     10282     10279     10282     10285     10286
     10279     10282     10285     10287     10279     10282     10285     10288
     10280     10279     10282     10283     10280     10279     10282     10284
     10280     10279     10282     10285     10281     10279     10282     10283
     10281     10279     10282     10284     10281     10279     10282     10285
     10282     10285     10288     10289     10282     10285     10288     10290
     10282     10285     10288     10291     10283     10282     10285     10286
     10283     10282     10285     10287     10283     10282     10285     10288
     10284     10282     10285     10286     10284     10282     10285     10287
     10284     10282     10285     10288     10286     10285     10288     10289
     10286     10285     10288     10290     10286     10285     10288     10291
     10287     10285     10288     10289     10287     10285     10288     10290
     10287     10285     10288     10291     10292     10295     10298     10299
     10292     10295     10298     10300     10292     10295     10298     10301
     10293     10292     10295     10296     10293     10292     10295     10297
     10293     10292     10295     10298     10294     10292     10295     10296
     10294     10292     10295     10297     10294     10292     10295     10298
     10295     10298     10301     10302     10295     10298     10301     10303
     10295     10298     10301     10304     10296     10295     10298     10299
     10296     10295     10298     10300     10296     10295     10298     10301
     10297     10295     10298     10299     10297     10295     10298     10300
     10297     10295     10298     10301     10298     10301     10304     10305
     10298     10301     10304     10306     10298     10301     10304     10307
     10299     10298     10301     10302     10299     10298     10301     10303
     10299     10298     10301     10304     10300     10298     10301     10302
     10300     10298     10301     10303     10300     10298     10301     10304
     10301     10304     10307     10308     10301     10304     10307     10309
     10301     10304     10307     10310     10302     10301     10304     10305
     10302     10301     10304     10306     10302     10301     10304     10307
     10303     10301     10304     10305     10303     10301     10304     10306
     10303     10301     10304     10307     10304     10307     10310     10311
     10304     10307     10310     10312     10304     10307     10310     10313
     10305     10304     10307     10308     10305     10304     10307     10309
     10305     10304     10307     10310     10306     10304     10307     10308
     10306     10304     10307     10309     10306     10304     10307     10310
     10307     10310     10313     10314     10307     10310     10313     10315
     10307     10310     10313     10316     10308     10307     10310     10311
     10308     10307     10310     10312     10308     10307     10310     10313
     10309     10307     10310     10311     10309     10307     10310     10312
     10309     10307     10310     10313     10310     10313     10316     10317
     10310     10313     10316     10318     10310     10313     10316     10319
     10311     10310     10313     10314     10311     10310     10313     10315
     10311     10310     10313     10316     10312     10310     10313     10314
     10312     10310     10313     10315     10312     10310     10313     10316
     10313     10316     10319     10320     10313     10316     10319     10321
     10313     10316     10319     10322     10314     10313     10316     10317
     10314     10313     10316     10318     10314     10313     10316     10319
     10315     10313     10316     10317     10315     10313     10316     10318
     10315     10313     10316     10319     10316     10319     10322     10323
     10316     10319     10322     10324     10316     10319     10322     10325
     10317     10316     10319     10320     10317     10316     10319     10321
     10317     10316     10319     10322     10318     10316     10319     10320
     10318     10316     10319     10321     10318     10316     10319     10322
     10319     10322     10325     10326     10319     10322     10325     10327
     10319     10322     10325     10328     10320     10319     10322     10323
     10320     10319     10322     10324     10320     10319     10322     10325
     10321     10319     10322     10323     10321     10319     10322     10324
     10321     10319     10322     10325     10322     10325     10328     10329
     10322     10325     10328     10330     10322     10325     10328     10331
     10323     10322     10325     10326     10323     10322     10325     10327
     10323     10322     10325     10328     10324     10322     10325     10326
     10324     10322     10325     10327     10324     10322     10325     10328
     10325     10328     10331     10332     10325     10328     10331     10333
     10325     10328     10331     10334     10326     10325     10328     10329
     10326     10325     10328     10330     10326     10325     10328     10331
     10327     10325     10328     10329     10327     10325     10328     10330
     10327     10325     10328     10331     10329     10328     10331     10332
     10329     10328     10331     10333     10329     10328     10331     10334
     10330     10328     10331     10332     10330     10328     10331     10333
     10330     10328     10331     10334     10335     10336     10351     10352
     10335     10336     10351     10353     10335     10336     10351     10357
     10336     10335     10339     10340     10336     10335     10339     10341
     10336     10335     10339     10342     10336     10335     10343     10344
     10336     10335     10343     10345     10336     10335     10343     10346
     10336     10335     10347     10348     10336     10335     10347     10349
     10336     10335     10347     10350     10336     10351     10357     10354
     10337     10336     10335     10339     10337     10336     10335     10343
     10337     10336     10335     10347     10337     10336     10351     10352
     10337     10336     10351     10353     10337     10336     10351     10357
     10338     10336     10335     10339     10338     10336     10335     10343
     10338     10336     10335     10347     10338     10336     10351     10352
     10338     10336     10351     10353     10338     10336     10351     10357
     10339     10335     10336     10351     10339     10335     10343     10344
     10339     10335     10343     10345     10339     10335     10343     10346
     10339     10335     10347     10348     10339     10335     10347     10349
     10339     10335     10347     10350     10340     10339     10335     10343
     10340     10339     10335     10347     10341     10339     10335     10343
     10341     10339     10335     10347     10342     10339     10335     10343
     10342     10339     10335     10347     10343     10335     10336     10351
     10343     10335     10347     10348     10343     10335     10347     10349
     10343     10335     10347     10350     10344     10343     10335     10347
     10345     10343     10335     10347     10346     10343     10335     10347
     10347     10335     10336     10351     10351     10357     10354     10355
     10351     10357     10354     10356     10351     10357     10354     10358
     10352     10351     10357     10354     10353     10351     10357     10354
     10354     10358     10359     10360     10354     10358     10359     10361
     10354     10358     10359     10362     10355     10354     10358     10359
     10356     10354     10358     10359     10357     10354     10358     10359
     10358     10359     10362     10363     10358     10359     10362     10364
     10358     10359     10362     10370     10359     10362     10364     10365
     10359     10362     10370     10371     10359     10362     10370     10372
     10359     10362     10370     10373     10360     10359     10362     10363
     10360     10359     10362     10364     10360     10359     10362     10370
     10361     10359     10362     10363     10361     10359     10362     10364
     10361     10359     10362     10370     10362     10364     10365     10366
     10362     10364     10365     10367     10362     10370     10373     10374
     10363     10362     10364     10365     10363     10362     10370     10371
     10363     10362     10370     10372     10363     10362     10370     10373
     10364     10362     10370     10371     10364     10362     10370     10372
     10364     10362     10370     10373     10364     10365     10367     10368
     10364     10365     10367     10369     10364     10365     10367     10379
     10365     10364     10362     10370     10365     10367     10379     10380
     10365     10367     10379     10381     10365     10367     10379     10382
     10366     10365     10367     10368     10366     10365     10367     10369
     10366     10365     10367     10379     10367     10379     10382     10383
     10367     10379     10382     10384     10367     10379     10382     10385
     10368     10367     10379     10380     10368     10367     10379     10381
     10368     10367     10379     10382     10369     10367     10379     10380
     10369     10367     10379     10381     10369     10367     10379     10382
     10370     10373     10374     10375     10370     10373     10374     10376
     10371     10370     10373     10374     10372     10370     10373     10374
     10373     10374     10376     10377     10373     10374     10376     10378
     10373     10374     10376     10426     10374     10376     10426     10427
     10374     10376     10426     10428     10374     10376     10426     10429
     10375     10374     10376     10377     10375     10374     10376     10378
     10375     10374     10376     10426     10376     10426     10429     10430
     10376     10426     10429     10431     10376     10426     10429     10432
     10377     10376     10426     10427     10377     10376     10426     10428
     10377     10376     10426     10429     10378     10376     10426     10427
     10378     10376     10426     10428     10378     10376     10426     10429
     10379     10382     10385     10386     10379     10382     10385     10387
     10379     10382     10385     10388     10380     10379     10382     10383
     10380     10379     10382     10384     10380     10379     10382     10385
     10381     10379     10382     10383     10381     10379     10382     10384
     10381     10379     10382     10385     10382     10385     10388     10389
     10382     10385     10388     10390     10382     10385     10388     10391
     10383     10382     10385     10386     10383     10382     10385     10387
     10383     10382     10385     10388     10384     10382     10385     10386
     10384     10382     10385     10387     10384     10382     10385     10388
     10385     10388     10391     10392     10385     10388     10391     10393
     10385     10388     10391     10394     10386     10385     10388     10389
     10386     10385     10388     10390     10386     10385     10388     10391
     10387     10385     10388     10389     10387     10385     10388     10390
     10387     10385     10388     10391     10388     10391     10394     10395
     10388     10391     10394     10396     10388     10391     10394     10397
     10389     10388     10391     10392     10389     10388     10391     10393
     10389     10388     10391     10394     10390     10388     10391     10392
     10390     10388     10391     10393     10390     10388     10391     10394
     10391     10394     10397     10398     10391     10394     10397     10399
     10392     10391     10394     10395     10392     10391     10394     10396
     10392     10391     10394     10397     10393     10391     10394     10395
     10393     10391     10394     10396     10393     10391     10394     10397
     10394     10397     10399     10400     10394     10397     10399     10401
     10395     10394     10397     10398     10395     10394     10397     10399
     10396     10394     10397     10398     10396     10394     10397     10399
     10397     10399     10401     10402     10397     10399     10401     10403
     10397     10399     10401     10404     10398     10397     10399     10400
     10398     10397     10399     10401     10399     10401     10404     10405
     10399     10401     10404     10406     10399     10401     10404     10407
     10400     10399     10401     10402     10400     10399     10401     10403
     10400     10399     10401     10404     10401     10404     10407     10408
     10401     10404     10407     10409     10401     10404     10407     10410
     10402     10401     10404     10405     10402     10401     10404     10406
     10402     10401     10404     10407     10403     10401     10404     10405
     10403     10401     10404     10406     10403     10401     10404     10407
     10404     10407     10410     10411     10404     10407     10410     10412
     10404     10407     10410     10413     10405     10404     10407     10408
     10405     10404     10407     10409     10405     10404     10407     10410
     10406     10404     10407     10408     10406     10404     10407     10409
     10406     10404     10407     10410     10407     10410     10413     10414
     10407     10410     10413     10415     10407     10410     10413     10416
     10408     10407     10410     10411     10408     10407     10410     10412
     10408     10407     10410     10413     10409     10407     10410     10411
     10409     10407     10410     10412     10409     10407     10410     10413
     10410     10413     10416     10417     10410     10413     10416     10418
     10410     10413     10416     10419     10411     10410     10413     10414
     10411     10410     10413     10415     10411     10410     10413     10416
     10412     10410     10413     10414     10412     10410     10413     10415
     10412     10410     10413     10416     10413     10416     10419     10420
     10413     10416     10419     10421     10413     10416     10419     10422
     10414     10413     10416     10417     10414     10413     10416     10418
     10414     10413     10416     10419     10415     10413     10416     10417
     10415     10413     10416     10418     10415     10413     10416     10419
     10416     10419     10422     10423     10416     10419     10422     10424
     10416     10419     10422     10425     10417     10416     10419     10420
     10417     10416     10419     10421     10417     10416     10419     10422
     10418     10416     10419     10420     10418     10416     10419     10421
     10418     10416     10419     10422     10420     10419     10422     10423
     10420     10419     10422     10424     10420     10419     10422     10425
     10421     10419     10422     10423     10421     10419     10422     10424
     10421     10419     10422     10425     10426     10429     10432     10433
     10426     10429     10432     10434     10426     10429     10432     10435
     10427     10426     10429     10430     10427     10426     10429     10431
     10427     10426     10429     10432     10428     10426     10429     10430
     10428     10426     10429     10431     10428     10426     10429     10432
     10429     10432     10435     10436     10429     10432     10435     10437
     10429     10432     10435     10438     10430     10429     10432     10433
     10430     10429     10432     10434     10430     10429     10432     10435
     10431     10429     10432     10433     10431     10429     10432     10434
     10431     10429     10432     10435     10432     10435     10438     10439
     10432     10435     10438     10440     10432     10435     10438     10441
     10433     10432     10435     10436     10433     10432     10435     10437
     10433     10432     10435     10438     10434     10432     10435     10436
     10434     10432     10435     10437     10434     10432     10435     10438
     10435     10438     10441     10442     10435     10438     10441     10443
     10435     10438     10441     10444     10436     10435     10438     10439
     10436     10435     10438     10440     10436     10435     10438     10441
     10437     10435     10438     10439     10437     10435     10438     10440
     10437     10435     10438     10441     10438     10441     10444     10445
     10438     10441     10444     10446     10438     10441     10444     10447
     10439     10438     10441     10442     10439     10438     10441     10443
     10439     10438     10441     10444     10440     10438     10441     10442
     10440     10438     10441     10443     10440     10438     10441     10444
     10441     10444     10447     10448     10441     10444     10447     10449
     10441     10444     10447     10450     10442     10441     10444     10445
     10442     10441     10444     10446     10442     10441     10444     10447
     10443     10441     10444     10445     10443     10441     10444     10446
     10443     10441     10444     10447     10444     10447     10450     10451
     10444     10447     10450     10452     10444     10447     10450     10453
     10445     10444     10447     10448     10445     10444     10447     10449
     10445     10444     10447     10450     10446     10444     10447     10448
     10446     10444     10447     10449     10446     10444     10447     10450
     10447     10450     10453     10454     10447     10450     10453     10455
     10447     10450     10453     10456     10448     10447     10450     10451
     10448     10447     10450     10452     10448     10447     10450     10453
     10449     10447     10450     10451     10449     10447     10450     10452
     10449     10447     10450     10453     10450     10453     10456     10457
     10450     10453     10456     10458     10450     10453     10456     10459
     10451     10450     10453     10454     10451     10450     10453     10455
     10451     10450     10453     10456     10452     10450     10453     10454
     10452     10450     10453     10455     10452     10450     10453     10456
     10453     10456     10459     10460     10453     10456     10459     10461
     10453     10456     10459     10462     10454     10453     10456     10457
     10454     10453     10456     10458     10454     10453     10456     10459
     10455     10453     10456     10457     10455     10453     10456     10458
     10455     10453     10456     10459     10456     10459     10462     10463
     10456     10459     10462     10464     10456     10459     10462     10465
     10457     10456     10459     10460     10457     10456     10459     10461
     10457     10456     10459     10462     10458     10456     10459     10460
     10458     10456     10459     10461     10458     10456     10459     10462
     10459     10462     10465     10466     10459     10462     10465     10467
     10459     10462     10465     10468     10460     10459     10462     10463
     10460     10459     10462     10464     10460     10459     10462     10465
     10461     10459     10462     10463     10461     10459     10462     10464
     10461     10459     10462     10465     10463     10462     10465     10466
     10463     10462     10465     10467     10463     10462     10465     10468
     10464     10462     10465     10466     10464     10462     10465     10467
     10464     10462     10465     10468     10469     10470     10485     10486
     10469     10470     10485     10487     10469     10470     10485     10491
     10470     10469     10473     10474     10470     10469     10473     10475
     10470     10469     10473     10476     10470     10469     10477     10478
     10470     10469     10477     10479     10470     10469     10477     10480
     10470     10469     10481     10482     10470     10469     10481     10483
     10470     10469     10481     10484     10470     10485     10491     10488
     10471     10470     10469     10473     10471     10470     10469     10477
     10471     10470     10469     10481     10471     10470     10485     10486
     10471     10470     10485     10487     10471     10470     10485     10491
     10472     10470     10469     10473     10472     10470     10469     10477
     10472     10470     10469     10481     10472     10470     10485     10486
     10472     10470     10485     10487     10472     10470     10485     10491
     10473     10469     10470     10485     10473     10469     10477     10478
     10473     10469     10477     10479     10473     10469     10477     10480
     10473     10469     10481     10482     10473     10469     10481     10483
     10473     10469     10481     10484     10474     10473     10469     10477
     10474     10473     10469     10481     10475     10473     10469     10477
     10475     10473     10469     10481     10476     10473     10469     10477
     10476     10473     10469     10481     10477     10469     10470     10485
     10477     10469     10481     10482     10477     10469     10481     10483
     10477     10469     10481     10484     10478     10477     10469     10481
     10479     10477     10469     10481     10480     10477     10469     10481
     10481     10469     10470     10485     10485     10491     10488     10489
     10485     10491     10488     10490     10485     10491     10488     10492
     10486     10485     10491     10488     10487     10485     10491     10488
     10488     10492     10493     10494     10488     10492     10493     10495
     10488     10492     10493     10496     10489     10488     10492     10493
     10490     10488     10492     10493     10491     10488     10492     10493
     10492     10493     10496     10497     10492     10493     10496     10498
     10492     10493     10496     10504     10493     10496     10498     10499
     10493     10496     10504     10505     10493     10496     10504     10506
     10493     10496     10504     10507     10494     10493     10496     10497
     10494     10493     10496     10498     10494     10493     10496     10504
     10495     10493     10496     10497     10495     10493     10496     10498
     10495     10493     10496     10504     10496     10498     10499     10500
     10496     10498     10499     10501     10496     10504     10507     10508
     10497     10496     10498     10499     10497     10496     10504     10505
     10497     10496     10504     10506     10497     10496     10504     10507
     10498     10496     10504     10505     10498     10496     10504     10506
     10498     10496     10504     10507     10498     10499     10501     10502
     10498     10499     10501     10503     10498     10499     10501     10513
     10499     10498     10496     10504     10499     10501     10513     10514
     10499     10501     10513     10515     10499     10501     10513     10516
     10500     10499     10501     10502     10500     10499     10501     10503
     10500     10499     10501     10513     10501     10513     10516     10517
     10501     10513     10516     10518     10501     10513     10516     10519
     10502     10501     10513     10514     10502     10501     10513     10515
     10502     10501     10513     10516     10503     10501     10513     10514
     10503     10501     10513     10515     10503     10501     10513     10516
     10504     10507     10508     10509     10504     10507     10508     10510
     10505     10504     10507     10508     10506     10504     10507     10508
     10507     10508     10510     10511     10507     10508     10510     10512
     10507     10508     10510     10560     10508     10510     10560     10561
     10508     10510     10560     10562     10508     10510     10560     10563
     10509     10508     10510     10511     10509     10508     10510     10512
     10509     10508     10510     10560     10510     10560     10563     10564
     10510     10560     10563     10565     10510     10560     10563     10566
     10511     10510     10560     10561     10511     10510     10560     10562
     10511     10510     10560     10563     10512     10510     10560     10561
     10512     10510     10560     10562     10512     10510     10560     10563
     10513     10516     10519     10520     10513     10516     10519     10521
     10513     10516     10519     10522     10514     10513     10516     10517
     10514     10513     10516     10518     10514     10513     10516     10519
     10515     10513     10516     10517     10515     10513     10516     10518
     10515     10513     10516     10519     10516     10519     10522     10523
     10516     10519     10522     10524     10516     10519     10522     10525
     10517     10516     10519     10520     10517     10516     10519     10521
     10517     10516     10519     10522     10518     10516     10519     10520
     10518     10516     10519     10521     10518     10516     10519     10522
     10519     10522     10525     10526     10519     10522     10525     10527
     10519     10522     10525     10528     10520     10519     10522     10523
     10520     10519     10522     10524     10520     10519     10522     10525
     10521     10519     10522     10523     10521     10519     10522     10524
     10521     10519     10522     10525     10522     10525     10528     10529
     10522     10525     10528     10530     10522     10525     10528     10531
     10523     10522     10525     10526     10523     10522     10525     10527
     10523     10522     10525     10528     10524     10522     10525     10526
     10524     10522     10525     10527     10524     10522     10525     10528
     10525     10528     10531     10532     10525     10528     10531     10533
     10526     10525     10528     10529     10526     10525     10528     10530
     10526     10525     10528     10531     10527     10525     10528     10529
     10527     10525     10528     10530     10527     10525     10528     10531
     10528     10531     10533     10534     10528     10531     10533     10535
     10529     10528     10531     10532     10529     10528     10531     10533
     10530     10528     10531     10532     10530     10528     10531     10533
     10531     10533     10535     10536     10531     10533     10535     10537
     10531     10533     10535     10538     10532     10531     10533     10534
     10532     10531     10533     10535     10533     10535     10538     10539
     10533     10535     10538     10540     10533     10535     10538     10541
     10534     10533     10535     10536     10534     10533     10535     10537
     10534     10533     10535     10538     10535     10538     10541     10542
     10535     10538     10541     10543     10535     10538     10541     10544
     10536     10535     10538     10539     10536     10535     10538     10540
     10536     10535     10538     10541     10537     10535     10538     10539
     10537     10535     10538     10540     10537     10535     10538     10541
     10538     10541     10544     10545     10538     10541     10544     10546
     10538     10541     10544     10547     10539     10538     10541     10542
     10539     10538     10541     10543     10539     10538     10541     10544
     10540     10538     10541     10542     10540     10538     10541     10543
     10540     10538     10541     10544     10541     10544     10547     10548
     10541     10544     10547     10549     10541     10544     10547     10550
     10542     10541     10544     10545     10542     10541     10544     10546
     10542     10541     10544     10547     10543     10541     10544     10545
     10543     10541     10544     10546     10543     10541     10544     10547
     10544     10547     10550     10551     10544     10547     10550     10552
     10544     10547     10550     10553     10545     10544     10547     10548
     10545     10544     10547     10549     10545     10544     10547     10550
     10546     10544     10547     10548     10546     10544     10547     10549
     10546     10544     10547     10550     10547     10550     10553     10554
     10547     10550     10553     10555     10547     10550     10553     10556
     10548     10547     10550     10551     10548     10547     10550     10552
     10548     10547     10550     10553     10549     10547     10550     10551
     10549     10547     10550     10552     10549     10547     10550     10553
     10550     10553     10556     10557     10550     10553     10556     10558
     10550     10553     10556     10559     10551     10550     10553     10554
     10551     10550     10553     10555     10551     10550     10553     10556
     10552     10550     10553     10554     10552     10550     10553     10555
     10552     10550     10553     10556     10554     10553     10556     10557
     10554     10553     10556     10558     10554     10553     10556     10559
     10555     10553     10556     10557     10555     10553     10556     10558
     10555     10553     10556     10559     10560     10563     10566     10567
     10560     10563     10566     10568     10560     10563     10566     10569
     10561     10560     10563     10564     10561     10560     10563     10565
     10561     10560     10563     10566     10562     10560     10563     10564
     10562     10560     10563     10565     10562     10560     10563     10566
     10563     10566     10569     10570     10563     10566     10569     10571
     10563     10566     10569     10572     10564     10563     10566     10567
     10564     10563     10566     10568     10564     10563     10566     10569
     10565     10563     10566     10567     10565     10563     10566     10568
     10565     10563     10566     10569     10566     10569     10572     10573
     10566     10569     10572     10574     10566     10569     10572     10575
     10567     10566     10569     10570     10567     10566     10569     10571
     10567     10566     10569     10572     10568     10566     10569     10570
     10568     10566     10569     10571     10568     10566     10569     10572
     10569     10572     10575     10576     10569     10572     10575     10577
     10569     10572     10575     10578     10570     10569     10572     10573
     10570     10569     10572     10574     10570     10569     10572     10575
     10571     10569     10572     10573     10571     10569     10572     10574
     10571     10569     10572     10575     10572     10575     10578     10579
     10572     10575     10578     10580     10572     10575     10578     10581
     10573     10572     10575     10576     10573     10572     10575     10577
     10573     10572     10575     10578     10574     10572     10575     10576
     10574     10572     10575     10577     10574     10572     10575     10578
     10575     10578     10581     10582     10575     10578     10581     10583
     10575     10578     10581     10584     10576     10575     10578     10579
     10576     10575     10578     10580     10576     10575     10578     10581
     10577     10575     10578     10579     10577     10575     10578     10580
     10577     10575     10578     10581     10578     10581     10584     10585
     10578     10581     10584     10586     10578     10581     10584     10587
     10579     10578     10581     10582     10579     10578     10581     10583
     10579     10578     10581     10584     10580     10578     10581     10582
     10580     10578     10581     10583     10580     10578     10581     10584
     10581     10584     10587     10588     10581     10584     10587     10589
     10581     10584     10587     10590     10582     10581     10584     10585
     10582     10581     10584     10586     10582     10581     10584     10587
     10583     10581     10584     10585     10583     10581     10584     10586
     10583     10581     10584     10587     10584     10587     10590     10591
     10584     10587     10590     10592     10584     10587     10590     10593
     10585     10584     10587     10588     10585     10584     10587     10589
     10585     10584     10587     10590     10586     10584     10587     10588
     10586     10584     10587     10589     10586     10584     10587     10590
     10587     10590     10593     10594     10587     10590     10593     10595
     10587     10590     10593     10596     10588     10587     10590     10591
     10588     10587     10590     10592     10588     10587     10590     10593
     10589     10587     10590     10591     10589     10587     10590     10592
     10589     10587     10590     10593     10590     10593     10596     10597
     10590     10593     10596     10598     10590     10593     10596     10599
     10591     10590     10593     10594     10591     10590     10593     10595
     10591     10590     10593     10596     10592     10590     10593     10594
     10592     10590     10593     10595     10592     10590     10593     10596
     10593     10596     10599     10600     10593     10596     10599     10601
     10593     10596     10599     10602     10594     10593     10596     10597
     10594     10593     10596     10598     10594     10593     10596     10599
     10595     10593     10596     10597     10595     10593     10596     10598
     10595     10593     10596     10599     10597     10596     10599     10600
     10597     10596     10599     10601     10597     10596     10599     10602
     10598     10596     10599     10600     10598     10596     10599     10601
     10598     10596     10599     10602     10603     10604     10619     10620
     10603     10604     10619     10621     10603     10604     10619     10625
     10604     10603     10607     10608     10604     10603     10607     10609
     10604     10603     10607     10610     10604     10603     10611     10612
     10604     10603     10611     10613     10604     10603     10611     10614
     10604     10603     10615     10616     10604     10603     10615     10617
     10604     10603     10615     10618     10604     10619     10625     10622
     10605     10604     10603     10607     10605     10604     10603     10611
     10605     10604     10603     10615     10605     10604     10619     10620
     10605     10604     10619     10621     10605     10604     10619     10625
     10606     10604     10603     10607     10606     10604     10603     10611
     10606     10604     10603     10615     10606     10604     10619     10620
     10606     10604     10619     10621     10606     10604     10619     10625
     10607     10603     10604     10619     10607     10603     10611     10612
     10607     10603     10611     10613     10607     10603     10611     10614
     10607     10603     10615     10616     10607     10603     10615     10617
     10607     10603     10615     10618     10608     10607     10603     10611
     10608     10607     10603     10615     10609     10607     10603     10611
     10609     10607     10603     10615     10610     10607     10603     10611
     10610     10607     10603     10615     10611     10603     10604     10619
     10611     10603     10615     10616     10611     10603     10615     10617
     10611     10603     10615     10618     10612     10611     10603     10615
     10613     10611     10603     10615     10614     10611     10603     10615
     10615     10603     10604     10619     10619     10625     10622     10623
     10619     10625     10622     10624     10619     10625     10622     10626
     10620     10619     10625     10622     10621     10619     10625     10622
     10622     10626     10627     10628     10622     10626     10627     10629
     10622     10626     10627     10630     10623     10622     10626     10627
     10624     10622     10626     10627     10625     10622     10626     10627
     10626     10627     10630     10631     10626     10627     10630     10632
     10626     10627     10630     10638     10627     10630     10632     10633
     10627     10630     10638     10639     10627     10630     10638     10640
     10627     10630     10638     10641     10628     10627     10630     10631
     10628     10627     10630     10632     10628     10627     10630     10638
     10629     10627     10630     10631     10629     10627     10630     10632
     10629     10627     10630     10638     10630     10632     10633     10634
     10630     10632     10633     10635     10630     10638     10641     10642
     10631     10630     10632     10633     10631     10630     10638     10639
     10631     10630     10638     10640     10631     10630     10638     10641
     10632     10630     10638     10639     10632     10630     10638     10640
     10632     10630     10638     10641     10632     10633     10635     10636
     10632     10633     10635     10637     10632     10633     10635     10647
     10633     10632     10630     10638     10633     10635     10647     10648
     10633     10635     10647     10649     10633     10635     10647     10650
     10634     10633     10635     10636     10634     10633     10635     10637
     10634     10633     10635     10647     10635     10647     10650     10651
     10635     10647     10650     10652     10635     10647     10650     10653
     10636     10635     10647     10648     10636     10635     10647     10649
     10636     10635     10647     10650     10637     10635     10647     10648
     10637     10635     10647     10649     10637     10635     10647     10650
     10638     10641     10642     10643     10638     10641     10642     10644
     10639     10638     10641     10642     10640     10638     10641     10642
     10641     10642     10644     10645     10641     10642     10644     10646
     10641     10642     10644     10694     10642     10644     10694     10695
     10642     10644     10694     10696     10642     10644     10694     10697
     10643     10642     10644     10645     10643     10642     10644     10646
     10643     10642     10644     10694     10644     10694     10697     10698
     10644     10694     10697     10699     10644     10694     10697     10700
     10645     10644     10694     10695     10645     10644     10694     10696
     10645     10644     10694     10697     10646     10644     10694     10695
     10646     10644     10694     10696     10646     10644     10694     10697
     10647     10650     10653     10654     10647     10650     10653     10655
     10647     10650     10653     10656     10648     10647     10650     10651
     10648     10647     10650     10652     10648     10647     10650     10653
     10649     10647     10650     10651     10649     10647     10650     10652
     10649     10647     10650     10653     10650     10653     10656     10657
     10650     10653     10656     10658     10650     10653     10656     10659
     10651     10650     10653     10654     10651     10650     10653     10655
     10651     10650     10653     10656     10652     10650     10653     10654
     10652     10650     10653     10655     10652     10650     10653     10656
     10653     10656     10659     10660     10653     10656     10659     10661
     10653     10656     10659     10662     10654     10653     10656     10657
     10654     10653     10656     10658     10654     10653     10656     10659
     10655     10653     10656     10657     10655     10653     10656     10658
     10655     10653     10656     10659     10656     10659     10662     10663
     10656     10659     10662     10664     10656     10659     10662     10665
     10657     10656     10659     10660     10657     10656     10659     10661
     10657     10656     10659     10662     10658     10656     10659     10660
     10658     10656     10659     10661     10658     10656     10659     10662
     10659     10662     10665     10666     10659     10662     10665     10667
     10660     10659     10662     10663     10660     10659     10662     10664
     10660     10659     10662     10665     10661     10659     10662     10663
     10661     10659     10662     10664     10661     10659     10662     10665
     10662     10665     10667     10668     10662     10665     10667     10669
     10663     10662     10665     10666     10663     10662     10665     10667
     10664     10662     10665     10666     10664     10662     10665     10667
     10665     10667     10669     10670     10665     10667     10669     10671
     10665     10667     10669     10672     10666     10665     10667     10668
     10666     10665     10667     10669     10667     10669     10672     10673
     10667     10669     10672     10674     10667     10669     10672     10675
     10668     10667     10669     10670     10668     10667     10669     10671
     10668     10667     10669     10672     10669     10672     10675     10676
     10669     10672     10675     10677     10669     10672     10675     10678
     10670     10669     10672     10673     10670     10669     10672     10674
     10670     10669     10672     10675     10671     10669     10672     10673
     10671     10669     10672     10674     10671     10669     10672     10675
     10672     10675     10678     10679     10672     10675     10678     10680
     10672     10675     10678     10681     10673     10672     10675     10676
     10673     10672     10675     10677     10673     10672     10675     10678
     10674     10672     10675     10676     10674     10672     10675     10677
     10674     10672     10675     10678     10675     10678     10681     10682
     10675     10678     10681     10683     10675     10678     10681     10684
     10676     10675     10678     10679     10676     10675     10678     10680
     10676     10675     10678     10681     10677     10675     10678     10679
     10677     10675     10678     10680     10677     10675     10678     10681
     10678     10681     10684     10685     10678     10681     10684     10686
     10678     10681     10684     10687     10679     10678     10681     10682
     10679     10678     10681     10683     10679     10678     10681     10684
     10680     10678     10681     10682     10680     10678     10681     10683
     10680     10678     10681     10684     10681     10684     10687     10688
     10681     10684     10687     10689     10681     10684     10687     10690
     10682     10681     10684     10685     10682     10681     10684     10686
     10682     10681     10684     10687     10683     10681     10684     10685
     10683     10681     10684     10686     10683     10681     10684     10687
     10684     10687     10690     10691     10684     10687     10690     10692
     10684     10687     10690     10693     10685     10684     10687     10688
     10685     10684     10687     10689     10685     10684     10687     10690
     10686     10684     10687     10688     10686     10684     10687     10689
     10686     10684     10687     10690     10688     10687     10690     10691
     10688     10687     10690     10692     10688     10687     10690     10693
     10689     10687     10690     10691     10689     10687     10690     10692
     10689     10687     10690     10693     10694     10697     10700     10701
     10694     10697     10700     10702     10694     10697     10700     10703
     10695     10694     10697     10698     10695     10694     10697     10699
     10695     10694     10697     10700     10696     10694     10697     10698
     10696     10694     10697     10699     10696     10694     10697     10700
     10697     10700     10703     10704     10697     10700     10703     10705
     10697     10700     10703     10706     10698     10697     10700     10701
     10698     10697     10700     10702     10698     10697     10700     10703
     10699     10697     10700     10701     10699     10697     10700     10702
     10699     10697     10700     10703     10700     10703     10706     10707
     10700     10703     10706     10708     10700     10703     10706     10709
     10701     10700     10703     10704     10701     10700     10703     10705
     10701     10700     10703     10706     10702     10700     10703     10704
     10702     10700     10703     10705     10702     10700     10703     10706
     10703     10706     10709     10710     10703     10706     10709     10711
     10703     10706     10709     10712     10704     10703     10706     10707
     10704     10703     10706     10708     10704     10703     10706     10709
     10705     10703     10706     10707     10705     10703     10706     10708
     10705     10703     10706     10709     10706     10709     10712     10713
     10706     10709     10712     10714     10706     10709     10712     10715
     10707     10706     10709     10710     10707     10706     10709     10711
     10707     10706     10709     10712     10708     10706     10709     10710
     10708     10706     10709     10711     10708     10706     10709     10712
     10709     10712     10715     10716     10709     10712     10715     10717
     10709     10712     10715     10718     10710     10709     10712     10713
     10710     10709     10712     10714     10710     10709     10712     10715
     10711     10709     10712     10713     10711     10709     10712     10714
     10711     10709     10712     10715     10712     10715     10718     10719
     10712     10715     10718     10720     10712     10715     10718     10721
     10713     10712     10715     10716     10713     10712     10715     10717
     10713     10712     10715     10718     10714     10712     10715     10716
     10714     10712     10715     10717     10714     10712     10715     10718
     10715     10718     10721     10722     10715     10718     10721     10723
     10715     10718     10721     10724     10716     10715     10718     10719
     10716     10715     10718     10720     10716     10715     10718     10721
     10717     10715     10718     10719     10717     10715     10718     10720
     10717     10715     10718     10721     10718     10721     10724     10725
     10718     10721     10724     10726     10718     10721     10724     10727
     10719     10718     10721     10722     10719     10718     10721     10723
     10719     10718     10721     10724     10720     10718     10721     10722
     10720     10718     10721     10723     10720     10718     10721     10724
     10721     10724     10727     10728     10721     10724     10727     10729
     10721     10724     10727     10730     10722     10721     10724     10725
     10722     10721     10724     10726     10722     10721     10724     10727
     10723     10721     10724     10725     10723     10721     10724     10726
     10723     10721     10724     10727     10724     10727     10730     10731
     10724     10727     10730     10732     10724     10727     10730     10733
     10725     10724     10727     10728     10725     10724     10727     10729
     10725     10724     10727     10730     10726     10724     10727     10728
     10726     10724     10727     10729     10726     10724     10727     10730
     10727     10730     10733     10734     10727     10730     10733     10735
     10727     10730     10733     10736     10728     10727     10730     10731
     10728     10727     10730     10732     10728     10727     10730     10733
     10729     10727     10730     10731     10729     10727     10730     10732
     10729     10727     10730     10733     10731     10730     10733     10734
     10731     10730     10733     10735     10731     10730     10733     10736
     10732     10730     10733     10734     10732     10730     10733     10735
     10732     10730     10733     10736     10737     10738     10753     10754
     10737     10738     10753     10755     10737     10738     10753     10759
     10738     10737     10741     10742     10738     10737     10741     10743
     10738     10737     10741     10744     10738     10737     10745     10746
     10738     10737     10745     10747     10738     10737     10745     10748
     10738     10737     10749     10750     10738     10737     10749     10751
     10738     10737     10749     10752     10738     10753     10759     10756
     10739     10738     10737     10741     10739     10738     10737     10745
     10739     10738     10737     10749     10739     10738     10753     10754
     10739     10738     10753     10755     10739     10738     10753     10759
     10740     10738     10737     10741     10740     10738     10737     10745
     10740     10738     10737     10749     10740     10738     10753     10754
     10740     10738     10753     10755     10740     10738     10753     10759
     10741     10737     10738     10753     10741     10737     10745     10746
     10741     10737     10745     10747     10741     10737     10745     10748
     10741     10737     10749     10750     10741     10737     10749     10751
     10741     10737     10749     10752     10742     10741     10737     10745
     10742     10741     10737     10749     10743     10741     10737     10745
     10743     10741     10737     10749     10744     10741     10737     10745
     10744     10741     10737     10749     10745     10737     10738     10753
     10745     10737     10749     10750     10745     10737     10749     10751
     10745     10737     10749     10752     10746     10745     10737     10749
     10747     10745     10737     10749     10748     10745     10737     10749
     10749     10737     10738     10753     10753     10759     10756     10757
     10753     10759     10756     10758     10753     10759     10756     10760
     10754     10753     10759     10756     10755     10753     10759     10756
     10756     10760     10761     10762     10756     10760     10761     10763
     10756     10760     10761     10764     10757     10756     10760     10761
     10758     10756     10760     10761     10759     10756     10760     10761
     10760     10761     10764     10765     10760     10761     10764     10766
     10760     10761     10764     10772     10761     10764     10766     10767
     10761     10764     10772     10773     10761     10764     10772     10774
     10761     10764     10772     10775     10762     10761     10764     10765
     10762     10761     10764     10766     10762     10761     10764     10772
     10763     10761     10764     10765     10763     10761     10764     10766
     10763     10761     10764     10772     10764     10766     10767     10768
     10764     10766     10767     10769     10764     10772     10775     10776
     10765     10764     10766     10767     10765     10764     10772     10773
     10765     10764     10772     10774     10765     10764     10772     10775
     10766     10764     10772     10773     10766     10764     10772     10774
     10766     10764     10772     10775     10766     10767     10769     10770
     10766     10767     10769     10771     10766     10767     10769     10781
     10767     10766     10764     10772     10767     10769     10781     10782
     10767     10769     10781     10783     10767     10769     10781     10784
     10768     10767     10769     10770     10768     10767     10769     10771
     10768     10767     10769     10781     10769     10781     10784     10785
     10769     10781     10784     10786     10769     10781     10784     10787
     10770     10769     10781     10782     10770     10769     10781     10783
     10770     10769     10781     10784     10771     10769     10781     10782
     10771     10769     10781     10783     10771     10769     10781     10784
     10772     10775     10776     10777     10772     10775     10776     10778
     10773     10772     10775     10776     10774     10772     10775     10776
     10775     10776     10778     10779     10775     10776     10778     10780
     10775     10776     10778     10828     10776     10778     10828     10829
     10776     10778     10828     10830     10776     10778     10828     10831
     10777     10776     10778     10779     10777     10776     10778     10780
     10777     10776     10778     10828     10778     10828     10831     10832
     10778     10828     10831     10833     10778     10828     10831     10834
     10779     10778     10828     10829     10779     10778     10828     10830
     10779     10778     10828     10831     10780     10778     10828     10829
     10780     10778     10828     10830     10780     10778     10828     10831
     10781     10784     10787     10788     10781     10784     10787     10789
     10781     10784     10787     10790     10782     10781     10784     10785
     10782     10781     10784     10786     10782     10781     10784     10787
     10783     10781     10784     10785     10783     10781     10784     10786
     10783     10781     10784     10787     10784     10787     10790     10791
     10784     10787     10790     10792     10784     10787     10790     10793
     10785     10784     10787     10788     10785     10784     10787     10789
     10785     10784     10787     10790     10786     10784     10787     10788
     10786     10784     10787     10789     10786     10784     10787     10790
     10787     10790     10793     10794     10787     10790     10793     10795
     10787     10790     10793     10796     10788     10787     10790     10791
     10788     10787     10790     10792     10788     10787     10790     10793
     10789     10787     10790     10791     10789     10787     10790     10792
     10789     10787     10790     10793     10790     10793     10796     10797
     10790     10793     10796     10798     10790     10793     10796     10799
     10791     10790     10793     10794     10791     10790     10793     10795
     10791     10790     10793     10796     10792     10790     10793     10794
     10792     10790     10793     10795     10792     10790     10793     10796
     10793     10796     10799     10800     10793     10796     10799     10801
     10794     10793     10796     10797     10794     10793     10796     10798
     10794     10793     10796     10799     10795     10793     10796     10797
     10795     10793     10796     10798     10795     10793     10796     10799
     10796     10799     10801     10802     10796     10799     10801     10803
     10797     10796     10799     10800     10797     10796     10799     10801
     10798     10796     10799     10800     10798     10796     10799     10801
     10799     10801     10803     10804     10799     10801     10803     10805
     10799     10801     10803     10806     10800     10799     10801     10802
     10800     10799     10801     10803     10801     10803     10806     10807
     10801     10803     10806     10808     10801     10803     10806     10809
     10802     10801     10803     10804     10802     10801     10803     10805
     10802     10801     10803     10806     10803     10806     10809     10810
     10803     10806     10809     10811     10803     10806     10809     10812
     10804     10803     10806     10807     10804     10803     10806     10808
     10804     10803     10806     10809     10805     10803     10806     10807
     10805     10803     10806     10808     10805     10803     10806     10809
     10806     10809     10812     10813     10806     10809     10812     10814
     10806     10809     10812     10815     10807     10806     10809     10810
     10807     10806     10809     10811     10807     10806     10809     10812
     10808     10806     10809     10810     10808     10806     10809     10811
     10808     10806     10809     10812     10809     10812     10815     10816
     10809     10812     10815     10817     10809     10812     10815     10818
     10810     10809     10812     10813     10810     10809     10812     10814
     10810     10809     10812     10815     10811     10809     10812     10813
     10811     10809     10812     10814     10811     10809     10812     10815
     10812     10815     10818     10819     10812     10815     10818     10820
     10812     10815     10818     10821     10813     10812     10815     10816
     10813     10812     10815     10817     10813     10812     10815     10818
     10814     10812     10815     10816     10814     10812     10815     10817
     10814     10812     10815     10818     10815     10818     10821     10822
     10815     10818     10821     10823     10815     10818     10821     10824
     10816     10815     10818     10819     10816     10815     10818     10820
     10816     10815     10818     10821     10817     10815     10818     10819
     10817     10815     10818     10820     10817     10815     10818     10821
     10818     10821     10824     10825     10818     10821     10824     10826
     10818     10821     10824     10827     10819     10818     10821     10822
     10819     10818     10821     10823     10819     10818     10821     10824
     10820     10818     10821     10822     10820     10818     10821     10823
     10820     10818     10821     10824     10822     10821     10824     10825
     10822     10821     10824     10826     10822     10821     10824     10827
     10823     10821     10824     10825     10823     10821     10824     10826
     10823     10821     10824     10827     10828     10831     10834     10835
     10828     10831     10834     10836     10828     10831     10834     10837
     10829     10828     10831     10832     10829     10828     10831     10833
     10829     10828     10831     10834     10830     10828     10831     10832
     10830     10828     10831     10833     10830     10828     10831     10834
     10831     10834     10837     10838     10831     10834     10837     10839
     10831     10834     10837     10840     10832     10831     10834     10835
     10832     10831     10834     10836     10832     10831     10834     10837
     10833     10831     10834     10835     10833     10831     10834     10836
     10833     10831     10834     10837     10834     10837     10840     10841
     10834     10837     10840     10842     10834     10837     10840     10843
     10835     10834     10837     10838     10835     10834     10837     10839
     10835     10834     10837     10840     10836     10834     10837     10838
     10836     10834     10837     10839     10836     10834     10837     10840
     10837     10840     10843     10844     10837     10840     10843     10845
     10837     10840     10843     10846     10838     10837     10840     10841
     10838     10837     10840     10842     10838     10837     10840     10843
     10839     10837     10840     10841     10839     10837     10840     10842
     10839     10837     10840     10843     10840     10843     10846     10847
     10840     10843     10846     10848     10840     10843     10846     10849
     10841     10840     10843     10844     10841     10840     10843     10845
     10841     10840     10843     10846     10842     10840     10843     10844
     10842     10840     10843     10845     10842     10840     10843     10846
     10843     10846     10849     10850     10843     10846     10849     10851
     10843     10846     10849     10852     10844     10843     10846     10847
     10844     10843     10846     10848     10844     10843     10846     10849
     10845     10843     10846     10847     10845     10843     10846     10848
     10845     10843     10846     10849     10846     10849     10852     10853
     10846     10849     10852     10854     10846     10849     10852     10855
     10847     10846     10849     10850     10847     10846     10849     10851
     10847     10846     10849     10852     10848     10846     10849     10850
     10848     10846     10849     10851     10848     10846     10849     10852
     10849     10852     10855     10856     10849     10852     10855     10857
     10849     10852     10855     10858     10850     10849     10852     10853
     10850     10849     10852     10854     10850     10849     10852     10855
     10851     10849     10852     10853     10851     10849     10852     10854
     10851     10849     10852     10855     10852     10855     10858     10859
     10852     10855     10858     10860     10852     10855     10858     10861
     10853     10852     10855     10856     10853     10852     10855     10857
     10853     10852     10855     10858     10854     10852     10855     10856
     10854     10852     10855     10857     10854     10852     10855     10858
     10855     10858     10861     10862     10855     10858     10861     10863
     10855     10858     10861     10864     10856     10855     10858     10859
     10856     10855     10858     10860     10856     10855     10858     10861
     10857     10855     10858     10859     10857     10855     10858     10860
     10857     10855     10858     10861     10858     10861     10864     10865
     10858     10861     10864     10866     10858     10861     10864     10867
     10859     10858     10861     10862     10859     10858     10861     10863
     10859     10858     10861     10864     10860     10858     10861     10862
     10860     10858     10861     10863     10860     10858     10861     10864
     10861     10864     10867     10868     10861     10864     10867     10869
     10861     10864     10867     10870     10862     10861     10864     10865
     10862     10861     10864     10866     10862     10861     10864     10867
     10863     10861     10864     10865     10863     10861     10864     10866
     10863     10861     10864     10867     10865     10864     10867     10868
     10865     10864     10867     10869     10865     10864     10867     10870
     10866     10864     10867     10868     10866     10864     10867     10869
     10866     10864     10867     10870     10871     10872     10887     10888
     10871     10872     10887     10889     10871     10872     10887     10893
     10872     10871     10875     10876     10872     10871     10875     10877
     10872     10871     10875     10878     10872     10871     10879     10880
     10872     10871     10879     10881     10872     10871     10879     10882
     10872     10871     10883     10884     10872     10871     10883     10885
     10872     10871     10883     10886     10872     10887     10893     10890
     10873     10872     10871     10875     10873     10872     10871     10879
     10873     10872     10871     10883     10873     10872     10887     10888
     10873     10872     10887     10889     10873     10872     10887     10893
     10874     10872     10871     10875     10874     10872     10871     10879
     10874     10872     10871     10883     10874     10872     10887     10888
     10874     10872     10887     10889     10874     10872     10887     10893
     10875     10871     10872     10887     10875     10871     10879     10880
     10875     10871     10879     10881     10875     10871     10879     10882
     10875     10871     10883     10884     10875     10871     10883     10885
     10875     10871     10883     10886     10876     10875     10871     10879
     10876     10875     10871     10883     10877     10875     10871     10879
     10877     10875     10871     10883     10878     10875     10871     10879
     10878     10875     10871     10883     10879     10871     10872     10887
     10879     10871     10883     10884     10879     10871     10883     10885
     10879     10871     10883     10886     10880     10879     10871     10883
     10881     10879     10871     10883     10882     10879     10871     10883
     10883     10871     10872     10887     10887     10893     10890     10891
     10887     10893     10890     10892     10887     10893     10890     10894
     10888     10887     10893     10890     10889     10887     10893     10890
     10890     10894     10895     10896     10890     10894     10895     10897
     10890     10894     10895     10898     10891     10890     10894     10895
     10892     10890     10894     10895     10893     10890     10894     10895
     10894     10895     10898     10899     10894     10895     10898     10900
     10894     10895     10898     10906     10895     10898     10900     10901
     10895     10898     10906     10907     10895     10898     10906     10908
     10895     10898     10906     10909     10896     10895     10898     10899
     10896     10895     10898     10900     10896     10895     10898     10906
     10897     10895     10898     10899     10897     10895     10898     10900
     10897     10895     10898     10906     10898     10900     10901     10902
     10898     10900     10901     10903     10898     10906     10909     10910
     10899     10898     10900     10901     10899     10898     10906     10907
     10899     10898     10906     10908     10899     10898     10906     10909
     10900     10898     10906     10907     10900     10898     10906     10908
     10900     10898     10906     10909     10900     10901     10903     10904
     10900     10901     10903     10905     10900     10901     10903     10915
     10901     10900     10898     10906     10901     10903     10915     10916
     10901     10903     10915     10917     10901     10903     10915     10918
     10902     10901     10903     10904     10902     10901     10903     10905
     10902     10901     10903     10915     10903     10915     10918     10919
     10903     10915     10918     10920     10903     10915     10918     10921
     10904     10903     10915     10916     10904     10903     10915     10917
     10904     10903     10915     10918     10905     10903     10915     10916
     10905     10903     10915     10917     10905     10903     10915     10918
     10906     10909     10910     10911     10906     10909     10910     10912
     10907     10906     10909     10910     10908     10906     10909     10910
     10909     10910     10912     10913     10909     10910     10912     10914
     10909     10910     10912     10962     10910     10912     10962     10963
     10910     10912     10962     10964     10910     10912     10962     10965
     10911     10910     10912     10913     10911     10910     10912     10914
     10911     10910     10912     10962     10912     10962     10965     10966
     10912     10962     10965     10967     10912     10962     10965     10968
     10913     10912     10962     10963     10913     10912     10962     10964
     10913     10912     10962     10965     10914     10912     10962     10963
     10914     10912     10962     10964     10914     10912     10962     10965
     10915     10918     10921     10922     10915     10918     10921     10923
     10915     10918     10921     10924     10916     10915     10918     10919
     10916     10915     10918     10920     10916     10915     10918     10921
     10917     10915     10918     10919     10917     10915     10918     10920
     10917     10915     10918     10921     10918     10921     10924     10925
     10918     10921     10924     10926     10918     10921     10924     10927
     10919     10918     10921     10922     10919     10918     10921     10923
     10919     10918     10921     10924     10920     10918     10921     10922
     10920     10918     10921     10923     10920     10918     10921     10924
     10921     10924     10927     10928     10921     10924     10927     10929
     10921     10924     10927     10930     10922     10921     10924     10925
     10922     10921     10924     10926     10922     10921     10924     10927
     10923     10921     10924     10925     10923     10921     10924     10926
     10923     10921     10924     10927     10924     10927     10930     10931
     10924     10927     10930     10932     10924     10927     10930     10933
     10925     10924     10927     10928     10925     10924     10927     10929
     10925     10924     10927     10930     10926     10924     10927     10928
     10926     10924     10927     10929     10926     10924     10927     10930
     10927     10930     10933     10934     10927     10930     10933     10935
     10928     10927     10930     10931     10928     10927     10930     10932
     10928     10927     10930     10933     10929     10927     10930     10931
     10929     10927     10930     10932     10929     10927     10930     10933
     10930     10933     10935     10936     10930     10933     10935     10937
     10931     10930     10933     10934     10931     10930     10933     10935
     10932     10930     10933     10934     10932     10930     10933     10935
     10933     10935     10937     10938     10933     10935     10937     10939
     10933     10935     10937     10940     10934     10933     10935     10936
     10934     10933     10935     10937     10935     10937     10940     10941
     10935     10937     10940     10942     10935     10937     10940     10943
     10936     10935     10937     10938     10936     10935     10937     10939
     10936     10935     10937     10940     10937     10940     10943     10944
     10937     10940     10943     10945     10937     10940     10943     10946
     10938     10937     10940     10941     10938     10937     10940     10942
     10938     10937     10940     10943     10939     10937     10940     10941
     10939     10937     10940     10942     10939     10937     10940     10943
     10940     10943     10946     10947     10940     10943     10946     10948
     10940     10943     10946     10949     10941     10940     10943     10944
     10941     10940     10943     10945     10941     10940     10943     10946
     10942     10940     10943     10944     10942     10940     10943     10945
     10942     10940     10943     10946     10943     10946     10949     10950
     10943     10946     10949     10951     10943     10946     10949     10952
     10944     10943     10946     10947     10944     10943     10946     10948
     10944     10943     10946     10949     10945     10943     10946     10947
     10945     10943     10946     10948     10945     10943     10946     10949
     10946     10949     10952     10953     10946     10949     10952     10954
     10946     10949     10952     10955     10947     10946     10949     10950
     10947     10946     10949     10951     10947     10946     10949     10952
     10948     10946     10949     10950     10948     10946     10949     10951
     10948     10946     10949     10952     10949     10952     10955     10956
     10949     10952     10955     10957     10949     10952     10955     10958
     10950     10949     10952     10953     10950     10949     10952     10954
     10950     10949     10952     10955     10951     10949     10952     10953
     10951     10949     10952     10954     10951     10949     10952     10955
     10952     10955     10958     10959     10952     10955     10958     10960
     10952     10955     10958     10961     10953     10952     10955     10956
     10953     10952     10955     10957     10953     10952     10955     10958
     10954     10952     10955     10956     10954     10952     10955     10957
     10954     10952     10955     10958     10956     10955     10958     10959
     10956     10955     10958     10960     10956     10955     10958     10961
     10957     10955     10958     10959     10957     10955     10958     10960
     10957     10955     10958     10961     10962     10965     10968     10969
     10962     10965     10968     10970     10962     10965     10968     10971
     10963     10962     10965     10966     10963     10962     10965     10967
     10963     10962     10965     10968     10964     10962     10965     10966
     10964     10962     10965     10967     10964     10962     10965     10968
     10965     10968     10971     10972     10965     10968     10971     10973
     10965     10968     10971     10974     10966     10965     10968     10969
     10966     10965     10968     10970     10966     10965     10968     10971
     10967     10965     10968     10969     10967     10965     10968     10970
     10967     10965     10968     10971     10968     10971     10974     10975
     10968     10971     10974     10976     10968     10971     10974     10977
     10969     10968     10971     10972     10969     10968     10971     10973
     10969     10968     10971     10974     10970     10968     10971     10972
     10970     10968     10971     10973     10970     10968     10971     10974
     10971     10974     10977     10978     10971     10974     10977     10979
     10971     10974     10977     10980     10972     10971     10974     10975
     10972     10971     10974     10976     10972     10971     10974     10977
     10973     10971     10974     10975     10973     10971     10974     10976
     10973     10971     10974     10977     10974     10977     10980     10981
     10974     10977     10980     10982     10974     10977     10980     10983
     10975     10974     10977     10978     10975     10974     10977     10979
     10975     10974     10977     10980     10976     10974     10977     10978
     10976     10974     10977     10979     10976     10974     10977     10980
     10977     10980     10983     10984     10977     10980     10983     10985
     10977     10980     10983     10986     10978     10977     10980     10981
     10978     10977     10980     10982     10978     10977     10980     10983
     10979     10977     10980     10981     10979     10977     10980     10982
     10979     10977     10980     10983     10980     10983     10986     10987
     10980     10983     10986     10988     10980     10983     10986     10989
     10981     10980     10983     10984     10981     10980     10983     10985
     10981     10980     10983     10986     10982     10980     10983     10984
     10982     10980     10983     10985     10982     10980     10983     10986
     10983     10986     10989     10990     10983     10986     10989     10991
     10983     10986     10989     10992     10984     10983     10986     10987
     10984     10983     10986     10988     10984     10983     10986     10989
     10985     10983     10986     10987     10985     10983     10986     10988
     10985     10983     10986     10989     10986     10989     10992     10993
     10986     10989     10992     10994     10986     10989     10992     10995
     10987     10986     10989     10990     10987     10986     10989     10991
     10987     10986     10989     10992     10988     10986     10989     10990
     10988     10986     10989     10991     10988     10986     10989     10992
     10989     10992     10995     10996     10989     10992     10995     10997
     10989     10992     10995     10998     10990     10989     10992     10993
     10990     10989     10992     10994     10990     10989     10992     10995
     10991     10989     10992     10993     10991     10989     10992     10994
     10991     10989     10992     10995     10992     10995     10998     10999
     10992     10995     10998     11000     10992     10995     10998     11001
     10993     10992     10995     10996     10993     10992     10995     10997
     10993     10992     10995     10998     10994     10992     10995     10996
     10994     10992     10995     10997     10994     10992     10995     10998
     10995     10998     11001     11002     10995     10998     11001     11003
     10995     10998     11001     11004     10996     10995     10998     10999
     10996     10995     10998     11000     10996     10995     10998     11001
     10997     10995     10998     10999     10997     10995     10998     11000
     10997     10995     10998     11001     10999     10998     11001     11002
     10999     10998     11001     11003     10999     10998     11001     11004
     11000     10998     11001     11002     11000     10998     11001     11003
     11000     10998     11001     11004     11005     11006     11021     11022
     11005     11006     11021     11023     11005     11006     11021     11027
     11006     11005     11009     11010     11006     11005     11009     11011
     11006     11005     11009     11012     11006     11005     11013     11014
     11006     11005     11013     11015     11006     11005     11013     11016
     11006     11005     11017     11018     11006     11005     11017     11019
     11006     11005     11017     11020     11006     11021     11027     11024
     11007     11006     11005     11009     11007     11006     11005     11013
     11007     11006     11005     11017     11007     11006     11021     11022
     11007     11006     11021     11023     11007     11006     11021     11027
     11008     11006     11005     11009     11008     11006     11005     11013
     11008     11006     11005     11017     11008     11006     11021     11022
     11008     11006     11021     11023     11008     11006     11021     11027
     11009     11005     11006     11021     11009     11005     11013     11014
     11009     11005     11013     11015     11009     11005     11013     11016
     11009     11005     11017     11018     11009     11005     11017     11019
     11009     11005     11017     11020     11010     11009     11005     11013
     11010     11009     11005     11017     11011     11009     11005     11013
     11011     11009     11005     11017     11012     11009     11005     11013
     11012     11009     11005     11017     11013     11005     11006     11021
     11013     11005     11017     11018     11013     11005     11017     11019
     11013     11005     11017     11020     11014     11013     11005     11017
     11015     11013     11005     11017     11016     11013     11005     11017
     11017     11005     11006     11021     11021     11027     11024     11025
     11021     11027     11024     11026     11021     11027     11024     11028
     11022     11021     11027     11024     11023     11021     11027     11024
     11024     11028     11029     11030     11024     11028     11029     11031
     11024     11028     11029     11032     11025     11024     11028     11029
     11026     11024     11028     11029     11027     11024     11028     11029
     11028     11029     11032     11033     11028     11029     11032     11034
     11028     11029     11032     11040     11029     11032     11034     11035
     11029     11032     11040     11041     11029     11032     11040     11042
     11029     11032     11040     11043     11030     11029     11032     11033
     11030     11029     11032     11034     11030     11029     11032     11040
     11031     11029     11032     11033     11031     11029     11032     11034
     11031     11029     11032     11040     11032     11034     11035     11036
     11032     11034     11035     11037     11032     11040     11043     11044
     11033     11032     11034     11035     11033     11032     11040     11041
     11033     11032     11040     11042     11033     11032     11040     11043
     11034     11032     11040     11041     11034     11032     11040     11042
     11034     11032     11040     11043     11034     11035     11037     11038
     11034     11035     11037     11039     11034     11035     11037     11049
     11035     11034     11032     11040     11035     11037     11049     11050
     11035     11037     11049     11051     11035     11037     11049     11052
     11036     11035     11037     11038     11036     11035     11037     11039
     11036     11035     11037     11049     11037     11049     11052     11053
     11037     11049     11052     11054     11037     11049     11052     11055
     11038     11037     11049     11050     11038     11037     11049     11051
     11038     11037     11049     11052     11039     11037     11049     11050
     11039     11037     11049     11051     11039     11037     11049     11052
     11040     11043     11044     11045     11040     11043     11044     11046
     11041     11040     11043     11044     11042     11040     11043     11044
     11043     11044     11046     11047     11043     11044     11046     11048
     11043     11044     11046     11096     11044     11046     11096     11097
     11044     11046     11096     11098     11044     11046     11096     11099
     11045     11044     11046     11047     11045     11044     11046     11048
     11045     11044     11046     11096     11046     11096     11099     11100
     11046     11096     11099     11101     11046     11096     11099     11102
     11047     11046     11096     11097     11047     11046     11096     11098
     11047     11046     11096     11099     11048     11046     11096     11097
     11048     11046     11096     11098     11048     11046     11096     11099
     11049     11052     11055     11056     11049     11052     11055     11057
     11049     11052     11055     11058     11050     11049     11052     11053
     11050     11049     11052     11054     11050     11049     11052     11055
     11051     11049     11052     11053     11051     11049     11052     11054
     11051     11049     11052     11055     11052     11055     11058     11059
     11052     11055     11058     11060     11052     11055     11058     11061
     11053     11052     11055     11056     11053     11052     11055     11057
     11053     11052     11055     11058     11054     11052     11055     11056
     11054     11052     11055     11057     11054     11052     11055     11058
     11055     11058     11061     11062     11055     11058     11061     11063
     11055     11058     11061     11064     11056     11055     11058     11059
     11056     11055     11058     11060     11056     11055     11058     11061
     11057     11055     11058     11059     11057     11055     11058     11060
     11057     11055     11058     11061     11058     11061     11064     11065
     11058     11061     11064     11066     11058     11061     11064     11067
     11059     11058     11061     11062     11059     11058     11061     11063
     11059     11058     11061     11064     11060     11058     11061     11062
     11060     11058     11061     11063     11060     11058     11061     11064
     11061     11064     11067     11068     11061     11064     11067     11069
     11062     11061     11064     11065     11062     11061     11064     11066
     11062     11061     11064     11067     11063     11061     11064     11065
     11063     11061     11064     11066     11063     11061     11064     11067
     11064     11067     11069     11070     11064     11067     11069     11071
     11065     11064     11067     11068     11065     11064     11067     11069
     11066     11064     11067     11068     11066     11064     11067     11069
     11067     11069     11071     11072     11067     11069     11071     11073
     11067     11069     11071     11074     11068     11067     11069     11070
     11068     11067     11069     11071     11069     11071     11074     11075
     11069     11071     11074     11076     11069     11071     11074     11077
     11070     11069     11071     11072     11070     11069     11071     11073
     11070     11069     11071     11074     11071     11074     11077     11078
     11071     11074     11077     11079     11071     11074     11077     11080
     11072     11071     11074     11075     11072     11071     11074     11076
     11072     11071     11074     11077     11073     11071     11074     11075
     11073     11071     11074     11076     11073     11071     11074     11077
     11074     11077     11080     11081     11074     11077     11080     11082
     11074     11077     11080     11083     11075     11074     11077     11078
     11075     11074     11077     11079     11075     11074     11077     11080
     11076     11074     11077     11078     11076     11074     11077     11079
     11076     11074     11077     11080     11077     11080     11083     11084
     11077     11080     11083     11085     11077     11080     11083     11086
     11078     11077     11080     11081     11078     11077     11080     11082
     11078     11077     11080     11083     11079     11077     11080     11081
     11079     11077     11080     11082     11079     11077     11080     11083
     11080     11083     11086     11087     11080     11083     11086     11088
     11080     11083     11086     11089     11081     11080     11083     11084
     11081     11080     11083     11085     11081     11080     11083     11086
     11082     11080     11083     11084     11082     11080     11083     11085
     11082     11080     11083     11086     11083     11086     11089     11090
     11083     11086     11089     11091     11083     11086     11089     11092
     11084     11083     11086     11087     11084     11083     11086     11088
     11084     11083     11086     11089     11085     11083     11086     11087
     11085     11083     11086     11088     11085     11083     11086     11089
     11086     11089     11092     11093     11086     11089     11092     11094
     11086     11089     11092     11095     11087     11086     11089     11090
     11087     11086     11089     11091     11087     11086     11089     11092
     11088     11086     11089     11090     11088     11086     11089     11091
     11088     11086     11089     11092     11090     11089     11092     11093
     11090     11089     11092     11094     11090     11089     11092     11095
     11091     11089     11092     11093     11091     11089     11092     11094
     11091     11089     11092     11095     11096     11099     11102     11103
     11096     11099     11102     11104     11096     11099     11102     11105
     11097     11096     11099     11100     11097     11096     11099     11101
     11097     11096     11099     11102     11098     11096     11099     11100
     11098     11096     11099     11101     11098     11096     11099     11102
     11099     11102     11105     11106     11099     11102     11105     11107
     11099     11102     11105     11108     11100     11099     11102     11103
     11100     11099     11102     11104     11100     11099     11102     11105
     11101     11099     11102     11103     11101     11099     11102     11104
     11101     11099     11102     11105     11102     11105     11108     11109
     11102     11105     11108     11110     11102     11105     11108     11111
     11103     11102     11105     11106     11103     11102     11105     11107
     11103     11102     11105     11108     11104     11102     11105     11106
     11104     11102     11105     11107     11104     11102     11105     11108
     11105     11108     11111     11112     11105     11108     11111     11113
     11105     11108     11111     11114     11106     11105     11108     11109
     11106     11105     11108     11110     11106     11105     11108     11111
     11107     11105     11108     11109     11107     11105     11108     11110
     11107     11105     11108     11111     11108     11111     11114     11115
     11108     11111     11114     11116     11108     11111     11114     11117
     11109     11108     11111     11112     11109     11108     11111     11113
     11109     11108     11111     11114     11110     11108     11111     11112
     11110     11108     11111     11113     11110     11108     11111     11114
     11111     11114     11117     11118     11111     11114     11117     11119
     11111     11114     11117     11120     11112     11111     11114     11115
     11112     11111     11114     11116     11112     11111     11114     11117
     11113     11111     11114     11115     11113     11111     11114     11116
     11113     11111     11114     11117     11114     11117     11120     11121
     11114     11117     11120     11122     11114     11117     11120     11123
     11115     11114     11117     11118     11115     11114     11117     11119
     11115     11114     11117     11120     11116     11114     11117     11118
     11116     11114     11117     11119     11116     11114     11117     11120
     11117     11120     11123     11124     11117     11120     11123     11125
     11117     11120     11123     11126     11118     11117     11120     11121
     11118     11117     11120     11122     11118     11117     11120     11123
     11119     11117     11120     11121     11119     11117     11120     11122
     11119     11117     11120     11123     11120     11123     11126     11127
     11120     11123     11126     11128     11120     11123     11126     11129
     11121     11120     11123     11124     11121     11120     11123     11125
     11121     11120     11123     11126     11122     11120     11123     11124
     11122     11120     11123     11125     11122     11120     11123     11126
     11123     11126     11129     11130     11123     11126     11129     11131
     11123     11126     11129     11132     11124     11123     11126     11127
     11124     11123     11126     11128     11124     11123     11126     11129
     11125     11123     11126     11127     11125     11123     11126     11128
     11125     11123     11126     11129     11126     11129     11132     11133
     11126     11129     11132     11134     11126     11129     11132     11135
     11127     11126     11129     11130     11127     11126     11129     11131
     11127     11126     11129     11132     11128     11126     11129     11130
     11128     11126     11129     11131     11128     11126     11129     11132
     11129     11132     11135     11136     11129     11132     11135     11137
     11129     11132     11135     11138     11130     11129     11132     11133
     11130     11129     11132     11134     11130     11129     11132     11135
     11131     11129     11132     11133     11131     11129     11132     11134
     11131     11129     11132     11135     11133     11132     11135     11136
     11133     11132     11135     11137     11133     11132     11135     11138
     11134     11132     11135     11136     11134     11132     11135     11137
     11134     11132     11135     11138     11139     11140     11155     11156
     11139     11140     11155     11157     11139     11140     11155     11161
     11140     11139     11143     11144     11140     11139     11143     11145
     11140     11139     11143     11146     11140     11139     11147     11148
     11140     11139     11147     11149     11140     11139     11147     11150
     11140     11139     11151     11152     11140     11139     11151     11153
     11140     11139     11151     11154     11140     11155     11161     11158
     11141     11140     11139     11143     11141     11140     11139     11147
     11141     11140     11139     11151     11141     11140     11155     11156
     11141     11140     11155     11157     11141     11140     11155     11161
     11142     11140     11139     11143     11142     11140     11139     11147
     11142     11140     11139     11151     11142     11140     11155     11156
     11142     11140     11155     11157     11142     11140     11155     11161
     11143     11139     11140     11155     11143     11139     11147     11148
     11143     11139     11147     11149     11143     11139     11147     11150
     11143     11139     11151     11152     11143     11139     11151     11153
     11143     11139     11151     11154     11144     11143     11139     11147
     11144     11143     11139     11151     11145     11143     11139     11147
     11145     11143     11139     11151     11146     11143     11139     11147
     11146     11143     11139     11151     11147     11139     11140     11155
     11147     11139     11151     11152     11147     11139     11151     11153
     11147     11139     11151     11154     11148     11147     11139     11151
     11149     11147     11139     11151     11150     11147     11139     11151
     11151     11139     11140     11155     11155     11161     11158     11159
     11155     11161     11158     11160     11155     11161     11158     11162
     11156     11155     11161     11158     11157     11155     11161     11158
     11158     11162     11163     11164     11158     11162     11163     11165
     11158     11162     11163     11166     11159     11158     11162     11163
     11160     11158     11162     11163     11161     11158     11162     11163
     11162     11163     11166     11167     11162     11163     11166     11168
     11162     11163     11166     11174     11163     11166     11168     11169
     11163     11166     11174     11175     11163     11166     11174     11176
     11163     11166     11174     11177     11164     11163     11166     11167
     11164     11163     11166     11168     11164     11163     11166     11174
     11165     11163     11166     11167     11165     11163     11166     11168
     11165     11163     11166     11174     11166     11168     11169     11170
     11166     11168     11169     11171     11166     11174     11177     11178
     11167     11166     11168     11169     11167     11166     11174     11175
     11167     11166     11174     11176     11167     11166     11174     11177
     11168     11166     11174     11175     11168     11166     11174     11176
     11168     11166     11174     11177     11168     11169     11171     11172
     11168     11169     11171     11173     11168     11169     11171     11183
     11169     11168     11166     11174     11169     11171     11183     11184
     11169     11171     11183     11185     11169     11171     11183     11186
     11170     11169     11171     11172     11170     11169     11171     11173
     11170     11169     11171     11183     11171     11183     11186     11187
     11171     11183     11186     11188     11171     11183     11186     11189
     11172     11171     11183     11184     11172     11171     11183     11185
     11172     11171     11183     11186     11173     11171     11183     11184
     11173     11171     11183     11185     11173     11171     11183     11186
     11174     11177     11178     11179     11174     11177     11178     11180
     11175     11174     11177     11178     11176     11174     11177     11178
     11177     11178     11180     11181     11177     11178     11180     11182
     11177     11178     11180     11230     11178     11180     11230     11231
     11178     11180     11230     11232     11178     11180     11230     11233
     11179     11178     11180     11181     11179     11178     11180     11182
     11179     11178     11180     11230     11180     11230     11233     11234
     11180     11230     11233     11235     11180     11230     11233     11236
     11181     11180     11230     11231     11181     11180     11230     11232
     11181     11180     11230     11233     11182     11180     11230     11231
     11182     11180     11230     11232     11182     11180     11230     11233
     11183     11186     11189     11190     11183     11186     11189     11191
     11183     11186     11189     11192     11184     11183     11186     11187
     11184     11183     11186     11188     11184     11183     11186     11189
     11185     11183     11186     11187     11185     11183     11186     11188
     11185     11183     11186     11189     11186     11189     11192     11193
     11186     11189     11192     11194     11186     11189     11192     11195
     11187     11186     11189     11190     11187     11186     11189     11191
     11187     11186     11189     11192     11188     11186     11189     11190
     11188     11186     11189     11191     11188     11186     11189     11192
     11189     11192     11195     11196     11189     11192     11195     11197
     11189     11192     11195     11198     11190     11189     11192     11193
     11190     11189     11192     11194     11190     11189     11192     11195
     11191     11189     11192     11193     11191     11189     11192     11194
     11191     11189     11192     11195     11192     11195     11198     11199
     11192     11195     11198     11200     11192     11195     11198     11201
     11193     11192     11195     11196     11193     11192     11195     11197
     11193     11192     11195     11198     11194     11192     11195     11196
     11194     11192     11195     11197     11194     11192     11195     11198
     11195     11198     11201     11202     11195     11198     11201     11203
     11196     11195     11198     11199     11196     11195     11198     11200
     11196     11195     11198     11201     11197     11195     11198     11199
     11197     11195     11198     11200     11197     11195     11198     11201
     11198     11201     11203     11204     11198     11201     11203     11205
     11199     11198     11201     11202     11199     11198     11201     11203
     11200     11198     11201     11202     11200     11198     11201     11203
     11201     11203     11205     11206     11201     11203     11205     11207
     11201     11203     11205     11208     11202     11201     11203     11204
     11202     11201     11203     11205     11203     11205     11208     11209
     11203     11205     11208     11210     11203     11205     11208     11211
     11204     11203     11205     11206     11204     11203     11205     11207
     11204     11203     11205     11208     11205     11208     11211     11212
     11205     11208     11211     11213     11205     11208     11211     11214
     11206     11205     11208     11209     11206     11205     11208     11210
     11206     11205     11208     11211     11207     11205     11208     11209
     11207     11205     11208     11210     11207     11205     11208     11211
     11208     11211     11214     11215     11208     11211     11214     11216
     11208     11211     11214     11217     11209     11208     11211     11212
     11209     11208     11211     11213     11209     11208     11211     11214
     11210     11208     11211     11212     11210     11208     11211     11213
     11210     11208     11211     11214     11211     11214     11217     11218
     11211     11214     11217     11219     11211     11214     11217     11220
     11212     11211     11214     11215     11212     11211     11214     11216
     11212     11211     11214     11217     11213     11211     11214     11215
     11213     11211     11214     11216     11213     11211     11214     11217
     11214     11217     11220     11221     11214     11217     11220     11222
     11214     11217     11220     11223     11215     11214     11217     11218
     11215     11214     11217     11219     11215     11214     11217     11220
     11216     11214     11217     11218     11216     11214     11217     11219
     11216     11214     11217     11220     11217     11220     11223     11224
     11217     11220     11223     11225     11217     11220     11223     11226
     11218     11217     11220     11221     11218     11217     11220     11222
     11218     11217     11220     11223     11219     11217     11220     11221
     11219     11217     11220     11222     11219     11217     11220     11223
     11220     11223     11226     11227     11220     11223     11226     11228
     11220     11223     11226     11229     11221     11220     11223     11224
     11221     11220     11223     11225     11221     11220     11223     11226
     11222     11220     11223     11224     11222     11220     11223     11225
     11222     11220     11223     11226     11224     11223     11226     11227
     11224     11223     11226     11228     11224     11223     11226     11229
     11225     11223     11226     11227     11225     11223     11226     11228
     11225     11223     11226     11229     11230     11233     11236     11237
     11230     11233     11236     11238     11230     11233     11236     11239
     11231     11230     11233     11234     11231     11230     11233     11235
     11231     11230     11233     11236     11232     11230     11233     11234
     11232     11230     11233     11235     11232     11230     11233     11236
     11233     11236     11239     11240     11233     11236     11239     11241
     11233     11236     11239     11242     11234     11233     11236     11237
     11234     11233     11236     11238     11234     11233     11236     11239
     11235     11233     11236     11237     11235     11233     11236     11238
     11235     11233     11236     11239     11236     11239     11242     11243
     11236     11239     11242     11244     11236     11239     11242     11245
     11237     11236     11239     11240     11237     11236     11239     11241
     11237     11236     11239     11242     11238     11236     11239     11240
     11238     11236     11239     11241     11238     11236     11239     11242
     11239     11242     11245     11246     11239     11242     11245     11247
     11239     11242     11245     11248     11240     11239     11242     11243
     11240     11239     11242     11244     11240     11239     11242     11245
     11241     11239     11242     11243     11241     11239     11242     11244
     11241     11239     11242     11245     11242     11245     11248     11249
     11242     11245     11248     11250     11242     11245     11248     11251
     11243     11242     11245     11246     11243     11242     11245     11247
     11243     11242     11245     11248     11244     11242     11245     11246
     11244     11242     11245     11247     11244     11242     11245     11248
     11245     11248     11251     11252     11245     11248     11251     11253
     11245     11248     11251     11254     11246     11245     11248     11249
     11246     11245     11248     11250     11246     11245     11248     11251
     11247     11245     11248     11249     11247     11245     11248     11250
     11247     11245     11248     11251     11248     11251     11254     11255
     11248     11251     11254     11256     11248     11251     11254     11257
     11249     11248     11251     11252     11249     11248     11251     11253
     11249     11248     11251     11254     11250     11248     11251     11252
     11250     11248     11251     11253     11250     11248     11251     11254
     11251     11254     11257     11258     11251     11254     11257     11259
     11251     11254     11257     11260     11252     11251     11254     11255
     11252     11251     11254     11256     11252     11251     11254     11257
     11253     11251     11254     11255     11253     11251     11254     11256
     11253     11251     11254     11257     11254     11257     11260     11261
     11254     11257     11260     11262     11254     11257     11260     11263
     11255     11254     11257     11258     11255     11254     11257     11259
     11255     11254     11257     11260     11256     11254     11257     11258
     11256     11254     11257     11259     11256     11254     11257     11260
     11257     11260     11263     11264     11257     11260     11263     11265
     11257     11260     11263     11266     11258     11257     11260     11261
     11258     11257     11260     11262     11258     11257     11260     11263
     11259     11257     11260     11261     11259     11257     11260     11262
     11259     11257     11260     11263     11260     11263     11266     11267
     11260     11263     11266     11268     11260     11263     11266     11269
     11261     11260     11263     11264     11261     11260     11263     11265
     11261     11260     11263     11266     11262     11260     11263     11264
     11262     11260     11263     11265     11262     11260     11263     11266
     11263     11266     11269     11270     11263     11266     11269     11271
     11263     11266     11269     11272     11264     11263     11266     11267
     11264     11263     11266     11268     11264     11263     11266     11269
     11265     11263     11266     11267     11265     11263     11266     11268
     11265     11263     11266     11269     11267     11266     11269     11270
     11267     11266     11269     11271     11267     11266     11269     11272
     11268     11266     11269     11270     11268     11266     11269     11271
     11268     11266     11269     11272     11273     11274     11289     11290
     11273     11274     11289     11291     11273     11274     11289     11295
     11274     11273     11277     11278     11274     11273     11277     11279
     11274     11273     11277     11280     11274     11273     11281     11282
     11274     11273     11281     11283     11274     11273     11281     11284
     11274     11273     11285     11286     11274     11273     11285     11287
     11274     11273     11285     11288     11274     11289     11295     11292
     11275     11274     11273     11277     11275     11274     11273     11281
     11275     11274     11273     11285     11275     11274     11289     11290
     11275     11274     11289     11291     11275     11274     11289     11295
     11276     11274     11273     11277     11276     11274     11273     11281
     11276     11274     11273     11285     11276     11274     11289     11290
     11276     11274     11289     11291     11276     11274     11289     11295
     11277     11273     11274     11289     11277     11273     11281     11282
     11277     11273     11281     11283     11277     11273     11281     11284
     11277     11273     11285     11286     11277     11273     11285     11287
     11277     11273     11285     11288     11278     11277     11273     11281
     11278     11277     11273     11285     11279     11277     11273     11281
     11279     11277     11273     11285     11280     11277     11273     11281
     11280     11277     11273     11285     11281     11273     11274     11289
     11281     11273     11285     11286     11281     11273     11285     11287
     11281     11273     11285     11288     11282     11281     11273     11285
     11283     11281     11273     11285     11284     11281     11273     11285
     11285     11273     11274     11289     11289     11295     11292     11293
     11289     11295     11292     11294     11289     11295     11292     11296
     11290     11289     11295     11292     11291     11289     11295     11292
     11292     11296     11297     11298     11292     11296     11297     11299
     11292     11296     11297     11300     11293     11292     11296     11297
     11294     11292     11296     11297     11295     11292     11296     11297
     11296     11297     11300     11301     11296     11297     11300     11302
     11296     11297     11300     11308     11297     11300     11302     11303
     11297     11300     11308     11309     11297     11300     11308     11310
     11297     11300     11308     11311     11298     11297     11300     11301
     11298     11297     11300     11302     11298     11297     11300     11308
     11299     11297     11300     11301     11299     11297     11300     11302
     11299     11297     11300     11308     11300     11302     11303     11304
     11300     11302     11303     11305     11300     11308     11311     11312
     11301     11300     11302     11303     11301     11300     11308     11309
     11301     11300     11308     11310     11301     11300     11308     11311
     11302     11300     11308     11309     11302     11300     11308     11310
     11302     11300     11308     11311     11302     11303     11305     11306
     11302     11303     11305     11307     11302     11303     11305     11317
     11303     11302     11300     11308     11303     11305     11317     11318
     11303     11305     11317     11319     11303     11305     11317     11320
     11304     11303     11305     11306     11304     11303     11305     11307
     11304     11303     11305     11317     11305     11317     11320     11321
     11305     11317     11320     11322     11305     11317     11320     11323
     11306     11305     11317     11318     11306     11305     11317     11319
     11306     11305     11317     11320     11307     11305     11317     11318
     11307     11305     11317     11319     11307     11305     11317     11320
     11308     11311     11312     11313     11308     11311     11312     11314
     11309     11308     11311     11312     11310     11308     11311     11312
     11311     11312     11314     11315     11311     11312     11314     11316
     11311     11312     11314     11364     11312     11314     11364     11365
     11312     11314     11364     11366     11312     11314     11364     11367
     11313     11312     11314     11315     11313     11312     11314     11316
     11313     11312     11314     11364     11314     11364     11367     11368
     11314     11364     11367     11369     11314     11364     11367     11370
     11315     11314     11364     11365     11315     11314     11364     11366
     11315     11314     11364     11367     11316     11314     11364     11365
     11316     11314     11364     11366     11316     11314     11364     11367
     11317     11320     11323     11324     11317     11320     11323     11325
     11317     11320     11323     11326     11318     11317     11320     11321
     11318     11317     11320     11322     11318     11317     11320     11323
     11319     11317     11320     11321     11319     11317     11320     11322
     11319     11317     11320     11323     11320     11323     11326     11327
     11320     11323     11326     11328     11320     11323     11326     11329
     11321     11320     11323     11324     11321     11320     11323     11325
     11321     11320     11323     11326     11322     11320     11323     11324
     11322     11320     11323     11325     11322     11320     11323     11326
     11323     11326     11329     11330     11323     11326     11329     11331
     11323     11326     11329     11332     11324     11323     11326     11327
     11324     11323     11326     11328     11324     11323     11326     11329
     11325     11323     11326     11327     11325     11323     11326     11328
     11325     11323     11326     11329     11326     11329     11332     11333
     11326     11329     11332     11334     11326     11329     11332     11335
     11327     11326     11329     11330     11327     11326     11329     11331
     11327     11326     11329     11332     11328     11326     11329     11330
     11328     11326     11329     11331     11328     11326     11329     11332
     11329     11332     11335     11336     11329     11332     11335     11337
     11330     11329     11332     11333     11330     11329     11332     11334
     11330     11329     11332     11335     11331     11329     11332     11333
     11331     11329     11332     11334     11331     11329     11332     11335
     11332     11335     11337     11338     11332     11335     11337     11339
     11333     11332     11335     11336     11333     11332     11335     11337
     11334     11332     11335     11336     11334     11332     11335     11337
     11335     11337     11339     11340     11335     11337     11339     11341
     11335     11337     11339     11342     11336     11335     11337     11338
     11336     11335     11337     11339     11337     11339     11342     11343
     11337     11339     11342     11344     11337     11339     11342     11345
     11338     11337     11339     11340     11338     11337     11339     11341
     11338     11337     11339     11342     11339     11342     11345     11346
     11339     11342     11345     11347     11339     11342     11345     11348
     11340     11339     11342     11343     11340     11339     11342     11344
     11340     11339     11342     11345     11341     11339     11342     11343
     11341     11339     11342     11344     11341     11339     11342     11345
     11342     11345     11348     11349     11342     11345     11348     11350
     11342     11345     11348     11351     11343     11342     11345     11346
     11343     11342     11345     11347     11343     11342     11345     11348
     11344     11342     11345     11346     11344     11342     11345     11347
     11344     11342     11345     11348     11345     11348     11351     11352
     11345     11348     11351     11353     11345     11348     11351     11354
     11346     11345     11348     11349     11346     11345     11348     11350
     11346     11345     11348     11351     11347     11345     11348     11349
     11347     11345     11348     11350     11347     11345     11348     11351
     11348     11351     11354     11355     11348     11351     11354     11356
     11348     11351     11354     11357     11349     11348     11351     11352
     11349     11348     11351     11353     11349     11348     11351     11354
     11350     11348     11351     11352     11350     11348     11351     11353
     11350     11348     11351     11354     11351     11354     11357     11358
     11351     11354     11357     11359     11351     11354     11357     11360
     11352     11351     11354     11355     11352     11351     11354     11356
     11352     11351     11354     11357     11353     11351     11354     11355
     11353     11351     11354     11356     11353     11351     11354     11357
     11354     11357     11360     11361     11354     11357     11360     11362
     11354     11357     11360     11363     11355     11354     11357     11358
     11355     11354     11357     11359     11355     11354     11357     11360
     11356     11354     11357     11358     11356     11354     11357     11359
     11356     11354     11357     11360     11358     11357     11360     11361
     11358     11357     11360     11362     11358     11357     11360     11363
     11359     11357     11360     11361     11359     11357     11360     11362
     11359     11357     11360     11363     11364     11367     11370     11371
     11364     11367     11370     11372     11364     11367     11370     11373
     11365     11364     11367     11368     11365     11364     11367     11369
     11365     11364     11367     11370     11366     11364     11367     11368
     11366     11364     11367     11369     11366     11364     11367     11370
     11367     11370     11373     11374     11367     11370     11373     11375
     11367     11370     11373     11376     11368     11367     11370     11371
     11368     11367     11370     11372     11368     11367     11370     11373
     11369     11367     11370     11371     11369     11367     11370     11372
     11369     11367     11370     11373     11370     11373     11376     11377
     11370     11373     11376     11378     11370     11373     11376     11379
     11371     11370     11373     11374     11371     11370     11373     11375
     11371     11370     11373     11376     11372     11370     11373     11374
     11372     11370     11373     11375     11372     11370     11373     11376
     11373     11376     11379     11380     11373     11376     11379     11381
     11373     11376     11379     11382     11374     11373     11376     11377
     11374     11373     11376     11378     11374     11373     11376     11379
     11375     11373     11376     11377     11375     11373     11376     11378
     11375     11373     11376     11379     11376     11379     11382     11383
     11376     11379     11382     11384     11376     11379     11382     11385
     11377     11376     11379     11380     11377     11376     11379     11381
     11377     11376     11379     11382     11378     11376     11379     11380
     11378     11376     11379     11381     11378     11376     11379     11382
     11379     11382     11385     11386     11379     11382     11385     11387
     11379     11382     11385     11388     11380     11379     11382     11383
     11380     11379     11382     11384     11380     11379     11382     11385
     11381     11379     11382     11383     11381     11379     11382     11384
     11381     11379     11382     11385     11382     11385     11388     11389
     11382     11385     11388     11390     11382     11385     11388     11391
     11383     11382     11385     11386     11383     11382     11385     11387
     11383     11382     11385     11388     11384     11382     11385     11386
     11384     11382     11385     11387     11384     11382     11385     11388
     11385     11388     11391     11392     11385     11388     11391     11393
     11385     11388     11391     11394     11386     11385     11388     11389
     11386     11385     11388     11390     11386     11385     11388     11391
     11387     11385     11388     11389     11387     11385     11388     11390
     11387     11385     11388     11391     11388     11391     11394     11395
     11388     11391     11394     11396     11388     11391     11394     11397
     11389     11388     11391     11392     11389     11388     11391     11393
     11389     11388     11391     11394     11390     11388     11391     11392
     11390     11388     11391     11393     11390     11388     11391     11394
     11391     11394     11397     11398     11391     11394     11397     11399
     11391     11394     11397     11400     11392     11391     11394     11395
     11392     11391     11394     11396     11392     11391     11394     11397
     11393     11391     11394     11395     11393     11391     11394     11396
     11393     11391     11394     11397     11394     11397     11400     11401
     11394     11397     11400     11402     11394     11397     11400     11403
     11395     11394     11397     11398     11395     11394     11397     11399
     11395     11394     11397     11400     11396     11394     11397     11398
     11396     11394     11397     11399     11396     11394     11397     11400
     11397     11400     11403     11404     11397     11400     11403     11405
     11397     11400     11403     11406     11398     11397     11400     11401
     11398     11397     11400     11402     11398     11397     11400     11403
     11399     11397     11400     11401     11399     11397     11400     11402
     11399     11397     11400     11403     11401     11400     11403     11404
     11401     11400     11403     11405     11401     11400     11403     11406
     11402     11400     11403     11404     11402     11400     11403     11405
     11402     11400     11403     11406     11407     11408     11423     11424
     11407     11408     11423     11425     11407     11408     11423     11429
     11408     11407     11411     11412     11408     11407     11411     11413
     11408     11407     11411     11414     11408     11407     11415     11416
     11408     11407     11415     11417     11408     11407     11415     11418
     11408     11407     11419     11420     11408     11407     11419     11421
     11408     11407     11419     11422     11408     11423     11429     11426
     11409     11408     11407     11411     11409     11408     11407     11415
     11409     11408     11407     11419     11409     11408     11423     11424
     11409     11408     11423     11425     11409     11408     11423     11429
     11410     11408     11407     11411     11410     11408     11407     11415
     11410     11408     11407     11419     11410     11408     11423     11424
     11410     11408     11423     11425     11410     11408     11423     11429
     11411     11407     11408     11423     11411     11407     11415     11416
     11411     11407     11415     11417     11411     11407     11415     11418
     11411     11407     11419     11420     11411     11407     11419     11421
     11411     11407     11419     11422     11412     11411     11407     11415
     11412     11411     11407     11419     11413     11411     11407     11415
     11413     11411     11407     11419     11414     11411     11407     11415
     11414     11411     11407     11419     11415     11407     11408     11423
     11415     11407     11419     11420     11415     11407     11419     11421
     11415     11407     11419     11422     11416     11415     11407     11419
     11417     11415     11407     11419     11418     11415     11407     11419
     11419     11407     11408     11423     11423     11429     11426     11427
     11423     11429     11426     11428     11423     11429     11426     11430
     11424     11423     11429     11426     11425     11423     11429     11426
     11426     11430     11431     11432     11426     11430     11431     11433
     11426     11430     11431     11434     11427     11426     11430     11431
     11428     11426     11430     11431     11429     11426     11430     11431
     11430     11431     11434     11435     11430     11431     11434     11436
     11430     11431     11434     11442     11431     11434     11436     11437
     11431     11434     11442     11443     11431     11434     11442     11444
     11431     11434     11442     11445     11432     11431     11434     11435
     11432     11431     11434     11436     11432     11431     11434     11442
     11433     11431     11434     11435     11433     11431     11434     11436
     11433     11431     11434     11442     11434     11436     11437     11438
     11434     11436     11437     11439     11434     11442     11445     11446
     11435     11434     11436     11437     11435     11434     11442     11443
     11435     11434     11442     11444     11435     11434     11442     11445
     11436     11434     11442     11443     11436     11434     11442     11444
     11436     11434     11442     11445     11436     11437     11439     11440
     11436     11437     11439     11441     11436     11437     11439     11451
     11437     11436     11434     11442     11437     11439     11451     11452
     11437     11439     11451     11453     11437     11439     11451     11454
     11438     11437     11439     11440     11438     11437     11439     11441
     11438     11437     11439     11451     11439     11451     11454     11455
     11439     11451     11454     11456     11439     11451     11454     11457
     11440     11439     11451     11452     11440     11439     11451     11453
     11440     11439     11451     11454     11441     11439     11451     11452
     11441     11439     11451     11453     11441     11439     11451     11454
     11442     11445     11446     11447     11442     11445     11446     11448
     11443     11442     11445     11446     11444     11442     11445     11446
     11445     11446     11448     11449     11445     11446     11448     11450
     11445     11446     11448     11498     11446     11448     11498     11499
     11446     11448     11498     11500     11446     11448     11498     11501
     11447     11446     11448     11449     11447     11446     11448     11450
     11447     11446     11448     11498     11448     11498     11501     11502
     11448     11498     11501     11503     11448     11498     11501     11504
     11449     11448     11498     11499     11449     11448     11498     11500
     11449     11448     11498     11501     11450     11448     11498     11499
     11450     11448     11498     11500     11450     11448     11498     11501
     11451     11454     11457     11458     11451     11454     11457     11459
     11451     11454     11457     11460     11452     11451     11454     11455
     11452     11451     11454     11456     11452     11451     11454     11457
     11453     11451     11454     11455     11453     11451     11454     11456
     11453     11451     11454     11457     11454     11457     11460     11461
     11454     11457     11460     11462     11454     11457     11460     11463
     11455     11454     11457     11458     11455     11454     11457     11459
     11455     11454     11457     11460     11456     11454     11457     11458
     11456     11454     11457     11459     11456     11454     11457     11460
     11457     11460     11463     11464     11457     11460     11463     11465
     11457     11460     11463     11466     11458     11457     11460     11461
     11458     11457     11460     11462     11458     11457     11460     11463
     11459     11457     11460     11461     11459     11457     11460     11462
     11459     11457     11460     11463     11460     11463     11466     11467
     11460     11463     11466     11468     11460     11463     11466     11469
     11461     11460     11463     11464     11461     11460     11463     11465
     11461     11460     11463     11466     11462     11460     11463     11464
     11462     11460     11463     11465     11462     11460     11463     11466
     11463     11466     11469     11470     11463     11466     11469     11471
     11464     11463     11466     11467     11464     11463     11466     11468
     11464     11463     11466     11469     11465     11463     11466     11467
     11465     11463     11466     11468     11465     11463     11466     11469
     11466     11469     11471     11472     11466     11469     11471     11473
     11467     11466     11469     11470     11467     11466     11469     11471
     11468     11466     11469     11470     11468     11466     11469     11471
     11469     11471     11473     11474     11469     11471     11473     11475
     11469     11471     11473     11476     11470     11469     11471     11472
     11470     11469     11471     11473     11471     11473     11476     11477
     11471     11473     11476     11478     11471     11473     11476     11479
     11472     11471     11473     11474     11472     11471     11473     11475
     11472     11471     11473     11476     11473     11476     11479     11480
     11473     11476     11479     11481     11473     11476     11479     11482
     11474     11473     11476     11477     11474     11473     11476     11478
     11474     11473     11476     11479     11475     11473     11476     11477
     11475     11473     11476     11478     11475     11473     11476     11479
     11476     11479     11482     11483     11476     11479     11482     11484
     11476     11479     11482     11485     11477     11476     11479     11480
     11477     11476     11479     11481     11477     11476     11479     11482
     11478     11476     11479     11480     11478     11476     11479     11481
     11478     11476     11479     11482     11479     11482     11485     11486
     11479     11482     11485     11487     11479     11482     11485     11488
     11480     11479     11482     11483     11480     11479     11482     11484
     11480     11479     11482     11485     11481     11479     11482     11483
     11481     11479     11482     11484     11481     11479     11482     11485
     11482     11485     11488     11489     11482     11485     11488     11490
     11482     11485     11488     11491     11483     11482     11485     11486
     11483     11482     11485     11487     11483     11482     11485     11488
     11484     11482     11485     11486     11484     11482     11485     11487
     11484     11482     11485     11488     11485     11488     11491     11492
     11485     11488     11491     11493     11485     11488     11491     11494
     11486     11485     11488     11489     11486     11485     11488     11490
     11486     11485     11488     11491     11487     11485     11488     11489
     11487     11485     11488     11490     11487     11485     11488     11491
     11488     11491     11494     11495     11488     11491     11494     11496
     11488     11491     11494     11497     11489     11488     11491     11492
     11489     11488     11491     11493     11489     11488     11491     11494
     11490     11488     11491     11492     11490     11488     11491     11493
     11490     11488     11491     11494     11492     11491     11494     11495
     11492     11491     11494     11496     11492     11491     11494     11497
     11493     11491     11494     11495     11493     11491     11494     11496
     11493     11491     11494     11497     11498     11501     11504     11505
     11498     11501     11504     11506     11498     11501     11504     11507
     11499     11498     11501     11502     11499     11498     11501     11503
     11499     11498     11501     11504     11500     11498     11501     11502
     11500     11498     11501     11503     11500     11498     11501     11504
     11501     11504     11507     11508     11501     11504     11507     11509
     11501     11504     11507     11510     11502     11501     11504     11505
     11502     11501     11504     11506     11502     11501     11504     11507
     11503     11501     11504     11505     11503     11501     11504     11506
     11503     11501     11504     11507     11504     11507     11510     11511
     11504     11507     11510     11512     11504     11507     11510     11513
     11505     11504     11507     11508     11505     11504     11507     11509
     11505     11504     11507     11510     11506     11504     11507     11508
     11506     11504     11507     11509     11506     11504     11507     11510
     11507     11510     11513     11514     11507     11510     11513     11515
     11507     11510     11513     11516     11508     11507     11510     11511
     11508     11507     11510     11512     11508     11507     11510     11513
     11509     11507     11510     11511     11509     11507     11510     11512
     11509     11507     11510     11513     11510     11513     11516     11517
     11510     11513     11516     11518     11510     11513     11516     11519
     11511     11510     11513     11514     11511     11510     11513     11515
     11511     11510     11513     11516     11512     11510     11513     11514
     11512     11510     11513     11515     11512     11510     11513     11516
     11513     11516     11519     11520     11513     11516     11519     11521
     11513     11516     11519     11522     11514     11513     11516     11517
     11514     11513     11516     11518     11514     11513     11516     11519
     11515     11513     11516     11517     11515     11513     11516     11518
     11515     11513     11516     11519     11516     11519     11522     11523
     11516     11519     11522     11524     11516     11519     11522     11525
     11517     11516     11519     11520     11517     11516     11519     11521
     11517     11516     11519     11522     11518     11516     11519     11520
     11518     11516     11519     11521     11518     11516     11519     11522
     11519     11522     11525     11526     11519     11522     11525     11527
     11519     11522     11525     11528     11520     11519     11522     11523
     11520     11519     11522     11524     11520     11519     11522     11525
     11521     11519     11522     11523     11521     11519     11522     11524
     11521     11519     11522     11525     11522     11525     11528     11529
     11522     11525     11528     11530     11522     11525     11528     11531
     11523     11522     11525     11526     11523     11522     11525     11527
     11523     11522     11525     11528     11524     11522     11525     11526
     11524     11522     11525     11527     11524     11522     11525     11528
     11525     11528     11531     11532     11525     11528     11531     11533
     11525     11528     11531     11534     11526     11525     11528     11529
     11526     11525     11528     11530     11526     11525     11528     11531
     11527     11525     11528     11529     11527     11525     11528     11530
     11527     11525     11528     11531     11528     11531     11534     11535
     11528     11531     11534     11536     11528     11531     11534     11537
     11529     11528     11531     11532     11529     11528     11531     11533
     11529     11528     11531     11534     11530     11528     11531     11532
     11530     11528     11531     11533     11530     11528     11531     11534
     11531     11534     11537     11538     11531     11534     11537     11539
     11531     11534     11537     11540     11532     11531     11534     11535
     11532     11531     11534     11536     11532     11531     11534     11537
     11533     11531     11534     11535     11533     11531     11534     11536
     11533     11531     11534     11537     11535     11534     11537     11538
     11535     11534     11537     11539     11535     11534     11537     11540
     11536     11534     11537     11538     11536     11534     11537     11539
     11536     11534     11537     11540     11541     11542     11557     11558
     11541     11542     11557     11559     11541     11542     11557     11563
     11542     11541     11545     11546     11542     11541     11545     11547
     11542     11541     11545     11548     11542     11541     11549     11550
     11542     11541     11549     11551     11542     11541     11549     11552
     11542     11541     11553     11554     11542     11541     11553     11555
     11542     11541     11553     11556     11542     11557     11563     11560
     11543     11542     11541     11545     11543     11542     11541     11549
     11543     11542     11541     11553     11543     11542     11557     11558
     11543     11542     11557     11559     11543     11542     11557     11563
     11544     11542     11541     11545     11544     11542     11541     11549
     11544     11542     11541     11553     11544     11542     11557     11558
     11544     11542     11557     11559     11544     11542     11557     11563
     11545     11541     11542     11557     11545     11541     11549     11550
     11545     11541     11549     11551     11545     11541     11549     11552
     11545     11541     11553     11554     11545     11541     11553     11555
     11545     11541     11553     11556     11546     11545     11541     11549
     11546     11545     11541     11553     11547     11545     11541     11549
     11547     11545     11541     11553     11548     11545     11541     11549
     11548     11545     11541     11553     11549     11541     11542     11557
     11549     11541     11553     11554     11549     11541     11553     11555
     11549     11541     11553     11556     11550     11549     11541     11553
     11551     11549     11541     11553     11552     11549     11541     11553
     11553     11541     11542     11557     11557     11563     11560     11561
     11557     11563     11560     11562     11557     11563     11560     11564
     11558     11557     11563     11560     11559     11557     11563     11560
     11560     11564     11565     11566     11560     11564     11565     11567
     11560     11564     11565     11568     11561     11560     11564     11565
     11562     11560     11564     11565     11563     11560     11564     11565
     11564     11565     11568     11569     11564     11565     11568     11570
     11564     11565     11568     11576     11565     11568     11570     11571
     11565     11568     11576     11577     11565     11568     11576     11578
     11565     11568     11576     11579     11566     11565     11568     11569
     11566     11565     11568     11570     11566     11565     11568     11576
     11567     11565     11568     11569     11567     11565     11568     11570
     11567     11565     11568     11576     11568     11570     11571     11572
     11568     11570     11571     11573     11568     11576     11579     11580
     11569     11568     11570     11571     11569     11568     11576     11577
     11569     11568     11576     11578     11569     11568     11576     11579
     11570     11568     11576     11577     11570     11568     11576     11578
     11570     11568     11576     11579     11570     11571     11573     11574
     11570     11571     11573     11575     11570     11571     11573     11585
     11571     11570     11568     11576     11571     11573     11585     11586
     11571     11573     11585     11587     11571     11573     11585     11588
     11572     11571     11573     11574     11572     11571     11573     11575
     11572     11571     11573     11585     11573     11585     11588     11589
     11573     11585     11588     11590     11573     11585     11588     11591
     11574     11573     11585     11586     11574     11573     11585     11587
     11574     11573     11585     11588     11575     11573     11585     11586
     11575     11573     11585     11587     11575     11573     11585     11588
     11576     11579     11580     11581     11576     11579     11580     11582
     11577     11576     11579     11580     11578     11576     11579     11580
     11579     11580     11582     11583     11579     11580     11582     11584
     11579     11580     11582     11632     11580     11582     11632     11633
     11580     11582     11632     11634     11580     11582     11632     11635
     11581     11580     11582     11583     11581     11580     11582     11584
     11581     11580     11582     11632     11582     11632     11635     11636
     11582     11632     11635     11637     11582     11632     11635     11638
     11583     11582     11632     11633     11583     11582     11632     11634
     11583     11582     11632     11635     11584     11582     11632     11633
     11584     11582     11632     11634     11584     11582     11632     11635
     11585     11588     11591     11592     11585     11588     11591     11593
     11585     11588     11591     11594     11586     11585     11588     11589
     11586     11585     11588     11590     11586     11585     11588     11591
     11587     11585     11588     11589     11587     11585     11588     11590
     11587     11585     11588     11591     11588     11591     11594     11595
     11588     11591     11594     11596     11588     11591     11594     11597
     11589     11588     11591     11592     11589     11588     11591     11593
     11589     11588     11591     11594     11590     11588     11591     11592
     11590     11588     11591     11593     11590     11588     11591     11594
     11591     11594     11597     11598     11591     11594     11597     11599
     11591     11594     11597     11600     11592     11591     11594     11595
     11592     11591     11594     11596     11592     11591     11594     11597
     11593     11591     11594     11595     11593     11591     11594     11596
     11593     11591     11594     11597     11594     11597     11600     11601
     11594     11597     11600     11602     11594     11597     11600     11603
     11595     11594     11597     11598     11595     11594     11597     11599
     11595     11594     11597     11600     11596     11594     11597     11598
     11596     11594     11597     11599     11596     11594     11597     11600
     11597     11600     11603     11604     11597     11600     11603     11605
     11598     11597     11600     11601     11598     11597     11600     11602
     11598     11597     11600     11603     11599     11597     11600     11601
     11599     11597     11600     11602     11599     11597     11600     11603
     11600     11603     11605     11606     11600     11603     11605     11607
     11601     11600     11603     11604     11601     11600     11603     11605
     11602     11600     11603     11604     11602     11600     11603     11605
     11603     11605     11607     11608     11603     11605     11607     11609
     11603     11605     11607     11610     11604     11603     11605     11606
     11604     11603     11605     11607     11605     11607     11610     11611
     11605     11607     11610     11612     11605     11607     11610     11613
     11606     11605     11607     11608     11606     11605     11607     11609
     11606     11605     11607     11610     11607     11610     11613     11614
     11607     11610     11613     11615     11607     11610     11613     11616
     11608     11607     11610     11611     11608     11607     11610     11612
     11608     11607     11610     11613     11609     11607     11610     11611
     11609     11607     11610     11612     11609     11607     11610     11613
     11610     11613     11616     11617     11610     11613     11616     11618
     11610     11613     11616     11619     11611     11610     11613     11614
     11611     11610     11613     11615     11611     11610     11613     11616
     11612     11610     11613     11614     11612     11610     11613     11615
     11612     11610     11613     11616     11613     11616     11619     11620
     11613     11616     11619     11621     11613     11616     11619     11622
     11614     11613     11616     11617     11614     11613     11616     11618
     11614     11613     11616     11619     11615     11613     11616     11617
     11615     11613     11616     11618     11615     11613     11616     11619
     11616     11619     11622     11623     11616     11619     11622     11624
     11616     11619     11622     11625     11617     11616     11619     11620
     11617     11616     11619     11621     11617     11616     11619     11622
     11618     11616     11619     11620     11618     11616     11619     11621
     11618     11616     11619     11622     11619     11622     11625     11626
     11619     11622     11625     11627     11619     11622     11625     11628
     11620     11619     11622     11623     11620     11619     11622     11624
     11620     11619     11622     11625     11621     11619     11622     11623
     11621     11619     11622     11624     11621     11619     11622     11625
     11622     11625     11628     11629     11622     11625     11628     11630
     11622     11625     11628     11631     11623     11622     11625     11626
     11623     11622     11625     11627     11623     11622     11625     11628
     11624     11622     11625     11626     11624     11622     11625     11627
     11624     11622     11625     11628     11626     11625     11628     11629
     11626     11625     11628     11630     11626     11625     11628     11631
     11627     11625     11628     11629     11627     11625     11628     11630
     11627     11625     11628     11631     11632     11635     11638     11639
     11632     11635     11638     11640     11632     11635     11638     11641
     11633     11632     11635     11636     11633     11632     11635     11637
     11633     11632     11635     11638     11634     11632     11635     11636
     11634     11632     11635     11637     11634     11632     11635     11638
     11635     11638     11641     11642     11635     11638     11641     11643
     11635     11638     11641     11644     11636     11635     11638     11639
     11636     11635     11638     11640     11636     11635     11638     11641
     11637     11635     11638     11639     11637     11635     11638     11640
     11637     11635     11638     11641     11638     11641     11644     11645
     11638     11641     11644     11646     11638     11641     11644     11647
     11639     11638     11641     11642     11639     11638     11641     11643
     11639     11638     11641     11644     11640     11638     11641     11642
     11640     11638     11641     11643     11640     11638     11641     11644
     11641     11644     11647     11648     11641     11644     11647     11649
     11641     11644     11647     11650     11642     11641     11644     11645
     11642     11641     11644     11646     11642     11641     11644     11647
     11643     11641     11644     11645     11643     11641     11644     11646
     11643     11641     11644     11647     11644     11647     11650     11651
     11644     11647     11650     11652     11644     11647     11650     11653
     11645     11644     11647     11648     11645     11644     11647     11649
     11645     11644     11647     11650     11646     11644     11647     11648
     11646     11644     11647     11649     11646     11644     11647     11650
     11647     11650     11653     11654     11647     11650     11653     11655
     11647     11650     11653     11656     11648     11647     11650     11651
     11648     11647     11650     11652     11648     11647     11650     11653
     11649     11647     11650     11651     11649     11647     11650     11652
     11649     11647     11650     11653     11650     11653     11656     11657
     11650     11653     11656     11658     11650     11653     11656     11659
     11651     11650     11653     11654     11651     11650     11653     11655
     11651     11650     11653     11656     11652     11650     11653     11654
     11652     11650     11653     11655     11652     11650     11653     11656
     11653     11656     11659     11660     11653     11656     11659     11661
     11653     11656     11659     11662     11654     11653     11656     11657
     11654     11653     11656     11658     11654     11653     11656     11659
     11655     11653     11656     11657     11655     11653     11656     11658
     11655     11653     11656     11659     11656     11659     11662     11663
     11656     11659     11662     11664     11656     11659     11662     11665
     11657     11656     11659     11660     11657     11656     11659     11661
     11657     11656     11659     11662     11658     11656     11659     11660
     11658     11656     11659     11661     11658     11656     11659     11662
     11659     11662     11665     11666     11659     11662     11665     11667
     11659     11662     11665     11668     11660     11659     11662     11663
     11660     11659     11662     11664     11660     11659     11662     11665
     11661     11659     11662     11663     11661     11659     11662     11664
     11661     11659     11662     11665     11662     11665     11668     11669
     11662     11665     11668     11670     11662     11665     11668     11671
     11663     11662     11665     11666     11663     11662     11665     11667
     11663     11662     11665     11668     11664     11662     11665     11666
     11664     11662     11665     11667     11664     11662     11665     11668
     11665     11668     11671     11672     11665     11668     11671     11673
     11665     11668     11671     11674     11666     11665     11668     11669
     11666     11665     11668     11670     11666     11665     11668     11671
     11667     11665     11668     11669     11667     11665     11668     11670
     11667     11665     11668     11671     11669     11668     11671     11672
     11669     11668     11671     11673     11669     11668     11671     11674
     11670     11668     11671     11672     11670     11668     11671     11673
     11670     11668     11671     11674     11675     11676     11691     11692
     11675     11676     11691     11693     11675     11676     11691     11697
     11676     11675     11679     11680     11676     11675     11679     11681
     11676     11675     11679     11682     11676     11675     11683     11684
     11676     11675     11683     11685     11676     11675     11683     11686
     11676     11675     11687     11688     11676     11675     11687     11689
     11676     11675     11687     11690     11676     11691     11697     11694
     11677     11676     11675     11679     11677     11676     11675     11683
     11677     11676     11675     11687     11677     11676     11691     11692
     11677     11676     11691     11693     11677     11676     11691     11697
     11678     11676     11675     11679     11678     11676     11675     11683
     11678     11676     11675     11687     11678     11676     11691     11692
     11678     11676     11691     11693     11678     11676     11691     11697
     11679     11675     11676     11691     11679     11675     11683     11684
     11679     11675     11683     11685     11679     11675     11683     11686
     11679     11675     11687     11688     11679     11675     11687     11689
     11679     11675     11687     11690     11680     11679     11675     11683
     11680     11679     11675     11687     11681     11679     11675     11683
     11681     11679     11675     11687     11682     11679     11675     11683
     11682     11679     11675     11687     11683     11675     11676     11691
     11683     11675     11687     11688     11683     11675     11687     11689
     11683     11675     11687     11690     11684     11683     11675     11687
     11685     11683     11675     11687     11686     11683     11675     11687
     11687     11675     11676     11691     11691     11697     11694     11695
     11691     11697     11694     11696     11691     11697     11694     11698
     11692     11691     11697     11694     11693     11691     11697     11694
     11694     11698     11699     11700     11694     11698     11699     11701
     11694     11698     11699     11702     11695     11694     11698     11699
     11696     11694     11698     11699     11697     11694     11698     11699
     11698     11699     11702     11703     11698     11699     11702     11704
     11698     11699     11702     11710     11699     11702     11704     11705
     11699     11702     11710     11711     11699     11702     11710     11712
     11699     11702     11710     11713     11700     11699     11702     11703
     11700     11699     11702     11704     11700     11699     11702     11710
     11701     11699     11702     11703     11701     11699     11702     11704
     11701     11699     11702     11710     11702     11704     11705     11706
     11702     11704     11705     11707     11702     11710     11713     11714
     11703     11702     11704     11705     11703     11702     11710     11711
     11703     11702     11710     11712     11703     11702     11710     11713
     11704     11702     11710     11711     11704     11702     11710     11712
     11704     11702     11710     11713     11704     11705     11707     11708
     11704     11705     11707     11709     11704     11705     11707     11719
     11705     11704     11702     11710     11705     11707     11719     11720
     11705     11707     11719     11721     11705     11707     11719     11722
     11706     11705     11707     11708     11706     11705     11707     11709
     11706     11705     11707     11719     11707     11719     11722     11723
     11707     11719     11722     11724     11707     11719     11722     11725
     11708     11707     11719     11720     11708     11707     11719     11721
     11708     11707     11719     11722     11709     11707     11719     11720
     11709     11707     11719     11721     11709     11707     11719     11722
     11710     11713     11714     11715     11710     11713     11714     11716
     11711     11710     11713     11714     11712     11710     11713     11714
     11713     11714     11716     11717     11713     11714     11716     11718
     11713     11714     11716     11766     11714     11716     11766     11767
     11714     11716     11766     11768     11714     11716     11766     11769
     11715     11714     11716     11717     11715     11714     11716     11718
     11715     11714     11716     11766     11716     11766     11769     11770
     11716     11766     11769     11771     11716     11766     11769     11772
     11717     11716     11766     11767     11717     11716     11766     11768
     11717     11716     11766     11769     11718     11716     11766     11767
     11718     11716     11766     11768     11718     11716     11766     11769
     11719     11722     11725     11726     11719     11722     11725     11727
     11719     11722     11725     11728     11720     11719     11722     11723
     11720     11719     11722     11724     11720     11719     11722     11725
     11721     11719     11722     11723     11721     11719     11722     11724
     11721     11719     11722     11725     11722     11725     11728     11729
     11722     11725     11728     11730     11722     11725     11728     11731
     11723     11722     11725     11726     11723     11722     11725     11727
     11723     11722     11725     11728     11724     11722     11725     11726
     11724     11722     11725     11727     11724     11722     11725     11728
     11725     11728     11731     11732     11725     11728     11731     11733
     11725     11728     11731     11734     11726     11725     11728     11729
     11726     11725     11728     11730     11726     11725     11728     11731
     11727     11725     11728     11729     11727     11725     11728     11730
     11727     11725     11728     11731     11728     11731     11734     11735
     11728     11731     11734     11736     11728     11731     11734     11737
     11729     11728     11731     11732     11729     11728     11731     11733
     11729     11728     11731     11734     11730     11728     11731     11732
     11730     11728     11731     11733     11730     11728     11731     11734
     11731     11734     11737     11738     11731     11734     11737     11739
     11732     11731     11734     11735     11732     11731     11734     11736
     11732     11731     11734     11737     11733     11731     11734     11735
     11733     11731     11734     11736     11733     11731     11734     11737
     11734     11737     11739     11740     11734     11737     11739     11741
     11735     11734     11737     11738     11735     11734     11737     11739
     11736     11734     11737     11738     11736     11734     11737     11739
     11737     11739     11741     11742     11737     11739     11741     11743
     11737     11739     11741     11744     11738     11737     11739     11740
     11738     11737     11739     11741     11739     11741     11744     11745
     11739     11741     11744     11746     11739     11741     11744     11747
     11740     11739     11741     11742     11740     11739     11741     11743
     11740     11739     11741     11744     11741     11744     11747     11748
     11741     11744     11747     11749     11741     11744     11747     11750
     11742     11741     11744     11745     11742     11741     11744     11746
     11742     11741     11744     11747     11743     11741     11744     11745
     11743     11741     11744     11746     11743     11741     11744     11747
     11744     11747     11750     11751     11744     11747     11750     11752
     11744     11747     11750     11753     11745     11744     11747     11748
     11745     11744     11747     11749     11745     11744     11747     11750
     11746     11744     11747     11748     11746     11744     11747     11749
     11746     11744     11747     11750     11747     11750     11753     11754
     11747     11750     11753     11755     11747     11750     11753     11756
     11748     11747     11750     11751     11748     11747     11750     11752
     11748     11747     11750     11753     11749     11747     11750     11751
     11749     11747     11750     11752     11749     11747     11750     11753
     11750     11753     11756     11757     11750     11753     11756     11758
     11750     11753     11756     11759     11751     11750     11753     11754
     11751     11750     11753     11755     11751     11750     11753     11756
     11752     11750     11753     11754     11752     11750     11753     11755
     11752     11750     11753     11756     11753     11756     11759     11760
     11753     11756     11759     11761     11753     11756     11759     11762
     11754     11753     11756     11757     11754     11753     11756     11758
     11754     11753     11756     11759     11755     11753     11756     11757
     11755     11753     11756     11758     11755     11753     11756     11759
     11756     11759     11762     11763     11756     11759     11762     11764
     11756     11759     11762     11765     11757     11756     11759     11760
     11757     11756     11759     11761     11757     11756     11759     11762
     11758     11756     11759     11760     11758     11756     11759     11761
     11758     11756     11759     11762     11760     11759     11762     11763
     11760     11759     11762     11764     11760     11759     11762     11765
     11761     11759     11762     11763     11761     11759     11762     11764
     11761     11759     11762     11765     11766     11769     11772     11773
     11766     11769     11772     11774     11766     11769     11772     11775
     11767     11766     11769     11770     11767     11766     11769     11771
     11767     11766     11769     11772     11768     11766     11769     11770
     11768     11766     11769     11771     11768     11766     11769     11772
     11769     11772     11775     11776     11769     11772     11775     11777
     11769     11772     11775     11778     11770     11769     11772     11773
     11770     11769     11772     11774     11770     11769     11772     11775
     11771     11769     11772     11773     11771     11769     11772     11774
     11771     11769     11772     11775     11772     11775     11778     11779
     11772     11775     11778     11780     11772     11775     11778     11781
     11773     11772     11775     11776     11773     11772     11775     11777
     11773     11772     11775     11778     11774     11772     11775     11776
     11774     11772     11775     11777     11774     11772     11775     11778
     11775     11778     11781     11782     11775     11778     11781     11783
     11775     11778     11781     11784     11776     11775     11778     11779
     11776     11775     11778     11780     11776     11775     11778     11781
     11777     11775     11778     11779     11777     11775     11778     11780
     11777     11775     11778     11781     11778     11781     11784     11785
     11778     11781     11784     11786     11778     11781     11784     11787
     11779     11778     11781     11782     11779     11778     11781     11783
     11779     11778     11781     11784     11780     11778     11781     11782
     11780     11778     11781     11783     11780     11778     11781     11784
     11781     11784     11787     11788     11781     11784     11787     11789
     11781     11784     11787     11790     11782     11781     11784     11785
     11782     11781     11784     11786     11782     11781     11784     11787
     11783     11781     11784     11785     11783     11781     11784     11786
     11783     11781     11784     11787     11784     11787     11790     11791
     11784     11787     11790     11792     11784     11787     11790     11793
     11785     11784     11787     11788     11785     11784     11787     11789
     11785     11784     11787     11790     11786     11784     11787     11788
     11786     11784     11787     11789     11786     11784     11787     11790
     11787     11790     11793     11794     11787     11790     11793     11795
     11787     11790     11793     11796     11788     11787     11790     11791
     11788     11787     11790     11792     11788     11787     11790     11793
     11789     11787     11790     11791     11789     11787     11790     11792
     11789     11787     11790     11793     11790     11793     11796     11797
     11790     11793     11796     11798     11790     11793     11796     11799
     11791     11790     11793     11794     11791     11790     11793     11795
     11791     11790     11793     11796     11792     11790     11793     11794
     11792     11790     11793     11795     11792     11790     11793     11796
     11793     11796     11799     11800     11793     11796     11799     11801
     11793     11796     11799     11802     11794     11793     11796     11797
     11794     11793     11796     11798     11794     11793     11796     11799
     11795     11793     11796     11797     11795     11793     11796     11798
     11795     11793     11796     11799     11796     11799     11802     11803
     11796     11799     11802     11804     11796     11799     11802     11805
     11797     11796     11799     11800     11797     11796     11799     11801
     11797     11796     11799     11802     11798     11796     11799     11800
     11798     11796     11799     11801     11798     11796     11799     11802
     11799     11802     11805     11806     11799     11802     11805     11807
     11799     11802     11805     11808     11800     11799     11802     11803
     11800     11799     11802     11804     11800     11799     11802     11805
     11801     11799     11802     11803     11801     11799     11802     11804
     11801     11799     11802     11805     11803     11802     11805     11806
     11803     11802     11805     11807     11803     11802     11805     11808
     11804     11802     11805     11806     11804     11802     11805     11807
     11804     11802     11805     11808     11809     11810     11825     11826
     11809     11810     11825     11827     11809     11810     11825     11831
     11810     11809     11813     11814     11810     11809     11813     11815
     11810     11809     11813     11816     11810     11809     11817     11818
     11810     11809     11817     11819     11810     11809     11817     11820
     11810     11809     11821     11822     11810     11809     11821     11823
     11810     11809     11821     11824     11810     11825     11831     11828
     11811     11810     11809     11813     11811     11810     11809     11817
     11811     11810     11809     11821     11811     11810     11825     11826
     11811     11810     11825     11827     11811     11810     11825     11831
     11812     11810     11809     11813     11812     11810     11809     11817
     11812     11810     11809     11821     11812     11810     11825     11826
     11812     11810     11825     11827     11812     11810     11825     11831
     11813     11809     11810     11825     11813     11809     11817     11818
     11813     11809     11817     11819     11813     11809     11817     11820
     11813     11809     11821     11822     11813     11809     11821     11823
     11813     11809     11821     11824     11814     11813     11809     11817
     11814     11813     11809     11821     11815     11813     11809     11817
     11815     11813     11809     11821     11816     11813     11809     11817
     11816     11813     11809     11821     11817     11809     11810     11825
     11817     11809     11821     11822     11817     11809     11821     11823
     11817     11809     11821     11824     11818     11817     11809     11821
     11819     11817     11809     11821     11820     11817     11809     11821
     11821     11809     11810     11825     11825     11831     11828     11829
     11825     11831     11828     11830     11825     11831     11828     11832
     11826     11825     11831     11828     11827     11825     11831     11828
     11828     11832     11833     11834     11828     11832     11833     11835
     11828     11832     11833     11836     11829     11828     11832     11833
     11830     11828     11832     11833     11831     11828     11832     11833
     11832     11833     11836     11837     11832     11833     11836     11838
     11832     11833     11836     11844     11833     11836     11838     11839
     11833     11836     11844     11845     11833     11836     11844     11846
     11833     11836     11844     11847     11834     11833     11836     11837
     11834     11833     11836     11838     11834     11833     11836     11844
     11835     11833     11836     11837     11835     11833     11836     11838
     11835     11833     11836     11844     11836     11838     11839     11840
     11836     11838     11839     11841     11836     11844     11847     11848
     11837     11836     11838     11839     11837     11836     11844     11845
     11837     11836     11844     11846     11837     11836     11844     11847
     11838     11836     11844     11845     11838     11836     11844     11846
     11838     11836     11844     11847     11838     11839     11841     11842
     11838     11839     11841     11843     11838     11839     11841     11853
     11839     11838     11836     11844     11839     11841     11853     11854
     11839     11841     11853     11855     11839     11841     11853     11856
     11840     11839     11841     11842     11840     11839     11841     11843
     11840     11839     11841     11853     11841     11853     11856     11857
     11841     11853     11856     11858     11841     11853     11856     11859
     11842     11841     11853     11854     11842     11841     11853     11855
     11842     11841     11853     11856     11843     11841     11853     11854
     11843     11841     11853     11855     11843     11841     11853     11856
     11844     11847     11848     11849     11844     11847     11848     11850
     11845     11844     11847     11848     11846     11844     11847     11848
     11847     11848     11850     11851     11847     11848     11850     11852
     11847     11848     11850     11900     11848     11850     11900     11901
     11848     11850     11900     11902     11848     11850     11900     11903
     11849     11848     11850     11851     11849     11848     11850     11852
     11849     11848     11850     11900     11850     11900     11903     11904
     11850     11900     11903     11905     11850     11900     11903     11906
     11851     11850     11900     11901     11851     11850     11900     11902
     11851     11850     11900     11903     11852     11850     11900     11901
     11852     11850     11900     11902     11852     11850     11900     11903
     11853     11856     11859     11860     11853     11856     11859     11861
     11853     11856     11859     11862     11854     11853     11856     11857
     11854     11853     11856     11858     11854     11853     11856     11859
     11855     11853     11856     11857     11855     11853     11856     11858
     11855     11853     11856     11859     11856     11859     11862     11863
     11856     11859     11862     11864     11856     11859     11862     11865
     11857     11856     11859     11860     11857     11856     11859     11861
     11857     11856     11859     11862     11858     11856     11859     11860
     11858     11856     11859     11861     11858     11856     11859     11862
     11859     11862     11865     11866     11859     11862     11865     11867
     11859     11862     11865     11868     11860     11859     11862     11863
     11860     11859     11862     11864     11860     11859     11862     11865
     11861     11859     11862     11863     11861     11859     11862     11864
     11861     11859     11862     11865     11862     11865     11868     11869
     11862     11865     11868     11870     11862     11865     11868     11871
     11863     11862     11865     11866     11863     11862     11865     11867
     11863     11862     11865     11868     11864     11862     11865     11866
     11864     11862     11865     11867     11864     11862     11865     11868
     11865     11868     11871     11872     11865     11868     11871     11873
     11866     11865     11868     11869     11866     11865     11868     11870
     11866     11865     11868     11871     11867     11865     11868     11869
     11867     11865     11868     11870     11867     11865     11868     11871
     11868     11871     11873     11874     11868     11871     11873     11875
     11869     11868     11871     11872     11869     11868     11871     11873
     11870     11868     11871     11872     11870     11868     11871     11873
     11871     11873     11875     11876     11871     11873     11875     11877
     11871     11873     11875     11878     11872     11871     11873     11874
     11872     11871     11873     11875     11873     11875     11878     11879
     11873     11875     11878     11880     11873     11875     11878     11881
     11874     11873     11875     11876     11874     11873     11875     11877
     11874     11873     11875     11878     11875     11878     11881     11882
     11875     11878     11881     11883     11875     11878     11881     11884
     11876     11875     11878     11879     11876     11875     11878     11880
     11876     11875     11878     11881     11877     11875     11878     11879
     11877     11875     11878     11880     11877     11875     11878     11881
     11878     11881     11884     11885     11878     11881     11884     11886
     11878     11881     11884     11887     11879     11878     11881     11882
     11879     11878     11881     11883     11879     11878     11881     11884
     11880     11878     11881     11882     11880     11878     11881     11883
     11880     11878     11881     11884     11881     11884     11887     11888
     11881     11884     11887     11889     11881     11884     11887     11890
     11882     11881     11884     11885     11882     11881     11884     11886
     11882     11881     11884     11887     11883     11881     11884     11885
     11883     11881     11884     11886     11883     11881     11884     11887
     11884     11887     11890     11891     11884     11887     11890     11892
     11884     11887     11890     11893     11885     11884     11887     11888
     11885     11884     11887     11889     11885     11884     11887     11890
     11886     11884     11887     11888     11886     11884     11887     11889
     11886     11884     11887     11890     11887     11890     11893     11894
     11887     11890     11893     11895     11887     11890     11893     11896
     11888     11887     11890     11891     11888     11887     11890     11892
     11888     11887     11890     11893     11889     11887     11890     11891
     11889     11887     11890     11892     11889     11887     11890     11893
     11890     11893     11896     11897     11890     11893     11896     11898
     11890     11893     11896     11899     11891     11890     11893     11894
     11891     11890     11893     11895     11891     11890     11893     11896
     11892     11890     11893     11894     11892     11890     11893     11895
     11892     11890     11893     11896     11894     11893     11896     11897
     11894     11893     11896     11898     11894     11893     11896     11899
     11895     11893     11896     11897     11895     11893     11896     11898
     11895     11893     11896     11899     11900     11903     11906     11907
     11900     11903     11906     11908     11900     11903     11906     11909
     11901     11900     11903     11904     11901     11900     11903     11905
     11901     11900     11903     11906     11902     11900     11903     11904
     11902     11900     11903     11905     11902     11900     11903     11906
     11903     11906     11909     11910     11903     11906     11909     11911
     11903     11906     11909     11912     11904     11903     11906     11907
     11904     11903     11906     11908     11904     11903     11906     11909
     11905     11903     11906     11907     11905     11903     11906     11908
     11905     11903     11906     11909     11906     11909     11912     11913
     11906     11909     11912     11914     11906     11909     11912     11915
     11907     11906     11909     11910     11907     11906     11909     11911
     11907     11906     11909     11912     11908     11906     11909     11910
     11908     11906     11909     11911     11908     11906     11909     11912
     11909     11912     11915     11916     11909     11912     11915     11917
     11909     11912     11915     11918     11910     11909     11912     11913
     11910     11909     11912     11914     11910     11909     11912     11915
     11911     11909     11912     11913     11911     11909     11912     11914
     11911     11909     11912     11915     11912     11915     11918     11919
     11912     11915     11918     11920     11912     11915     11918     11921
     11913     11912     11915     11916     11913     11912     11915     11917
     11913     11912     11915     11918     11914     11912     11915     11916
     11914     11912     11915     11917     11914     11912     11915     11918
     11915     11918     11921     11922     11915     11918     11921     11923
     11915     11918     11921     11924     11916     11915     11918     11919
     11916     11915     11918     11920     11916     11915     11918     11921
     11917     11915     11918     11919     11917     11915     11918     11920
     11917     11915     11918     11921     11918     11921     11924     11925
     11918     11921     11924     11926     11918     11921     11924     11927
     11919     11918     11921     11922     11919     11918     11921     11923
     11919     11918     11921     11924     11920     11918     11921     11922
     11920     11918     11921     11923     11920     11918     11921     11924
     11921     11924     11927     11928     11921     11924     11927     11929
     11921     11924     11927     11930     11922     11921     11924     11925
     11922     11921     11924     11926     11922     11921     11924     11927
     11923     11921     11924     11925     11923     11921     11924     11926
     11923     11921     11924     11927     11924     11927     11930     11931
     11924     11927     11930     11932     11924     11927     11930     11933
     11925     11924     11927     11928     11925     11924     11927     11929
     11925     11924     11927     11930     11926     11924     11927     11928
     11926     11924     11927     11929     11926     11924     11927     11930
     11927     11930     11933     11934     11927     11930     11933     11935
     11927     11930     11933     11936     11928     11927     11930     11931
     11928     11927     11930     11932     11928     11927     11930     11933
     11929     11927     11930     11931     11929     11927     11930     11932
     11929     11927     11930     11933     11930     11933     11936     11937
     11930     11933     11936     11938     11930     11933     11936     11939
     11931     11930     11933     11934     11931     11930     11933     11935
     11931     11930     11933     11936     11932     11930     11933     11934
     11932     11930     11933     11935     11932     11930     11933     11936
     11933     11936     11939     11940     11933     11936     11939     11941
     11933     11936     11939     11942     11934     11933     11936     11937
     11934     11933     11936     11938     11934     11933     11936     11939
     11935     11933     11936     11937     11935     11933     11936     11938
     11935     11933     11936     11939     11937     11936     11939     11940
     11937     11936     11939     11941     11937     11936     11939     11942
     11938     11936     11939     11940     11938     11936     11939     11941
     11938     11936     11939     11942     11943     11944     11959     11960
     11943     11944     11959     11961     11943     11944     11959     11965
     11944     11943     11947     11948     11944     11943     11947     11949
     11944     11943     11947     11950     11944     11943     11951     11952
     11944     11943     11951     11953     11944     11943     11951     11954
     11944     11943     11955     11956     11944     11943     11955     11957
     11944     11943     11955     11958     11944     11959     11965     11962
     11945     11944     11943     11947     11945     11944     11943     11951
     11945     11944     11943     11955     11945     11944     11959     11960
     11945     11944     11959     11961     11945     11944     11959     11965
     11946     11944     11943     11947     11946     11944     11943     11951
     11946     11944     11943     11955     11946     11944     11959     11960
     11946     11944     11959     11961     11946     11944     11959     11965
     11947     11943     11944     11959     11947     11943     11951     11952
     11947     11943     11951     11953     11947     11943     11951     11954
     11947     11943     11955     11956     11947     11943     11955     11957
     11947     11943     11955     11958     11948     11947     11943     11951
     11948     11947     11943     11955     11949     11947     11943     11951
     11949     11947     11943     11955     11950     11947     11943     11951
     11950     11947     11943     11955     11951     11943     11944     11959
     11951     11943     11955     11956     11951     11943     11955     11957
     11951     11943     11955     11958     11952     11951     11943     11955
     11953     11951     11943     11955     11954     11951     11943     11955
     11955     11943     11944     11959     11959     11965     11962     11963
     11959     11965     11962     11964     11959     11965     11962     11966
     11960     11959     11965     11962     11961     11959     11965     11962
     11962     11966     11967     11968     11962     11966     11967     11969
     11962     11966     11967     11970     11963     11962     11966     11967
     11964     11962     11966     11967     11965     11962     11966     11967
     11966     11967     11970     11971     11966     11967     11970     11972
     11966     11967     11970     11978     11967     11970     11972     11973
     11967     11970     11978     11979     11967     11970     11978     11980
     11967     11970     11978     11981     11968     11967     11970     11971
     11968     11967     11970     11972     11968     11967     11970     11978
     11969     11967     11970     11971     11969     11967     11970     11972
     11969     11967     11970     11978     11970     11972     11973     11974
     11970     11972     11973     11975     11970     11978     11981     11982
     11971     11970     11972     11973     11971     11970     11978     11979
     11971     11970     11978     11980     11971     11970     11978     11981
     11972     11970     11978     11979     11972     11970     11978     11980
     11972     11970     11978     11981     11972     11973     11975     11976
     11972     11973     11975     11977     11972     11973     11975     11987
     11973     11972     11970     11978     11973     11975     11987     11988
     11973     11975     11987     11989     11973     11975     11987     11990
     11974     11973     11975     11976     11974     11973     11975     11977
     11974     11973     11975     11987     11975     11987     11990     11991
     11975     11987     11990     11992     11975     11987     11990     11993
     11976     11975     11987     11988     11976     11975     11987     11989
     11976     11975     11987     11990     11977     11975     11987     11988
     11977     11975     11987     11989     11977     11975     11987     11990
     11978     11981     11982     11983     11978     11981     11982     11984
     11979     11978     11981     11982     11980     11978     11981     11982
     11981     11982     11984     11985     11981     11982     11984     11986
     11981     11982     11984     12034     11982     11984     12034     12035
     11982     11984     12034     12036     11982     11984     12034     12037
     11983     11982     11984     11985     11983     11982     11984     11986
     11983     11982     11984     12034     11984     12034     12037     12038
     11984     12034     12037     12039     11984     12034     12037     12040
     11985     11984     12034     12035     11985     11984     12034     12036
     11985     11984     12034     12037     11986     11984     12034     12035
     11986     11984     12034     12036     11986     11984     12034     12037
     11987     11990     11993     11994     11987     11990     11993     11995
     11987     11990     11993     11996     11988     11987     11990     11991
     11988     11987     11990     11992     11988     11987     11990     11993
     11989     11987     11990     11991     11989     11987     11990     11992
     11989     11987     11990     11993     11990     11993     11996     11997
     11990     11993     11996     11998     11990     11993     11996     11999
     11991     11990     11993     11994     11991     11990     11993     11995
     11991     11990     11993     11996     11992     11990     11993     11994
     11992     11990     11993     11995     11992     11990     11993     11996
     11993     11996     11999     12000     11993     11996     11999     12001
     11993     11996     11999     12002     11994     11993     11996     11997
     11994     11993     11996     11998     11994     11993     11996     11999
     11995     11993     11996     11997     11995     11993     11996     11998
     11995     11993     11996     11999     11996     11999     12002     12003
     11996     11999     12002     12004     11996     11999     12002     12005
     11997     11996     11999     12000     11997     11996     11999     12001
     11997     11996     11999     12002     11998     11996     11999     12000
     11998     11996     11999     12001     11998     11996     11999     12002
     11999     12002     12005     12006     11999     12002     12005     12007
     12000     11999     12002     12003     12000     11999     12002     12004
     12000     11999     12002     12005     12001     11999     12002     12003
     12001     11999     12002     12004     12001     11999     12002     12005
     12002     12005     12007     12008     12002     12005     12007     12009
     12003     12002     12005     12006     12003     12002     12005     12007
     12004     12002     12005     12006     12004     12002     12005     12007
     12005     12007     12009     12010     12005     12007     12009     12011
     12005     12007     12009     12012     12006     12005     12007     12008
     12006     12005     12007     12009     12007     12009     12012     12013
     12007     12009     12012     12014     12007     12009     12012     12015
     12008     12007     12009     12010     12008     12007     12009     12011
     12008     12007     12009     12012     12009     12012     12015     12016
     12009     12012     12015     12017     12009     12012     12015     12018
     12010     12009     12012     12013     12010     12009     12012     12014
     12010     12009     12012     12015     12011     12009     12012     12013
     12011     12009     12012     12014     12011     12009     12012     12015
     12012     12015     12018     12019     12012     12015     12018     12020
     12012     12015     12018     12021     12013     12012     12015     12016
     12013     12012     12015     12017     12013     12012     12015     12018
     12014     12012     12015     12016     12014     12012     12015     12017
     12014     12012     12015     12018     12015     12018     12021     12022
     12015     12018     12021     12023     12015     12018     12021     12024
     12016     12015     12018     12019     12016     12015     12018     12020
     12016     12015     12018     12021     12017     12015     12018     12019
     12017     12015     12018     12020     12017     12015     12018     12021
     12018     12021     12024     12025     12018     12021     12024     12026
     12018     12021     12024     12027     12019     12018     12021     12022
     12019     12018     12021     12023     12019     12018     12021     12024
     12020     12018     12021     12022     12020     12018     12021     12023
     12020     12018     12021     12024     12021     12024     12027     12028
     12021     12024     12027     12029     12021     12024     12027     12030
     12022     12021     12024     12025     12022     12021     12024     12026
     12022     12021     12024     12027     12023     12021     12024     12025
     12023     12021     12024     12026     12023     12021     12024     12027
     12024     12027     12030     12031     12024     12027     12030     12032
     12024     12027     12030     12033     12025     12024     12027     12028
     12025     12024     12027     12029     12025     12024     12027     12030
     12026     12024     12027     12028     12026     12024     12027     12029
     12026     12024     12027     12030     12028     12027     12030     12031
     12028     12027     12030     12032     12028     12027     12030     12033
     12029     12027     12030     12031     12029     12027     12030     12032
     12029     12027     12030     12033     12034     12037     12040     12041
     12034     12037     12040     12042     12034     12037     12040     12043
     12035     12034     12037     12038     12035     12034     12037     12039
     12035     12034     12037     12040     12036     12034     12037     12038
     12036     12034     12037     12039     12036     12034     12037     12040
     12037     12040     12043     12044     12037     12040     12043     12045
     12037     12040     12043     12046     12038     12037     12040     12041
     12038     12037     12040     12042     12038     12037     12040     12043
     12039     12037     12040     12041     12039     12037     12040     12042
     12039     12037     12040     12043     12040     12043     12046     12047
     12040     12043     12046     12048     12040     12043     12046     12049
     12041     12040     12043     12044     12041     12040     12043     12045
     12041     12040     12043     12046     12042     12040     12043     12044
     12042     12040     12043     12045     12042     12040     12043     12046
     12043     12046     12049     12050     12043     12046     12049     12051
     12043     12046     12049     12052     12044     12043     12046     12047
     12044     12043     12046     12048     12044     12043     12046     12049
     12045     12043     12046     12047     12045     12043     12046     12048
     12045     12043     12046     12049     12046     12049     12052     12053
     12046     12049     12052     12054     12046     12049     12052     12055
     12047     12046     12049     12050     12047     12046     12049     12051
     12047     12046     12049     12052     12048     12046     12049     12050
     12048     12046     12049     12051     12048     12046     12049     12052
     12049     12052     12055     12056     12049     12052     12055     12057
     12049     12052     12055     12058     12050     12049     12052     12053
     12050     12049     12052     12054     12050     12049     12052     12055
     12051     12049     12052     12053     12051     12049     12052     12054
     12051     12049     12052     12055     12052     12055     12058     12059
     12052     12055     12058     12060     12052     12055     12058     12061
     12053     12052     12055     12056     12053     12052     12055     12057
     12053     12052     12055     12058     12054     12052     12055     12056
     12054     12052     12055     12057     12054     12052     12055     12058
     12055     12058     12061     12062     12055     12058     12061     12063
     12055     12058     12061     12064     12056     12055     12058     12059
     12056     12055     12058     12060     12056     12055     12058     12061
     12057     12055     12058     12059     12057     12055     12058     12060
     12057     12055     12058     12061     12058     12061     12064     12065
     12058     12061     12064     12066     12058     12061     12064     12067
     12059     12058     12061     12062     12059     12058     12061     12063
     12059     12058     12061     12064     12060     12058     12061     12062
     12060     12058     12061     12063     12060     12058     12061     12064
     12061     12064     12067     12068     12061     12064     12067     12069
     12061     12064     12067     12070     12062     12061     12064     12065
     12062     12061     12064     12066     12062     12061     12064     12067
     12063     12061     12064     12065     12063     12061     12064     12066
     12063     12061     12064     12067     12064     12067     12070     12071
     12064     12067     12070     12072     12064     12067     12070     12073
     12065     12064     12067     12068     12065     12064     12067     12069
     12065     12064     12067     12070     12066     12064     12067     12068
     12066     12064     12067     12069     12066     12064     12067     12070
     12067     12070     12073     12074     12067     12070     12073     12075
     12067     12070     12073     12076     12068     12067     12070     12071
     12068     12067     12070     12072     12068     12067     12070     12073
     12069     12067     12070     12071     12069     12067     12070     12072
     12069     12067     12070     12073     12071     12070     12073     12074
     12071     12070     12073     12075     12071     12070     12073     12076
     12072     12070     12073     12074     12072     12070     12073     12075
     12072     12070     12073     12076     12077     12078     12093     12094
     12077     12078     12093     12095     12077     12078     12093     12099
     12078     12077     12081     12082     12078     12077     12081     12083
     12078     12077     12081     12084     12078     12077     12085     12086
     12078     12077     12085     12087     12078     12077     12085     12088
     12078     12077     12089     12090     12078     12077     12089     12091
     12078     12077     12089     12092     12078     12093     12099     12096
     12079     12078     12077     12081     12079     12078     12077     12085
     12079     12078     12077     12089     12079     12078     12093     12094
     12079     12078     12093     12095     12079     12078     12093     12099
     12080     12078     12077     12081     12080     12078     12077     12085
     12080     12078     12077     12089     12080     12078     12093     12094
     12080     12078     12093     12095     12080     12078     12093     12099
     12081     12077     12078     12093     12081     12077     12085     12086
     12081     12077     12085     12087     12081     12077     12085     12088
     12081     12077     12089     12090     12081     12077     12089     12091
     12081     12077     12089     12092     12082     12081     12077     12085
     12082     12081     12077     12089     12083     12081     12077     12085
     12083     12081     12077     12089     12084     12081     12077     12085
     12084     12081     12077     12089     12085     12077     12078     12093
     12085     12077     12089     12090     12085     12077     12089     12091
     12085     12077     12089     12092     12086     12085     12077     12089
     12087     12085     12077     12089     12088     12085     12077     12089
     12089     12077     12078     12093     12093     12099     12096     12097
     12093     12099     12096     12098     12093     12099     12096     12100
     12094     12093     12099     12096     12095     12093     12099     12096
     12096     12100     12101     12102     12096     12100     12101     12103
     12096     12100     12101     12104     12097     12096     12100     12101
     12098     12096     12100     12101     12099     12096     12100     12101
     12100     12101     12104     12105     12100     12101     12104     12106
     12100     12101     12104     12112     12101     12104     12106     12107
     12101     12104     12112     12113     12101     12104     12112     12114
     12101     12104     12112     12115     12102     12101     12104     12105
     12102     12101     12104     12106     12102     12101     12104     12112
     12103     12101     12104     12105     12103     12101     12104     12106
     12103     12101     12104     12112     12104     12106     12107     12108
     12104     12106     12107     12109     12104     12112     12115     12116
     12105     12104     12106     12107     12105     12104     12112     12113
     12105     12104     12112     12114     12105     12104     12112     12115
     12106     12104     12112     12113     12106     12104     12112     12114
     12106     12104     12112     12115     12106     12107     12109     12110
     12106     12107     12109     12111     12106     12107     12109     12121
     12107     12106     12104     12112     12107     12109     12121     12122
     12107     12109     12121     12123     12107     12109     12121     12124
     12108     12107     12109     12110     12108     12107     12109     12111
     12108     12107     12109     12121     12109     12121     12124     12125
     12109     12121     12124     12126     12109     12121     12124     12127
     12110     12109     12121     12122     12110     12109     12121     12123
     12110     12109     12121     12124     12111     12109     12121     12122
     12111     12109     12121     12123     12111     12109     12121     12124
     12112     12115     12116     12117     12112     12115     12116     12118
     12113     12112     12115     12116     12114     12112     12115     12116
     12115     12116     12118     12119     12115     12116     12118     12120
     12115     12116     12118     12168     12116     12118     12168     12169
     12116     12118     12168     12170     12116     12118     12168     12171
     12117     12116     12118     12119     12117     12116     12118     12120
     12117     12116     12118     12168     12118     12168     12171     12172
     12118     12168     12171     12173     12118     12168     12171     12174
     12119     12118     12168     12169     12119     12118     12168     12170
     12119     12118     12168     12171     12120     12118     12168     12169
     12120     12118     12168     12170     12120     12118     12168     12171
     12121     12124     12127     12128     12121     12124     12127     12129
     12121     12124     12127     12130     12122     12121     12124     12125
     12122     12121     12124     12126     12122     12121     12124     12127
     12123     12121     12124     12125     12123     12121     12124     12126
     12123     12121     12124     12127     12124     12127     12130     12131
     12124     12127     12130     12132     12124     12127     12130     12133
     12125     12124     12127     12128     12125     12124     12127     12129
     12125     12124     12127     12130     12126     12124     12127     12128
     12126     12124     12127     12129     12126     12124     12127     12130
     12127     12130     12133     12134     12127     12130     12133     12135
     12127     12130     12133     12136     12128     12127     12130     12131
     12128     12127     12130     12132     12128     12127     12130     12133
     12129     12127     12130     12131     12129     12127     12130     12132
     12129     12127     12130     12133     12130     12133     12136     12137
     12130     12133     12136     12138     12130     12133     12136     12139
     12131     12130     12133     12134     12131     12130     12133     12135
     12131     12130     12133     12136     12132     12130     12133     12134
     12132     12130     12133     12135     12132     12130     12133     12136
     12133     12136     12139     12140     12133     12136     12139     12141
     12134     12133     12136     12137     12134     12133     12136     12138
     12134     12133     12136     12139     12135     12133     12136     12137
     12135     12133     12136     12138     12135     12133     12136     12139
     12136     12139     12141     12142     12136     12139     12141     12143
     12137     12136     12139     12140     12137     12136     12139     12141
     12138     12136     12139     12140     12138     12136     12139     12141
     12139     12141     12143     12144     12139     12141     12143     12145
     12139     12141     12143     12146     12140     12139     12141     12142
     12140     12139     12141     12143     12141     12143     12146     12147
     12141     12143     12146     12148     12141     12143     12146     12149
     12142     12141     12143     12144     12142     12141     12143     12145
     12142     12141     12143     12146     12143     12146     12149     12150
     12143     12146     12149     12151     12143     12146     12149     12152
     12144     12143     12146     12147     12144     12143     12146     12148
     12144     12143     12146     12149     12145     12143     12146     12147
     12145     12143     12146     12148     12145     12143     12146     12149
     12146     12149     12152     12153     12146     12149     12152     12154
     12146     12149     12152     12155     12147     12146     12149     12150
     12147     12146     12149     12151     12147     12146     12149     12152
     12148     12146     12149     12150     12148     12146     12149     12151
     12148     12146     12149     12152     12149     12152     12155     12156
     12149     12152     12155     12157     12149     12152     12155     12158
     12150     12149     12152     12153     12150     12149     12152     12154
     12150     12149     12152     12155     12151     12149     12152     12153
     12151     12149     12152     12154     12151     12149     12152     12155
     12152     12155     12158     12159     12152     12155     12158     12160
     12152     12155     12158     12161     12153     12152     12155     12156
     12153     12152     12155     12157     12153     12152     12155     12158
     12154     12152     12155     12156     12154     12152     12155     12157
     12154     12152     12155     12158     12155     12158     12161     12162
     12155     12158     12161     12163     12155     12158     12161     12164
     12156     12155     12158     12159     12156     12155     12158     12160
     12156     12155     12158     12161     12157     12155     12158     12159
     12157     12155     12158     12160     12157     12155     12158     12161
     12158     12161     12164     12165     12158     12161     12164     12166
     12158     12161     12164     12167     12159     12158     12161     12162
     12159     12158     12161     12163     12159     12158     12161     12164
     12160     12158     12161     12162     12160     12158     12161     12163
     12160     12158     12161     12164     12162     12161     12164     12165
     12162     12161     12164     12166     12162     12161     12164     12167
     12163     12161     12164     12165     12163     12161     12164     12166
     12163     12161     12164     12167     12168     12171     12174     12175
     12168     12171     12174     12176     12168     12171     12174     12177
     12169     12168     12171     12172     12169     12168     12171     12173
     12169     12168     12171     12174     12170     12168     12171     12172
     12170     12168     12171     12173     12170     12168     12171     12174
     12171     12174     12177     12178     12171     12174     12177     12179
     12171     12174     12177     12180     12172     12171     12174     12175
     12172     12171     12174     12176     12172     12171     12174     12177
     12173     12171     12174     12175     12173     12171     12174     12176
     12173     12171     12174     12177     12174     12177     12180     12181
     12174     12177     12180     12182     12174     12177     12180     12183
     12175     12174     12177     12178     12175     12174     12177     12179
     12175     12174     12177     12180     12176     12174     12177     12178
     12176     12174     12177     12179     12176     12174     12177     12180
     12177     12180     12183     12184     12177     12180     12183     12185
     12177     12180     12183     12186     12178     12177     12180     12181
     12178     12177     12180     12182     12178     12177     12180     12183
     12179     12177     12180     12181     12179     12177     12180     12182
     12179     12177     12180     12183     12180     12183     12186     12187
     12180     12183     12186     12188     12180     12183     12186     12189
     12181     12180     12183     12184     12181     12180     12183     12185
     12181     12180     12183     12186     12182     12180     12183     12184
     12182     12180     12183     12185     12182     12180     12183     12186
     12183     12186     12189     12190     12183     12186     12189     12191
     12183     12186     12189     12192     12184     12183     12186     12187
     12184     12183     12186     12188     12184     12183     12186     12189
     12185     12183     12186     12187     12185     12183     12186     12188
     12185     12183     12186     12189     12186     12189     12192     12193
     12186     12189     12192     12194     12186     12189     12192     12195
     12187     12186     12189     12190     12187     12186     12189     12191
     12187     12186     12189     12192     12188     12186     12189     12190
     12188     12186     12189     12191     12188     12186     12189     12192
     12189     12192     12195     12196     12189     12192     12195     12197
     12189     12192     12195     12198     12190     12189     12192     12193
     12190     12189     12192     12194     12190     12189     12192     12195
     12191     12189     12192     12193     12191     12189     12192     12194
     12191     12189     12192     12195     12192     12195     12198     12199
     12192     12195     12198     12200     12192     12195     12198     12201
     12193     12192     12195     12196     12193     12192     12195     12197
     12193     12192     12195     12198     12194     12192     12195     12196
     12194     12192     12195     12197     12194     12192     12195     12198
     12195     12198     12201     12202     12195     12198     12201     12203
     12195     12198     12201     12204     12196     12195     12198     12199
     12196     12195     12198     12200     12196     12195     12198     12201
     12197     12195     12198     12199     12197     12195     12198     12200
     12197     12195     12198     12201     12198     12201     12204     12205
     12198     12201     12204     12206     12198     12201     12204     12207
     12199     12198     12201     12202     12199     12198     12201     12203
     12199     12198     12201     12204     12200     12198     12201     12202
     12200     12198     12201     12203     12200     12198     12201     12204
     12201     12204     12207     12208     12201     12204     12207     12209
     12201     12204     12207     12210     12202     12201     12204     12205
     12202     12201     12204     12206     12202     12201     12204     12207
     12203     12201     12204     12205     12203     12201     12204     12206
     12203     12201     12204     12207     12205     12204     12207     12208
     12205     12204     12207     12209     12205     12204     12207     12210
     12206     12204     12207     12208     12206     12204     12207     12209
     12206     12204     12207     12210     12211     12212     12227     12228
     12211     12212     12227     12229     12211     12212     12227     12233
     12212     12211     12215     12216     12212     12211     12215     12217
     12212     12211     12215     12218     12212     12211     12219     12220
     12212     12211     12219     12221     12212     12211     12219     12222
     12212     12211     12223     12224     12212     12211     12223     12225
     12212     12211     12223     12226     12212     12227     12233     12230
     12213     12212     12211     12215     12213     12212     12211     12219
     12213     12212     12211     12223     12213     12212     12227     12228
     12213     12212     12227     12229     12213     12212     12227     12233
     12214     12212     12211     12215     12214     12212     12211     12219
     12214     12212     12211     12223     12214     12212     12227     12228
     12214     12212     12227     12229     12214     12212     12227     12233
     12215     12211     12212     12227     12215     12211     12219     12220
     12215     12211     12219     12221     12215     12211     12219     12222
     12215     12211     12223     12224     12215     12211     12223     12225
     12215     12211     12223     12226     12216     12215     12211     12219
     12216     12215     12211     12223     12217     12215     12211     12219
     12217     12215     12211     12223     12218     12215     12211     12219
     12218     12215     12211     12223     12219     12211     12212     12227
     12219     12211     12223     12224     12219     12211     12223     12225
     12219     12211     12223     12226     12220     12219     12211     12223
     12221     12219     12211     12223     12222     12219     12211     12223
     12223     12211     12212     12227     12227     12233     12230     12231
     12227     12233     12230     12232     12227     12233     12230     12234
     12228     12227     12233     12230     12229     12227     12233     12230
     12230     12234     12235     12236     12230     12234     12235     12237
     12230     12234     12235     12238     12231     12230     12234     12235
     12232     12230     12234     12235     12233     12230     12234     12235
     12234     12235     12238     12239     12234     12235     12238     12240
     12234     12235     12238     12246     12235     12238     12240     12241
     12235     12238     12246     12247     12235     12238     12246     12248
     12235     12238     12246     12249     12236     12235     12238     12239
     12236     12235     12238     12240     12236     12235     12238     12246
     12237     12235     12238     12239     12237     12235     12238     12240
     12237     12235     12238     12246     12238     12240     12241     12242
     12238     12240     12241     12243     12238     12246     12249     12250
     12239     12238     12240     12241     12239     12238     12246     12247
     12239     12238     12246     12248     12239     12238     12246     12249
     12240     12238     12246     12247     12240     12238     12246     12248
     12240     12238     12246     12249     12240     12241     12243     12244
     12240     12241     12243     12245     12240     12241     12243     12255
     12241     12240     12238     12246     12241     12243     12255     12256
     12241     12243     12255     12257     12241     12243     12255     12258
     12242     12241     12243     12244     12242     12241     12243     12245
     12242     12241     12243     12255     12243     12255     12258     12259
     12243     12255     12258     12260     12243     12255     12258     12261
     12244     12243     12255     12256     12244     12243     12255     12257
     12244     12243     12255     12258     12245     12243     12255     12256
     12245     12243     12255     12257     12245     12243     12255     12258
     12246     12249     12250     12251     12246     12249     12250     12252
     12247     12246     12249     12250     12248     12246     12249     12250
     12249     12250     12252     12253     12249     12250     12252     12254
     12249     12250     12252     12302     12250     12252     12302     12303
     12250     12252     12302     12304     12250     12252     12302     12305
     12251     12250     12252     12253     12251     12250     12252     12254
     12251     12250     12252     12302     12252     12302     12305     12306
     12252     12302     12305     12307     12252     12302     12305     12308
     12253     12252     12302     12303     12253     12252     12302     12304
     12253     12252     12302     12305     12254     12252     12302     12303
     12254     12252     12302     12304     12254     12252     12302     12305
     12255     12258     12261     12262     12255     12258     12261     12263
     12255     12258     12261     12264     12256     12255     12258     12259
     12256     12255     12258     12260     12256     12255     12258     12261
     12257     12255     12258     12259     12257     12255     12258     12260
     12257     12255     12258     12261     12258     12261     12264     12265
     12258     12261     12264     12266     12258     12261     12264     12267
     12259     12258     12261     12262     12259     12258     12261     12263
     12259     12258     12261     12264     12260     12258     12261     12262
     12260     12258     12261     12263     12260     12258     12261     12264
     12261     12264     12267     12268     12261     12264     12267     12269
     12261     12264     12267     12270     12262     12261     12264     12265
     12262     12261     12264     12266     12262     12261     12264     12267
     12263     12261     12264     12265     12263     12261     12264     12266
     12263     12261     12264     12267     12264     12267     12270     12271
     12264     12267     12270     12272     12264     12267     12270     12273
     12265     12264     12267     12268     12265     12264     12267     12269
     12265     12264     12267     12270     12266     12264     12267     12268
     12266     12264     12267     12269     12266     12264     12267     12270
     12267     12270     12273     12274     12267     12270     12273     12275
     12268     12267     12270     12271     12268     12267     12270     12272
     12268     12267     12270     12273     12269     12267     12270     12271
     12269     12267     12270     12272     12269     12267     12270     12273
     12270     12273     12275     12276     12270     12273     12275     12277
     12271     12270     12273     12274     12271     12270     12273     12275
     12272     12270     12273     12274     12272     12270     12273     12275
     12273     12275     12277     12278     12273     12275     12277     12279
     12273     12275     12277     12280     12274     12273     12275     12276
     12274     12273     12275     12277     12275     12277     12280     12281
     12275     12277     12280     12282     12275     12277     12280     12283
     12276     12275     12277     12278     12276     12275     12277     12279
     12276     12275     12277     12280     12277     12280     12283     12284
     12277     12280     12283     12285     12277     12280     12283     12286
     12278     12277     12280     12281     12278     12277     12280     12282
     12278     12277     12280     12283     12279     12277     12280     12281
     12279     12277     12280     12282     12279     12277     12280     12283
     12280     12283     12286     12287     12280     12283     12286     12288
     12280     12283     12286     12289     12281     12280     12283     12284
     12281     12280     12283     12285     12281     12280     12283     12286
     12282     12280     12283     12284     12282     12280     12283     12285
     12282     12280     12283     12286     12283     12286     12289     12290
     12283     12286     12289     12291     12283     12286     12289     12292
     12284     12283     12286     12287     12284     12283     12286     12288
     12284     12283     12286     12289     12285     12283     12286     12287
     12285     12283     12286     12288     12285     12283     12286     12289
     12286     12289     12292     12293     12286     12289     12292     12294
     12286     12289     12292     12295     12287     12286     12289     12290
     12287     12286     12289     12291     12287     12286     12289     12292
     12288     12286     12289     12290     12288     12286     12289     12291
     12288     12286     12289     12292     12289     12292     12295     12296
     12289     12292     12295     12297     12289     12292     12295     12298
     12290     12289     12292     12293     12290     12289     12292     12294
     12290     12289     12292     12295     12291     12289     12292     12293
     12291     12289     12292     12294     12291     12289     12292     12295
     12292     12295     12298     12299     12292     12295     12298     12300
     12292     12295     12298     12301     12293     12292     12295     12296
     12293     12292     12295     12297     12293     12292     12295     12298
     12294     12292     12295     12296     12294     12292     12295     12297
     12294     12292     12295     12298     12296     12295     12298     12299
     12296     12295     12298     12300     12296     12295     12298     12301
     12297     12295     12298     12299     12297     12295     12298     12300
     12297     12295     12298     12301     12302     12305     12308     12309
     12302     12305     12308     12310     12302     12305     12308     12311
     12303     12302     12305     12306     12303     12302     12305     12307
     12303     12302     12305     12308     12304     12302     12305     12306
     12304     12302     12305     12307     12304     12302     12305     12308
     12305     12308     12311     12312     12305     12308     12311     12313
     12305     12308     12311     12314     12306     12305     12308     12309
     12306     12305     12308     12310     12306     12305     12308     12311
     12307     12305     12308     12309     12307     12305     12308     12310
     12307     12305     12308     12311     12308     12311     12314     12315
     12308     12311     12314     12316     12308     12311     12314     12317
     12309     12308     12311     12312     12309     12308     12311     12313
     12309     12308     12311     12314     12310     12308     12311     12312
     12310     12308     12311     12313     12310     12308     12311     12314
     12311     12314     12317     12318     12311     12314     12317     12319
     12311     12314     12317     12320     12312     12311     12314     12315
     12312     12311     12314     12316     12312     12311     12314     12317
     12313     12311     12314     12315     12313     12311     12314     12316
     12313     12311     12314     12317     12314     12317     12320     12321
     12314     12317     12320     12322     12314     12317     12320     12323
     12315     12314     12317     12318     12315     12314     12317     12319
     12315     12314     12317     12320     12316     12314     12317     12318
     12316     12314     12317     12319     12316     12314     12317     12320
     12317     12320     12323     12324     12317     12320     12323     12325
     12317     12320     12323     12326     12318     12317     12320     12321
     12318     12317     12320     12322     12318     12317     12320     12323
     12319     12317     12320     12321     12319     12317     12320     12322
     12319     12317     12320     12323     12320     12323     12326     12327
     12320     12323     12326     12328     12320     12323     12326     12329
     12321     12320     12323     12324     12321     12320     12323     12325
     12321     12320     12323     12326     12322     12320     12323     12324
     12322     12320     12323     12325     12322     12320     12323     12326
     12323     12326     12329     12330     12323     12326     12329     12331
     12323     12326     12329     12332     12324     12323     12326     12327
     12324     12323     12326     12328     12324     12323     12326     12329
     12325     12323     12326     12327     12325     12323     12326     12328
     12325     12323     12326     12329     12326     12329     12332     12333
     12326     12329     12332     12334     12326     12329     12332     12335
     12327     12326     12329     12330     12327     12326     12329     12331
     12327     12326     12329     12332     12328     12326     12329     12330
     12328     12326     12329     12331     12328     12326     12329     12332
     12329     12332     12335     12336     12329     12332     12335     12337
     12329     12332     12335     12338     12330     12329     12332     12333
     12330     12329     12332     12334     12330     12329     12332     12335
     12331     12329     12332     12333     12331     12329     12332     12334
     12331     12329     12332     12335     12332     12335     12338     12339
     12332     12335     12338     12340     12332     12335     12338     12341
     12333     12332     12335     12336     12333     12332     12335     12337
     12333     12332     12335     12338     12334     12332     12335     12336
     12334     12332     12335     12337     12334     12332     12335     12338
     12335     12338     12341     12342     12335     12338     12341     12343
     12335     12338     12341     12344     12336     12335     12338     12339
     12336     12335     12338     12340     12336     12335     12338     12341
     12337     12335     12338     12339     12337     12335     12338     12340
     12337     12335     12338     12341     12339     12338     12341     12342
     12339     12338     12341     12343     12339     12338     12341     12344
     12340     12338     12341     12342     12340     12338     12341     12343
     12340     12338     12341     12344     12345     12346     12361     12362
     12345     12346     12361     12363     12345     12346     12361     12367
     12346     12345     12349     12350     12346     12345     12349     12351
     12346     12345     12349     12352     12346     12345     12353     12354
     12346     12345     12353     12355     12346     12345     12353     12356
     12346     12345     12357     12358     12346     12345     12357     12359
     12346     12345     12357     12360     12346     12361     12367     12364
     12347     12346     12345     12349     12347     12346     12345     12353
     12347     12346     12345     12357     12347     12346     12361     12362
     12347     12346     12361     12363     12347     12346     12361     12367
     12348     12346     12345     12349     12348     12346     12345     12353
     12348     12346     12345     12357     12348     12346     12361     12362
     12348     12346     12361     12363     12348     12346     12361     12367
     12349     12345     12346     12361     12349     12345     12353     12354
     12349     12345     12353     12355     12349     12345     12353     12356
     12349     12345     12357     12358     12349     12345     12357     12359
     12349     12345     12357     12360     12350     12349     12345     12353
     12350     12349     12345     12357     12351     12349     12345     12353
     12351     12349     12345     12357     12352     12349     12345     12353
     12352     12349     12345     12357     12353     12345     12346     12361
     12353     12345     12357     12358     12353     12345     12357     12359
     12353     12345     12357     12360     12354     12353     12345     12357
     12355     12353     12345     12357     12356     12353     12345     12357
     12357     12345     12346     12361     12361     12367     12364     12365
     12361     12367     12364     12366     12361     12367     12364     12368
     12362     12361     12367     12364     12363     12361     12367     12364
     12364     12368     12369     12370     12364     12368     12369     12371
     12364     12368     12369     12372     12365     12364     12368     12369
     12366     12364     12368     12369     12367     12364     12368     12369
     12368     12369     12372     12373     12368     12369     12372     12374
     12368     12369     12372     12380     12369     12372     12374     12375
     12369     12372     12380     12381     12369     12372     12380     12382
     12369     12372     12380     12383     12370     12369     12372     12373
     12370     12369     12372     12374     12370     12369     12372     12380
     12371     12369     12372     12373     12371     12369     12372     12374
     12371     12369     12372     12380     12372     12374     12375     12376
     12372     12374     12375     12377     12372     12380     12383     12384
     12373     12372     12374     12375     12373     12372     12380     12381
     12373     12372     12380     12382     12373     12372     12380     12383
     12374     12372     12380     12381     12374     12372     12380     12382
     12374     12372     12380     12383     12374     12375     12377     12378
     12374     12375     12377     12379     12374     12375     12377     12389
     12375     12374     12372     12380     12375     12377     12389     12390
     12375     12377     12389     12391     12375     12377     12389     12392
     12376     12375     12377     12378     12376     12375     12377     12379
     12376     12375     12377     12389     12377     12389     12392     12393
     12377     12389     12392     12394     12377     12389     12392     12395
     12378     12377     12389     12390     12378     12377     12389     12391
     12378     12377     12389     12392     12379     12377     12389     12390
     12379     12377     12389     12391     12379     12377     12389     12392
     12380     12383     12384     12385     12380     12383     12384     12386
     12381     12380     12383     12384     12382     12380     12383     12384
     12383     12384     12386     12387     12383     12384     12386     12388
     12383     12384     12386     12436     12384     12386     12436     12437
     12384     12386     12436     12438     12384     12386     12436     12439
     12385     12384     12386     12387     12385     12384     12386     12388
     12385     12384     12386     12436     12386     12436     12439     12440
     12386     12436     12439     12441     12386     12436     12439     12442
     12387     12386     12436     12437     12387     12386     12436     12438
     12387     12386     12436     12439     12388     12386     12436     12437
     12388     12386     12436     12438     12388     12386     12436     12439
     12389     12392     12395     12396     12389     12392     12395     12397
     12389     12392     12395     12398     12390     12389     12392     12393
     12390     12389     12392     12394     12390     12389     12392     12395
     12391     12389     12392     12393     12391     12389     12392     12394
     12391     12389     12392     12395     12392     12395     12398     12399
     12392     12395     12398     12400     12392     12395     12398     12401
     12393     12392     12395     12396     12393     12392     12395     12397
     12393     12392     12395     12398     12394     12392     12395     12396
     12394     12392     12395     12397     12394     12392     12395     12398
     12395     12398     12401     12402     12395     12398     12401     12403
     12395     12398     12401     12404     12396     12395     12398     12399
     12396     12395     12398     12400     12396     12395     12398     12401
     12397     12395     12398     12399     12397     12395     12398     12400
     12397     12395     12398     12401     12398     12401     12404     12405
     12398     12401     12404     12406     12398     12401     12404     12407
     12399     12398     12401     12402     12399     12398     12401     12403
     12399     12398     12401     12404     12400     12398     12401     12402
     12400     12398     12401     12403     12400     12398     12401     12404
     12401     12404     12407     12408     12401     12404     12407     12409
     12402     12401     12404     12405     12402     12401     12404     12406
     12402     12401     12404     12407     12403     12401     12404     12405
     12403     12401     12404     12406     12403     12401     12404     12407
     12404     12407     12409     12410     12404     12407     12409     12411
     12405     12404     12407     12408     12405     12404     12407     12409
     12406     12404     12407     12408     12406     12404     12407     12409
     12407     12409     12411     12412     12407     12409     12411     12413
     12407     12409     12411     12414     12408     12407     12409     12410
     12408     12407     12409     12411     12409     12411     12414     12415
     12409     12411     12414     12416     12409     12411     12414     12417
     12410     12409     12411     12412     12410     12409     12411     12413
     12410     12409     12411     12414     12411     12414     12417     12418
     12411     12414     12417     12419     12411     12414     12417     12420
     12412     12411     12414     12415     12412     12411     12414     12416
     12412     12411     12414     12417     12413     12411     12414     12415
     12413     12411     12414     12416     12413     12411     12414     12417
     12414     12417     12420     12421     12414     12417     12420     12422
     12414     12417     12420     12423     12415     12414     12417     12418
     12415     12414     12417     12419     12415     12414     12417     12420
     12416     12414     12417     12418     12416     12414     12417     12419
     12416     12414     12417     12420     12417     12420     12423     12424
     12417     12420     12423     12425     12417     12420     12423     12426
     12418     12417     12420     12421     12418     12417     12420     12422
     12418     12417     12420     12423     12419     12417     12420     12421
     12419     12417     12420     12422     12419     12417     12420     12423
     12420     12423     12426     12427     12420     12423     12426     12428
     12420     12423     12426     12429     12421     12420     12423     12424
     12421     12420     12423     12425     12421     12420     12423     12426
     12422     12420     12423     12424     12422     12420     12423     12425
     12422     12420     12423     12426     12423     12426     12429     12430
     12423     12426     12429     12431     12423     12426     12429     12432
     12424     12423     12426     12427     12424     12423     12426     12428
     12424     12423     12426     12429     12425     12423     12426     12427
     12425     12423     12426     12428     12425     12423     12426     12429
     12426     12429     12432     12433     12426     12429     12432     12434
     12426     12429     12432     12435     12427     12426     12429     12430
     12427     12426     12429     12431     12427     12426     12429     12432
     12428     12426     12429     12430     12428     12426     12429     12431
     12428     12426     12429     12432     12430     12429     12432     12433
     12430     12429     12432     12434     12430     12429     12432     12435
     12431     12429     12432     12433     12431     12429     12432     12434
     12431     12429     12432     12435     12436     12439     12442     12443
     12436     12439     12442     12444     12436     12439     12442     12445
     12437     12436     12439     12440     12437     12436     12439     12441
     12437     12436     12439     12442     12438     12436     12439     12440
     12438     12436     12439     12441     12438     12436     12439     12442
     12439     12442     12445     12446     12439     12442     12445     12447
     12439     12442     12445     12448     12440     12439     12442     12443
     12440     12439     12442     12444     12440     12439     12442     12445
     12441     12439     12442     12443     12441     12439     12442     12444
     12441     12439     12442     12445     12442     12445     12448     12449
     12442     12445     12448     12450     12442     12445     12448     12451
     12443     12442     12445     12446     12443     12442     12445     12447
     12443     12442     12445     12448     12444     12442     12445     12446
     12444     12442     12445     12447     12444     12442     12445     12448
     12445     12448     12451     12452     12445     12448     12451     12453
     12445     12448     12451     12454     12446     12445     12448     12449
     12446     12445     12448     12450     12446     12445     12448     12451
     12447     12445     12448     12449     12447     12445     12448     12450
     12447     12445     12448     12451     12448     12451     12454     12455
     12448     12451     12454     12456     12448     12451     12454     12457
     12449     12448     12451     12452     12449     12448     12451     12453
     12449     12448     12451     12454     12450     12448     12451     12452
     12450     12448     12451     12453     12450     12448     12451     12454
     12451     12454     12457     12458     12451     12454     12457     12459
     12451     12454     12457     12460     12452     12451     12454     12455
     12452     12451     12454     12456     12452     12451     12454     12457
     12453     12451     12454     12455     12453     12451     12454     12456
     12453     12451     12454     12457     12454     12457     12460     12461
     12454     12457     12460     12462     12454     12457     12460     12463
     12455     12454     12457     12458     12455     12454     12457     12459
     12455     12454     12457     12460     12456     12454     12457     12458
     12456     12454     12457     12459     12456     12454     12457     12460
     12457     12460     12463     12464     12457     12460     12463     12465
     12457     12460     12463     12466     12458     12457     12460     12461
     12458     12457     12460     12462     12458     12457     12460     12463
     12459     12457     12460     12461     12459     12457     12460     12462
     12459     12457     12460     12463     12460     12463     12466     12467
     12460     12463     12466     12468     12460     12463     12466     12469
     12461     12460     12463     12464     12461     12460     12463     12465
     12461     12460     12463     12466     12462     12460     12463     12464
     12462     12460     12463     12465     12462     12460     12463     12466
     12463     12466     12469     12470     12463     12466     12469     12471
     12463     12466     12469     12472     12464     12463     12466     12467
     12464     12463     12466     12468     12464     12463     12466     12469
     12465     12463     12466     12467     12465     12463     12466     12468
     12465     12463     12466     12469     12466     12469     12472     12473
     12466     12469     12472     12474     12466     12469     12472     12475
     12467     12466     12469     12470     12467     12466     12469     12471
     12467     12466     12469     12472     12468     12466     12469     12470
     12468     12466     12469     12471     12468     12466     12469     12472
     12469     12472     12475     12476     12469     12472     12475     12477
     12469     12472     12475     12478     12470     12469     12472     12473
     12470     12469     12472     12474     12470     12469     12472     12475
     12471     12469     12472     12473     12471     12469     12472     12474
     12471     12469     12472     12475     12473     12472     12475     12476
     12473     12472     12475     12477     12473     12472     12475     12478
     12474     12472     12475     12476     12474     12472     12475     12477
     12474     12472     12475     12478     12479     12480     12495     12496
     12479     12480     12495     12497     12479     12480     12495     12501
     12480     12479     12483     12484     12480     12479     12483     12485
     12480     12479     12483     12486     12480     12479     12487     12488
     12480     12479     12487     12489     12480     12479     12487     12490
     12480     12479     12491     12492     12480     12479     12491     12493
     12480     12479     12491     12494     12480     12495     12501     12498
     12481     12480     12479     12483     12481     12480     12479     12487
     12481     12480     12479     12491     12481     12480     12495     12496
     12481     12480     12495     12497     12481     12480     12495     12501
     12482     12480     12479     12483     12482     12480     12479     12487
     12482     12480     12479     12491     12482     12480     12495     12496
     12482     12480     12495     12497     12482     12480     12495     12501
     12483     12479     12480     12495     12483     12479     12487     12488
     12483     12479     12487     12489     12483     12479     12487     12490
     12483     12479     12491     12492     12483     12479     12491     12493
     12483     12479     12491     12494     12484     12483     12479     12487
     12484     12483     12479     12491     12485     12483     12479     12487
     12485     12483     12479     12491     12486     12483     12479     12487
     12486     12483     12479     12491     12487     12479     12480     12495
     12487     12479     12491     12492     12487     12479     12491     12493
     12487     12479     12491     12494     12488     12487     12479     12491
     12489     12487     12479     12491     12490     12487     12479     12491
     12491     12479     12480     12495     12495     12501     12498     12499
     12495     12501     12498     12500     12495     12501     12498     12502
     12496     12495     12501     12498     12497     12495     12501     12498
     12498     12502     12503     12504     12498     12502     12503     12505
     12498     12502     12503     12506     12499     12498     12502     12503
     12500     12498     12502     12503     12501     12498     12502     12503
     12502     12503     12506     12507     12502     12503     12506     12508
     12502     12503     12506     12514     12503     12506     12508     12509
     12503     12506     12514     12515     12503     12506     12514     12516
     12503     12506     12514     12517     12504     12503     12506     12507
     12504     12503     12506     12508     12504     12503     12506     12514
     12505     12503     12506     12507     12505     12503     12506     12508
     12505     12503     12506     12514     12506     12508     12509     12510
     12506     12508     12509     12511     12506     12514     12517     12518
     12507     12506     12508     12509     12507     12506     12514     12515
     12507     12506     12514     12516     12507     12506     12514     12517
     12508     12506     12514     12515     12508     12506     12514     12516
     12508     12506     12514     12517     12508     12509     12511     12512
     12508     12509     12511     12513     12508     12509     12511     12523
     12509     12508     12506     12514     12509     12511     12523     12524
     12509     12511     12523     12525     12509     12511     12523     12526
     12510     12509     12511     12512     12510     12509     12511     12513
     12510     12509     12511     12523     12511     12523     12526     12527
     12511     12523     12526     12528     12511     12523     12526     12529
     12512     12511     12523     12524     12512     12511     12523     12525
     12512     12511     12523     12526     12513     12511     12523     12524
     12513     12511     12523     12525     12513     12511     12523     12526
     12514     12517     12518     12519     12514     12517     12518     12520
     12515     12514     12517     12518     12516     12514     12517     12518
     12517     12518     12520     12521     12517     12518     12520     12522
     12517     12518     12520     12570     12518     12520     12570     12571
     12518     12520     12570     12572     12518     12520     12570     12573
     12519     12518     12520     12521     12519     12518     12520     12522
     12519     12518     12520     12570     12520     12570     12573     12574
     12520     12570     12573     12575     12520     12570     12573     12576
     12521     12520     12570     12571     12521     12520     12570     12572
     12521     12520     12570     12573     12522     12520     12570     12571
     12522     12520     12570     12572     12522     12520     12570     12573
     12523     12526     12529     12530     12523     12526     12529     12531
     12523     12526     12529     12532     12524     12523     12526     12527
     12524     12523     12526     12528     12524     12523     12526     12529
     12525     12523     12526     12527     12525     12523     12526     12528
     12525     12523     12526     12529     12526     12529     12532     12533
     12526     12529     12532     12534     12526     12529     12532     12535
     12527     12526     12529     12530     12527     12526     12529     12531
     12527     12526     12529     12532     12528     12526     12529     12530
     12528     12526     12529     12531     12528     12526     12529     12532
     12529     12532     12535     12536     12529     12532     12535     12537
     12529     12532     12535     12538     12530     12529     12532     12533
     12530     12529     12532     12534     12530     12529     12532     12535
     12531     12529     12532     12533     12531     12529     12532     12534
     12531     12529     12532     12535     12532     12535     12538     12539
     12532     12535     12538     12540     12532     12535     12538     12541
     12533     12532     12535     12536     12533     12532     12535     12537
     12533     12532     12535     12538     12534     12532     12535     12536
     12534     12532     12535     12537     12534     12532     12535     12538
     12535     12538     12541     12542     12535     12538     12541     12543
     12536     12535     12538     12539     12536     12535     12538     12540
     12536     12535     12538     12541     12537     12535     12538     12539
     12537     12535     12538     12540     12537     12535     12538     12541
     12538     12541     12543     12544     12538     12541     12543     12545
     12539     12538     12541     12542     12539     12538     12541     12543
     12540     12538     12541     12542     12540     12538     12541     12543
     12541     12543     12545     12546     12541     12543     12545     12547
     12541     12543     12545     12548     12542     12541     12543     12544
     12542     12541     12543     12545     12543     12545     12548     12549
     12543     12545     12548     12550     12543     12545     12548     12551
     12544     12543     12545     12546     12544     12543     12545     12547
     12544     12543     12545     12548     12545     12548     12551     12552
     12545     12548     12551     12553     12545     12548     12551     12554
     12546     12545     12548     12549     12546     12545     12548     12550
     12546     12545     12548     12551     12547     12545     12548     12549
     12547     12545     12548     12550     12547     12545     12548     12551
     12548     12551     12554     12555     12548     12551     12554     12556
     12548     12551     12554     12557     12549     12548     12551     12552
     12549     12548     12551     12553     12549     12548     12551     12554
     12550     12548     12551     12552     12550     12548     12551     12553
     12550     12548     12551     12554     12551     12554     12557     12558
     12551     12554     12557     12559     12551     12554     12557     12560
     12552     12551     12554     12555     12552     12551     12554     12556
     12552     12551     12554     12557     12553     12551     12554     12555
     12553     12551     12554     12556     12553     12551     12554     12557
     12554     12557     12560     12561     12554     12557     12560     12562
     12554     12557     12560     12563     12555     12554     12557     12558
     12555     12554     12557     12559     12555     12554     12557     12560
     12556     12554     12557     12558     12556     12554     12557     12559
     12556     12554     12557     12560     12557     12560     12563     12564
     12557     12560     12563     12565     12557     12560     12563     12566
     12558     12557     12560     12561     12558     12557     12560     12562
     12558     12557     12560     12563     12559     12557     12560     12561
     12559     12557     12560     12562     12559     12557     12560     12563
     12560     12563     12566     12567     12560     12563     12566     12568
     12560     12563     12566     12569     12561     12560     12563     12564
     12561     12560     12563     12565     12561     12560     12563     12566
     12562     12560     12563     12564     12562     12560     12563     12565
     12562     12560     12563     12566     12564     12563     12566     12567
     12564     12563     12566     12568     12564     12563     12566     12569
     12565     12563     12566     12567     12565     12563     12566     12568
     12565     12563     12566     12569     12570     12573     12576     12577
     12570     12573     12576     12578     12570     12573     12576     12579
     12571     12570     12573     12574     12571     12570     12573     12575
     12571     12570     12573     12576     12572     12570     12573     12574
     12572     12570     12573     12575     12572     12570     12573     12576
     12573     12576     12579     12580     12573     12576     12579     12581
     12573     12576     12579     12582     12574     12573     12576     12577
     12574     12573     12576     12578     12574     12573     12576     12579
     12575     12573     12576     12577     12575     12573     12576     12578
     12575     12573     12576     12579     12576     12579     12582     12583
     12576     12579     12582     12584     12576     12579     12582     12585
     12577     12576     12579     12580     12577     12576     12579     12581
     12577     12576     12579     12582     12578     12576     12579     12580
     12578     12576     12579     12581     12578     12576     12579     12582
     12579     12582     12585     12586     12579     12582     12585     12587
     12579     12582     12585     12588     12580     12579     12582     12583
     12580     12579     12582     12584     12580     12579     12582     12585
     12581     12579     12582     12583     12581     12579     12582     12584
     12581     12579     12582     12585     12582     12585     12588     12589
     12582     12585     12588     12590     12582     12585     12588     12591
     12583     12582     12585     12586     12583     12582     12585     12587
     12583     12582     12585     12588     12584     12582     12585     12586
     12584     12582     12585     12587     12584     12582     12585     12588
     12585     12588     12591     12592     12585     12588     12591     12593
     12585     12588     12591     12594     12586     12585     12588     12589
     12586     12585     12588     12590     12586     12585     12588     12591
     12587     12585     12588     12589     12587     12585     12588     12590
     12587     12585     12588     12591     12588     12591     12594     12595
     12588     12591     12594     12596     12588     12591     12594     12597
     12589     12588     12591     12592     12589     12588     12591     12593
     12589     12588     12591     12594     12590     12588     12591     12592
     12590     12588     12591     12593     12590     12588     12591     12594
     12591     12594     12597     12598     12591     12594     12597     12599
     12591     12594     12597     12600     12592     12591     12594     12595
     12592     12591     12594     12596     12592     12591     12594     12597
     12593     12591     12594     12595     12593     12591     12594     12596
     12593     12591     12594     12597     12594     12597     12600     12601
     12594     12597     12600     12602     12594     12597     12600     12603
     12595     12594     12597     12598     12595     12594     12597     12599
     12595     12594     12597     12600     12596     12594     12597     12598
     12596     12594     12597     12599     12596     12594     12597     12600
     12597     12600     12603     12604     12597     12600     12603     12605
     12597     12600     12603     12606     12598     12597     12600     12601
     12598     12597     12600     12602     12598     12597     12600     12603
     12599     12597     12600     12601     12599     12597     12600     12602
     12599     12597     12600     12603     12600     12603     12606     12607
     12600     12603     12606     12608     12600     12603     12606     12609
     12601     12600     12603     12604     12601     12600     12603     12605
     12601     12600     12603     12606     12602     12600     12603     12604
     12602     12600     12603     12605     12602     12600     12603     12606
     12603     12606     12609     12610     12603     12606     12609     12611
     12603     12606     12609     12612     12604     12603     12606     12607
     12604     12603     12606     12608     12604     12603     12606     12609
     12605     12603     12606     12607     12605     12603     12606     12608
     12605     12603     12606     12609     12607     12606     12609     12610
     12607     12606     12609     12611     12607     12606     12609     12612
     12608     12606     12609     12610     12608     12606     12609     12611
     12608     12606     12609     12612     12613     12614     12629     12630
     12613     12614     12629     12631     12613     12614     12629     12635
     12614     12613     12617     12618     12614     12613     12617     12619
     12614     12613     12617     12620     12614     12613     12621     12622
     12614     12613     12621     12623     12614     12613     12621     12624
     12614     12613     12625     12626     12614     12613     12625     12627
     12614     12613     12625     12628     12614     12629     12635     12632
     12615     12614     12613     12617     12615     12614     12613     12621
     12615     12614     12613     12625     12615     12614     12629     12630
     12615     12614     12629     12631     12615     12614     12629     12635
     12616     12614     12613     12617     12616     12614     12613     12621
     12616     12614     12613     12625     12616     12614     12629     12630
     12616     12614     12629     12631     12616     12614     12629     12635
     12617     12613     12614     12629     12617     12613     12621     12622
     12617     12613     12621     12623     12617     12613     12621     12624
     12617     12613     12625     12626     12617     12613     12625     12627
     12617     12613     12625     12628     12618     12617     12613     12621
     12618     12617     12613     12625     12619     12617     12613     12621
     12619     12617     12613     12625     12620     12617     12613     12621
     12620     12617     12613     12625     12621     12613     12614     12629
     12621     12613     12625     12626     12621     12613     12625     12627
     12621     12613     12625     12628     12622     12621     12613     12625
     12623     12621     12613     12625     12624     12621     12613     12625
     12625     12613     12614     12629     12629     12635     12632     12633
     12629     12635     12632     12634     12629     12635     12632     12636
     12630     12629     12635     12632     12631     12629     12635     12632
     12632     12636     12637     12638     12632     12636     12637     12639
     12632     12636     12637     12640     12633     12632     12636     12637
     12634     12632     12636     12637     12635     12632     12636     12637
     12636     12637     12640     12641     12636     12637     12640     12642
     12636     12637     12640     12648     12637     12640     12642     12643
     12637     12640     12648     12649     12637     12640     12648     12650
     12637     12640     12648     12651     12638     12637     12640     12641
     12638     12637     12640     12642     12638     12637     12640     12648
     12639     12637     12640     12641     12639     12637     12640     12642
     12639     12637     12640     12648     12640     12642     12643     12644
     12640     12642     12643     12645     12640     12648     12651     12652
     12641     12640     12642     12643     12641     12640     12648     12649
     12641     12640     12648     12650     12641     12640     12648     12651
     12642     12640     12648     12649     12642     12640     12648     12650
     12642     12640     12648     12651     12642     12643     12645     12646
     12642     12643     12645     12647     12642     12643     12645     12657
     12643     12642     12640     12648     12643     12645     12657     12658
     12643     12645     12657     12659     12643     12645     12657     12660
     12644     12643     12645     12646     12644     12643     12645     12647
     12644     12643     12645     12657     12645     12657     12660     12661
     12645     12657     12660     12662     12645     12657     12660     12663
     12646     12645     12657     12658     12646     12645     12657     12659
     12646     12645     12657     12660     12647     12645     12657     12658
     12647     12645     12657     12659     12647     12645     12657     12660
     12648     12651     12652     12653     12648     12651     12652     12654
     12649     12648     12651     12652     12650     12648     12651     12652
     12651     12652     12654     12655     12651     12652     12654     12656
     12651     12652     12654     12704     12652     12654     12704     12705
     12652     12654     12704     12706     12652     12654     12704     12707
     12653     12652     12654     12655     12653     12652     12654     12656
     12653     12652     12654     12704     12654     12704     12707     12708
     12654     12704     12707     12709     12654     12704     12707     12710
     12655     12654     12704     12705     12655     12654     12704     12706
     12655     12654     12704     12707     12656     12654     12704     12705
     12656     12654     12704     12706     12656     12654     12704     12707
     12657     12660     12663     12664     12657     12660     12663     12665
     12657     12660     12663     12666     12658     12657     12660     12661
     12658     12657     12660     12662     12658     12657     12660     12663
     12659     12657     12660     12661     12659     12657     12660     12662
     12659     12657     12660     12663     12660     12663     12666     12667
     12660     12663     12666     12668     12660     12663     12666     12669
     12661     12660     12663     12664     12661     12660     12663     12665
     12661     12660     12663     12666     12662     12660     12663     12664
     12662     12660     12663     12665     12662     12660     12663     12666
     12663     12666     12669     12670     12663     12666     12669     12671
     12663     12666     12669     12672     12664     12663     12666     12667
     12664     12663     12666     12668     12664     12663     12666     12669
     12665     12663     12666     12667     12665     12663     12666     12668
     12665     12663     12666     12669     12666     12669     12672     12673
     12666     12669     12672     12674     12666     12669     12672     12675
     12667     12666     12669     12670     12667     12666     12669     12671
     12667     12666     12669     12672     12668     12666     12669     12670
     12668     12666     12669     12671     12668     12666     12669     12672
     12669     12672     12675     12676     12669     12672     12675     12677
     12670     12669     12672     12673     12670     12669     12672     12674
     12670     12669     12672     12675     12671     12669     12672     12673
     12671     12669     12672     12674     12671     12669     12672     12675
     12672     12675     12677     12678     12672     12675     12677     12679
     12673     12672     12675     12676     12673     12672     12675     12677
     12674     12672     12675     12676     12674     12672     12675     12677
     12675     12677     12679     12680     12675     12677     12679     12681
     12675     12677     12679     12682     12676     12675     12677     12678
     12676     12675     12677     12679     12677     12679     12682     12683
     12677     12679     12682     12684     12677     12679     12682     12685
     12678     12677     12679     12680     12678     12677     12679     12681
     12678     12677     12679     12682     12679     12682     12685     12686
     12679     12682     12685     12687     12679     12682     12685     12688
     12680     12679     12682     12683     12680     12679     12682     12684
     12680     12679     12682     12685     12681     12679     12682     12683
     12681     12679     12682     12684     12681     12679     12682     12685
     12682     12685     12688     12689     12682     12685     12688     12690
     12682     12685     12688     12691     12683     12682     12685     12686
     12683     12682     12685     12687     12683     12682     12685     12688
     12684     12682     12685     12686     12684     12682     12685     12687
     12684     12682     12685     12688     12685     12688     12691     12692
     12685     12688     12691     12693     12685     12688     12691     12694
     12686     12685     12688     12689     12686     12685     12688     12690
     12686     12685     12688     12691     12687     12685     12688     12689
     12687     12685     12688     12690     12687     12685     12688     12691
     12688     12691     12694     12695     12688     12691     12694     12696
     12688     12691     12694     12697     12689     12688     12691     12692
     12689     12688     12691     12693     12689     12688     12691     12694
     12690     12688     12691     12692     12690     12688     12691     12693
     12690     12688     12691     12694     12691     12694     12697     12698
     12691     12694     12697     12699     12691     12694     12697     12700
     12692     12691     12694     12695     12692     12691     12694     12696
     12692     12691     12694     12697     12693     12691     12694     12695
     12693     12691     12694     12696     12693     12691     12694     12697
     12694     12697     12700     12701     12694     12697     12700     12702
     12694     12697     12700     12703     12695     12694     12697     12698
     12695     12694     12697     12699     12695     12694     12697     12700
     12696     12694     12697     12698     12696     12694     12697     12699
     12696     12694     12697     12700     12698     12697     12700     12701
     12698     12697     12700     12702     12698     12697     12700     12703
     12699     12697     12700     12701     12699     12697     12700     12702
     12699     12697     12700     12703     12704     12707     12710     12711
     12704     12707     12710     12712     12704     12707     12710     12713
     12705     12704     12707     12708     12705     12704     12707     12709
     12705     12704     12707     12710     12706     12704     12707     12708
     12706     12704     12707     12709     12706     12704     12707     12710
     12707     12710     12713     12714     12707     12710     12713     12715
     12707     12710     12713     12716     12708     12707     12710     12711
     12708     12707     12710     12712     12708     12707     12710     12713
     12709     12707     12710     12711     12709     12707     12710     12712
     12709     12707     12710     12713     12710     12713     12716     12717
     12710     12713     12716     12718     12710     12713     12716     12719
     12711     12710     12713     12714     12711     12710     12713     12715
     12711     12710     12713     12716     12712     12710     12713     12714
     12712     12710     12713     12715     12712     12710     12713     12716
     12713     12716     12719     12720     12713     12716     12719     12721
     12713     12716     12719     12722     12714     12713     12716     12717
     12714     12713     12716     12718     12714     12713     12716     12719
     12715     12713     12716     12717     12715     12713     12716     12718
     12715     12713     12716     12719     12716     12719     12722     12723
     12716     12719     12722     12724     12716     12719     12722     12725
     12717     12716     12719     12720     12717     12716     12719     12721
     12717     12716     12719     12722     12718     12716     12719     12720
     12718     12716     12719     12721     12718     12716     12719     12722
     12719     12722     12725     12726     12719     12722     12725     12727
     12719     12722     12725     12728     12720     12719     12722     12723
     12720     12719     12722     12724     12720     12719     12722     12725
     12721     12719     12722     12723     12721     12719     12722     12724
     12721     12719     12722     12725     12722     12725     12728     12729
     12722     12725     12728     12730     12722     12725     12728     12731
     12723     12722     12725     12726     12723     12722     12725     12727
     12723     12722     12725     12728     12724     12722     12725     12726
     12724     12722     12725     12727     12724     12722     12725     12728
     12725     12728     12731     12732     12725     12728     12731     12733
     12725     12728     12731     12734     12726     12725     12728     12729
     12726     12725     12728     12730     12726     12725     12728     12731
     12727     12725     12728     12729     12727     12725     12728     12730
     12727     12725     12728     12731     12728     12731     12734     12735
     12728     12731     12734     12736     12728     12731     12734     12737
     12729     12728     12731     12732     12729     12728     12731     12733
     12729     12728     12731     12734     12730     12728     12731     12732
     12730     12728     12731     12733     12730     12728     12731     12734
     12731     12734     12737     12738     12731     12734     12737     12739
     12731     12734     12737     12740     12732     12731     12734     12735
     12732     12731     12734     12736     12732     12731     12734     12737
     12733     12731     12734     12735     12733     12731     12734     12736
     12733     12731     12734     12737     12734     12737     12740     12741
     12734     12737     12740     12742     12734     12737     12740     12743
     12735     12734     12737     12738     12735     12734     12737     12739
     12735     12734     12737     12740     12736     12734     12737     12738
     12736     12734     12737     12739     12736     12734     12737     12740
     12737     12740     12743     12744     12737     12740     12743     12745
     12737     12740     12743     12746     12738     12737     12740     12741
     12738     12737     12740     12742     12738     12737     12740     12743
     12739     12737     12740     12741     12739     12737     12740     12742
     12739     12737     12740     12743     12741     12740     12743     12744
     12741     12740     12743     12745     12741     12740     12743     12746
     12742     12740     12743     12744     12742     12740     12743     12745
     12742     12740     12743     12746     12747     12748     12763     12764
     12747     12748     12763     12765     12747     12748     12763     12769
     12748     12747     12751     12752     12748     12747     12751     12753
     12748     12747     12751     12754     12748     12747     12755     12756
     12748     12747     12755     12757     12748     12747     12755     12758
     12748     12747     12759     12760     12748     12747     12759     12761
     12748     12747     12759     12762     12748     12763     12769     12766
     12749     12748     12747     12751     12749     12748     12747     12755
     12749     12748     12747     12759     12749     12748     12763     12764
     12749     12748     12763     12765     12749     12748     12763     12769
     12750     12748     12747     12751     12750     12748     12747     12755
     12750     12748     12747     12759     12750     12748     12763     12764
     12750     12748     12763     12765     12750     12748     12763     12769
     12751     12747     12748     12763     12751     12747     12755     12756
     12751     12747     12755     12757     12751     12747     12755     12758
     12751     12747     12759     12760     12751     12747     12759     12761
     12751     12747     12759     12762     12752     12751     12747     12755
     12752     12751     12747     12759     12753     12751     12747     12755
     12753     12751     12747     12759     12754     12751     12747     12755
     12754     12751     12747     12759     12755     12747     12748     12763
     12755     12747     12759     12760     12755     12747     12759     12761
     12755     12747     12759     12762     12756     12755     12747     12759
     12757     12755     12747     12759     12758     12755     12747     12759
     12759     12747     12748     12763     12763     12769     12766     12767
     12763     12769     12766     12768     12763     12769     12766     12770
     12764     12763     12769     12766     12765     12763     12769     12766
     12766     12770     12771     12772     12766     12770     12771     12773
     12766     12770     12771     12774     12767     12766     12770     12771
     12768     12766     12770     12771     12769     12766     12770     12771
     12770     12771     12774     12775     12770     12771     12774     12776
     12770     12771     12774     12782     12771     12774     12776     12777
     12771     12774     12782     12783     12771     12774     12782     12784
     12771     12774     12782     12785     12772     12771     12774     12775
     12772     12771     12774     12776     12772     12771     12774     12782
     12773     12771     12774     12775     12773     12771     12774     12776
     12773     12771     12774     12782     12774     12776     12777     12778
     12774     12776     12777     12779     12774     12782     12785     12786
     12775     12774     12776     12777     12775     12774     12782     12783
     12775     12774     12782     12784     12775     12774     12782     12785
     12776     12774     12782     12783     12776     12774     12782     12784
     12776     12774     12782     12785     12776     12777     12779     12780
     12776     12777     12779     12781     12776     12777     12779     12791
     12777     12776     12774     12782     12777     12779     12791     12792
     12777     12779     12791     12793     12777     12779     12791     12794
     12778     12777     12779     12780     12778     12777     12779     12781
     12778     12777     12779     12791     12779     12791     12794     12795
     12779     12791     12794     12796     12779     12791     12794     12797
     12780     12779     12791     12792     12780     12779     12791     12793
     12780     12779     12791     12794     12781     12779     12791     12792
     12781     12779     12791     12793     12781     12779     12791     12794
     12782     12785     12786     12787     12782     12785     12786     12788
     12783     12782     12785     12786     12784     12782     12785     12786
     12785     12786     12788     12789     12785     12786     12788     12790
     12785     12786     12788     12838     12786     12788     12838     12839
     12786     12788     12838     12840     12786     12788     12838     12841
     12787     12786     12788     12789     12787     12786     12788     12790
     12787     12786     12788     12838     12788     12838     12841     12842
     12788     12838     12841     12843     12788     12838     12841     12844
     12789     12788     12838     12839     12789     12788     12838     12840
     12789     12788     12838     12841     12790     12788     12838     12839
     12790     12788     12838     12840     12790     12788     12838     12841
     12791     12794     12797     12798     12791     12794     12797     12799
     12791     12794     12797     12800     12792     12791     12794     12795
     12792     12791     12794     12796     12792     12791     12794     12797
     12793     12791     12794     12795     12793     12791     12794     12796
     12793     12791     12794     12797     12794     12797     12800     12801
     12794     12797     12800     12802     12794     12797     12800     12803
     12795     12794     12797     12798     12795     12794     12797     12799
     12795     12794     12797     12800     12796     12794     12797     12798
     12796     12794     12797     12799     12796     12794     12797     12800
     12797     12800     12803     12804     12797     12800     12803     12805
     12797     12800     12803     12806     12798     12797     12800     12801
     12798     12797     12800     12802     12798     12797     12800     12803
     12799     12797     12800     12801     12799     12797     12800     12802
     12799     12797     12800     12803     12800     12803     12806     12807
     12800     12803     12806     12808     12800     12803     12806     12809
     12801     12800     12803     12804     12801     12800     12803     12805
     12801     12800     12803     12806     12802     12800     12803     12804
     12802     12800     12803     12805     12802     12800     12803     12806
     12803     12806     12809     12810     12803     12806     12809     12811
     12804     12803     12806     12807     12804     12803     12806     12808
     12804     12803     12806     12809     12805     12803     12806     12807
     12805     12803     12806     12808     12805     12803     12806     12809
     12806     12809     12811     12812     12806     12809     12811     12813
     12807     12806     12809     12810     12807     12806     12809     12811
     12808     12806     12809     12810     12808     12806     12809     12811
     12809     12811     12813     12814     12809     12811     12813     12815
     12809     12811     12813     12816     12810     12809     12811     12812
     12810     12809     12811     12813     12811     12813     12816     12817
     12811     12813     12816     12818     12811     12813     12816     12819
     12812     12811     12813     12814     12812     12811     12813     12815
     12812     12811     12813     12816     12813     12816     12819     12820
     12813     12816     12819     12821     12813     12816     12819     12822
     12814     12813     12816     12817     12814     12813     12816     12818
     12814     12813     12816     12819     12815     12813     12816     12817
     12815     12813     12816     12818     12815     12813     12816     12819
     12816     12819     12822     12823     12816     12819     12822     12824
     12816     12819     12822     12825     12817     12816     12819     12820
     12817     12816     12819     12821     12817     12816     12819     12822
     12818     12816     12819     12820     12818     12816     12819     12821
     12818     12816     12819     12822     12819     12822     12825     12826
     12819     12822     12825     12827     12819     12822     12825     12828
     12820     12819     12822     12823     12820     12819     12822     12824
     12820     12819     12822     12825     12821     12819     12822     12823
     12821     12819     12822     12824     12821     12819     12822     12825
     12822     12825     12828     12829     12822     12825     12828     12830
     12822     12825     12828     12831     12823     12822     12825     12826
     12823     12822     12825     12827     12823     12822     12825     12828
     12824     12822     12825     12826     12824     12822     12825     12827
     12824     12822     12825     12828     12825     12828     12831     12832
     12825     12828     12831     12833     12825     12828     12831     12834
     12826     12825     12828     12829     12826     12825     12828     12830
     12826     12825     12828     12831     12827     12825     12828     12829
     12827     12825     12828     12830     12827     12825     12828     12831
     12828     12831     12834     12835     12828     12831     12834     12836
     12828     12831     12834     12837     12829     12828     12831     12832
     12829     12828     12831     12833     12829     12828     12831     12834
     12830     12828     12831     12832     12830     12828     12831     12833
     12830     12828     12831     12834     12832     12831     12834     12835
     12832     12831     12834     12836     12832     12831     12834     12837
     12833     12831     12834     12835     12833     12831     12834     12836
     12833     12831     12834     12837     12838     12841     12844     12845
     12838     12841     12844     12846     12838     12841     12844     12847
     12839     12838     12841     12842     12839     12838     12841     12843
     12839     12838     12841     12844     12840     12838     12841     12842
     12840     12838     12841     12843     12840     12838     12841     12844
     12841     12844     12847     12848     12841     12844     12847     12849
     12841     12844     12847     12850     12842     12841     12844     12845
     12842     12841     12844     12846     12842     12841     12844     12847
     12843     12841     12844     12845     12843     12841     12844     12846
     12843     12841     12844     12847     12844     12847     12850     12851
     12844     12847     12850     12852     12844     12847     12850     12853
     12845     12844     12847     12848     12845     12844     12847     12849
     12845     12844     12847     12850     12846     12844     12847     12848
     12846     12844     12847     12849     12846     12844     12847     12850
     12847     12850     12853     12854     12847     12850     12853     12855
     12847     12850     12853     12856     12848     12847     12850     12851
     12848     12847     12850     12852     12848     12847     12850     12853
     12849     12847     12850     12851     12849     12847     12850     12852
     12849     12847     12850     12853     12850     12853     12856     12857
     12850     12853     12856     12858     12850     12853     12856     12859
     12851     12850     12853     12854     12851     12850     12853     12855
     12851     12850     12853     12856     12852     12850     12853     12854
     12852     12850     12853     12855     12852     12850     12853     12856
     12853     12856     12859     12860     12853     12856     12859     12861
     12853     12856     12859     12862     12854     12853     12856     12857
     12854     12853     12856     12858     12854     12853     12856     12859
     12855     12853     12856     12857     12855     12853     12856     12858
     12855     12853     12856     12859     12856     12859     12862     12863
     12856     12859     12862     12864     12856     12859     12862     12865
     12857     12856     12859     12860     12857     12856     12859     12861
     12857     12856     12859     12862     12858     12856     12859     12860
     12858     12856     12859     12861     12858     12856     12859     12862
     12859     12862     12865     12866     12859     12862     12865     12867
     12859     12862     12865     12868     12860     12859     12862     12863
     12860     12859     12862     12864     12860     12859     12862     12865
     12861     12859     12862     12863     12861     12859     12862     12864
     12861     12859     12862     12865     12862     12865     12868     12869
     12862     12865     12868     12870     12862     12865     12868     12871
     12863     12862     12865     12866     12863     12862     12865     12867
     12863     12862     12865     12868     12864     12862     12865     12866
     12864     12862     12865     12867     12864     12862     12865     12868
     12865     12868     12871     12872     12865     12868     12871     12873
     12865     12868     12871     12874     12866     12865     12868     12869
     12866     12865     12868     12870     12866     12865     12868     12871
     12867     12865     12868     12869     12867     12865     12868     12870
     12867     12865     12868     12871     12868     12871     12874     12875
     12868     12871     12874     12876     12868     12871     12874     12877
     12869     12868     12871     12872     12869     12868     12871     12873
     12869     12868     12871     12874     12870     12868     12871     12872
     12870     12868     12871     12873     12870     12868     12871     12874
     12871     12874     12877     12878     12871     12874     12877     12879
     12871     12874     12877     12880     12872     12871     12874     12875
     12872     12871     12874     12876     12872     12871     12874     12877
     12873     12871     12874     12875     12873     12871     12874     12876
     12873     12871     12874     12877     12875     12874     12877     12878
     12875     12874     12877     12879     12875     12874     12877     12880
     12876     12874     12877     12878     12876     12874     12877     12879
     12876     12874     12877     12880     12881     12882     12897     12898
     12881     12882     12897     12899     12881     12882     12897     12903
     12882     12881     12885     12886     12882     12881     12885     12887
     12882     12881     12885     12888     12882     12881     12889     12890
     12882     12881     12889     12891     12882     12881     12889     12892
     12882     12881     12893     12894     12882     12881     12893     12895
     12882     12881     12893     12896     12882     12897     12903     12900
     12883     12882     12881     12885     12883     12882     12881     12889
     12883     12882     12881     12893     12883     12882     12897     12898
     12883     12882     12897     12899     12883     12882     12897     12903
     12884     12882     12881     12885     12884     12882     12881     12889
     12884     12882     12881     12893     12884     12882     12897     12898
     12884     12882     12897     12899     12884     12882     12897     12903
     12885     12881     12882     12897     12885     12881     12889     12890
     12885     12881     12889     12891     12885     12881     12889     12892
     12885     12881     12893     12894     12885     12881     12893     12895
     12885     12881     12893     12896     12886     12885     12881     12889
     12886     12885     12881     12893     12887     12885     12881     12889
     12887     12885     12881     12893     12888     12885     12881     12889
     12888     12885     12881     12893     12889     12881     12882     12897
     12889     12881     12893     12894     12889     12881     12893     12895
     12889     12881     12893     12896     12890     12889     12881     12893
     12891     12889     12881     12893     12892     12889     12881     12893
     12893     12881     12882     12897     12897     12903     12900     12901
     12897     12903     12900     12902     12897     12903     12900     12904
     12898     12897     12903     12900     12899     12897     12903     12900
     12900     12904     12905     12906     12900     12904     12905     12907
     12900     12904     12905     12908     12901     12900     12904     12905
     12902     12900     12904     12905     12903     12900     12904     12905
     12904     12905     12908     12909     12904     12905     12908     12910
     12904     12905     12908     12916     12905     12908     12910     12911
     12905     12908     12916     12917     12905     12908     12916     12918
     12905     12908     12916     12919     12906     12905     12908     12909
     12906     12905     12908     12910     12906     12905     12908     12916
     12907     12905     12908     12909     12907     12905     12908     12910
     12907     12905     12908     12916     12908     12910     12911     12912
     12908     12910     12911     12913     12908     12916     12919     12920
     12909     12908     12910     12911     12909     12908     12916     12917
     12909     12908     12916     12918     12909     12908     12916     12919
     12910     12908     12916     12917     12910     12908     12916     12918
     12910     12908     12916     12919     12910     12911     12913     12914
     12910     12911     12913     12915     12910     12911     12913     12925
     12911     12910     12908     12916     12911     12913     12925     12926
     12911     12913     12925     12927     12911     12913     12925     12928
     12912     12911     12913     12914     12912     12911     12913     12915
     12912     12911     12913     12925     12913     12925     12928     12929
     12913     12925     12928     12930     12913     12925     12928     12931
     12914     12913     12925     12926     12914     12913     12925     12927
     12914     12913     12925     12928     12915     12913     12925     12926
     12915     12913     12925     12927     12915     12913     12925     12928
     12916     12919     12920     12921     12916     12919     12920     12922
     12917     12916     12919     12920     12918     12916     12919     12920
     12919     12920     12922     12923     12919     12920     12922     12924
     12919     12920     12922     12972     12920     12922     12972     12973
     12920     12922     12972     12974     12920     12922     12972     12975
     12921     12920     12922     12923     12921     12920     12922     12924
     12921     12920     12922     12972     12922     12972     12975     12976
     12922     12972     12975     12977     12922     12972     12975     12978
     12923     12922     12972     12973     12923     12922     12972     12974
     12923     12922     12972     12975     12924     12922     12972     12973
     12924     12922     12972     12974     12924     12922     12972     12975
     12925     12928     12931     12932     12925     12928     12931     12933
     12925     12928     12931     12934     12926     12925     12928     12929
     12926     12925     12928     12930     12926     12925     12928     12931
     12927     12925     12928     12929     12927     12925     12928     12930
     12927     12925     12928     12931     12928     12931     12934     12935
     12928     12931     12934     12936     12928     12931     12934     12937
     12929     12928     12931     12932     12929     12928     12931     12933
     12929     12928     12931     12934     12930     12928     12931     12932
     12930     12928     12931     12933     12930     12928     12931     12934
     12931     12934     12937     12938     12931     12934     12937     12939
     12931     12934     12937     12940     12932     12931     12934     12935
     12932     12931     12934     12936     12932     12931     12934     12937
     12933     12931     12934     12935     12933     12931     12934     12936
     12933     12931     12934     12937     12934     12937     12940     12941
     12934     12937     12940     12942     12934     12937     12940     12943
     12935     12934     12937     12938     12935     12934     12937     12939
     12935     12934     12937     12940     12936     12934     12937     12938
     12936     12934     12937     12939     12936     12934     12937     12940
     12937     12940     12943     12944     12937     12940     12943     12945
     12938     12937     12940     12941     12938     12937     12940     12942
     12938     12937     12940     12943     12939     12937     12940     12941
     12939     12937     12940     12942     12939     12937     12940     12943
     12940     12943     12945     12946     12940     12943     12945     12947
     12941     12940     12943     12944     12941     12940     12943     12945
     12942     12940     12943     12944     12942     12940     12943     12945
     12943     12945     12947     12948     12943     12945     12947     12949
     12943     12945     12947     12950     12944     12943     12945     12946
     12944     12943     12945     12947     12945     12947     12950     12951
     12945     12947     12950     12952     12945     12947     12950     12953
     12946     12945     12947     12948     12946     12945     12947     12949
     12946     12945     12947     12950     12947     12950     12953     12954
     12947     12950     12953     12955     12947     12950     12953     12956
     12948     12947     12950     12951     12948     12947     12950     12952
     12948     12947     12950     12953     12949     12947     12950     12951
     12949     12947     12950     12952     12949     12947     12950     12953
     12950     12953     12956     12957     12950     12953     12956     12958
     12950     12953     12956     12959     12951     12950     12953     12954
     12951     12950     12953     12955     12951     12950     12953     12956
     12952     12950     12953     12954     12952     12950     12953     12955
     12952     12950     12953     12956     12953     12956     12959     12960
     12953     12956     12959     12961     12953     12956     12959     12962
     12954     12953     12956     12957     12954     12953     12956     12958
     12954     12953     12956     12959     12955     12953     12956     12957
     12955     12953     12956     12958     12955     12953     12956     12959
     12956     12959     12962     12963     12956     12959     12962     12964
     12956     12959     12962     12965     12957     12956     12959     12960
     12957     12956     12959     12961     12957     12956     12959     12962
     12958     12956     12959     12960     12958     12956     12959     12961
     12958     12956     12959     12962     12959     12962     12965     12966
     12959     12962     12965     12967     12959     12962     12965     12968
     12960     12959     12962     12963     12960     12959     12962     12964
     12960     12959     12962     12965     12961     12959     12962     12963
     12961     12959     12962     12964     12961     12959     12962     12965
     12962     12965     12968     12969     12962     12965     12968     12970
     12962     12965     12968     12971     12963     12962     12965     12966
     12963     12962     12965     12967     12963     12962     12965     12968
     12964     12962     12965     12966     12964     12962     12965     12967
     12964     12962     12965     12968     12966     12965     12968     12969
     12966     12965     12968     12970     12966     12965     12968     12971
     12967     12965     12968     12969     12967     12965     12968     12970
     12967     12965     12968     12971     12972     12975     12978     12979
     12972     12975     12978     12980     12972     12975     12978     12981
     12973     12972     12975     12976     12973     12972     12975     12977
     12973     12972     12975     12978     12974     12972     12975     12976
     12974     12972     12975     12977     12974     12972     12975     12978
     12975     12978     12981     12982     12975     12978     12981     12983
     12975     12978     12981     12984     12976     12975     12978     12979
     12976     12975     12978     12980     12976     12975     12978     12981
     12977     12975     12978     12979     12977     12975     12978     12980
     12977     12975     12978     12981     12978     12981     12984     12985
     12978     12981     12984     12986     12978     12981     12984     12987
     12979     12978     12981     12982     12979     12978     12981     12983
     12979     12978     12981     12984     12980     12978     12981     12982
     12980     12978     12981     12983     12980     12978     12981     12984
     12981     12984     12987     12988     12981     12984     12987     12989
     12981     12984     12987     12990     12982     12981     12984     12985
     12982     12981     12984     12986     12982     12981     12984     12987
     12983     12981     12984     12985     12983     12981     12984     12986
     12983     12981     12984     12987     12984     12987     12990     12991
     12984     12987     12990     12992     12984     12987     12990     12993
     12985     12984     12987     12988     12985     12984     12987     12989
     12985     12984     12987     12990     12986     12984     12987     12988
     12986     12984     12987     12989     12986     12984     12987     12990
     12987     12990     12993     12994     12987     12990     12993     12995
     12987     12990     12993     12996     12988     12987     12990     12991
     12988     12987     12990     12992     12988     12987     12990     12993
     12989     12987     12990     12991     12989     12987     12990     12992
     12989     12987     12990     12993     12990     12993     12996     12997
     12990     12993     12996     12998     12990     12993     12996     12999
     12991     12990     12993     12994     12991     12990     12993     12995
     12991     12990     12993     12996     12992     12990     12993     12994
     12992     12990     12993     12995     12992     12990     12993     12996
     12993     12996     12999     13000     12993     12996     12999     13001
     12993     12996     12999     13002     12994     12993     12996     12997
     12994     12993     12996     12998     12994     12993     12996     12999
     12995     12993     12996     12997     12995     12993     12996     12998
     12995     12993     12996     12999     12996     12999     13002     13003
     12996     12999     13002     13004     12996     12999     13002     13005
     12997     12996     12999     13000     12997     12996     12999     13001
     12997     12996     12999     13002     12998     12996     12999     13000
     12998     12996     12999     13001     12998     12996     12999     13002
     12999     13002     13005     13006     12999     13002     13005     13007
     12999     13002     13005     13008     13000     12999     13002     13003
     13000     12999     13002     13004     13000     12999     13002     13005
     13001     12999     13002     13003     13001     12999     13002     13004
     13001     12999     13002     13005     13002     13005     13008     13009
     13002     13005     13008     13010     13002     13005     13008     13011
     13003     13002     13005     13006     13003     13002     13005     13007
     13003     13002     13005     13008     13004     13002     13005     13006
     13004     13002     13005     13007     13004     13002     13005     13008
     13005     13008     13011     13012     13005     13008     13011     13013
     13005     13008     13011     13014     13006     13005     13008     13009
     13006     13005     13008     13010     13006     13005     13008     13011
     13007     13005     13008     13009     13007     13005     13008     13010
     13007     13005     13008     13011     13009     13008     13011     13012
     13009     13008     13011     13013     13009     13008     13011     13014
     13010     13008     13011     13012     13010     13008     13011     13013
     13010     13008     13011     13014     13015     13016     13031     13032
     13015     13016     13031     13033     13015     13016     13031     13037
     13016     13015     13019     13020     13016     13015     13019     13021
     13016     13015     13019     13022     13016     13015     13023     13024
     13016     13015     13023     13025     13016     13015     13023     13026
     13016     13015     13027     13028     13016     13015     13027     13029
     13016     13015     13027     13030     13016     13031     13037     13034
     13017     13016     13015     13019     13017     13016     13015     13023
     13017     13016     13015     13027     13017     13016     13031     13032
     13017     13016     13031     13033     13017     13016     13031     13037
     13018     13016     13015     13019     13018     13016     13015     13023
     13018     13016     13015     13027     13018     13016     13031     13032
     13018     13016     13031     13033     13018     13016     13031     13037
     13019     13015     13016     13031     13019     13015     13023     13024
     13019     13015     13023     13025     13019     13015     13023     13026
     13019     13015     13027     13028     13019     13015     13027     13029
     13019     13015     13027     13030     13020     13019     13015     13023
     13020     13019     13015     13027     13021     13019     13015     13023
     13021     13019     13015     13027     13022     13019     13015     13023
     13022     13019     13015     13027     13023     13015     13016     13031
     13023     13015     13027     13028     13023     13015     13027     13029
     13023     13015     13027     13030     13024     13023     13015     13027
     13025     13023     13015     13027     13026     13023     13015     13027
     13027     13015     13016     13031     13031     13037     13034     13035
     13031     13037     13034     13036     13031     13037     13034     13038
     13032     13031     13037     13034     13033     13031     13037     13034
     13034     13038     13039     13040     13034     13038     13039     13041
     13034     13038     13039     13042     13035     13034     13038     13039
     13036     13034     13038     13039     13037     13034     13038     13039
     13038     13039     13042     13043     13038     13039     13042     13044
     13038     13039     13042     13050     13039     13042     13044     13045
     13039     13042     13050     13051     13039     13042     13050     13052
     13039     13042     13050     13053     13040     13039     13042     13043
     13040     13039     13042     13044     13040     13039     13042     13050
     13041     13039     13042     13043     13041     13039     13042     13044
     13041     13039     13042     13050     13042     13044     13045     13046
     13042     13044     13045     13047     13042     13050     13053     13054
     13043     13042     13044     13045     13043     13042     13050     13051
     13043     13042     13050     13052     13043     13042     13050     13053
     13044     13042     13050     13051     13044     13042     13050     13052
     13044     13042     13050     13053     13044     13045     13047     13048
     13044     13045     13047     13049     13044     13045     13047     13059
     13045     13044     13042     13050     13045     13047     13059     13060
     13045     13047     13059     13061     13045     13047     13059     13062
     13046     13045     13047     13048     13046     13045     13047     13049
     13046     13045     13047     13059     13047     13059     13062     13063
     13047     13059     13062     13064     13047     13059     13062     13065
     13048     13047     13059     13060     13048     13047     13059     13061
     13048     13047     13059     13062     13049     13047     13059     13060
     13049     13047     13059     13061     13049     13047     13059     13062
     13050     13053     13054     13055     13050     13053     13054     13056
     13051     13050     13053     13054     13052     13050     13053     13054
     13053     13054     13056     13057     13053     13054     13056     13058
     13053     13054     13056     13106     13054     13056     13106     13107
     13054     13056     13106     13108     13054     13056     13106     13109
     13055     13054     13056     13057     13055     13054     13056     13058
     13055     13054     13056     13106     13056     13106     13109     13110
     13056     13106     13109     13111     13056     13106     13109     13112
     13057     13056     13106     13107     13057     13056     13106     13108
     13057     13056     13106     13109     13058     13056     13106     13107
     13058     13056     13106     13108     13058     13056     13106     13109
     13059     13062     13065     13066     13059     13062     13065     13067
     13059     13062     13065     13068     13060     13059     13062     13063
     13060     13059     13062     13064     13060     13059     13062     13065
     13061     13059     13062     13063     13061     13059     13062     13064
     13061     13059     13062     13065     13062     13065     13068     13069
     13062     13065     13068     13070     13062     13065     13068     13071
     13063     13062     13065     13066     13063     13062     13065     13067
     13063     13062     13065     13068     13064     13062     13065     13066
     13064     13062     13065     13067     13064     13062     13065     13068
     13065     13068     13071     13072     13065     13068     13071     13073
     13065     13068     13071     13074     13066     13065     13068     13069
     13066     13065     13068     13070     13066     13065     13068     13071
     13067     13065     13068     13069     13067     13065     13068     13070
     13067     13065     13068     13071     13068     13071     13074     13075
     13068     13071     13074     13076     13068     13071     13074     13077
     13069     13068     13071     13072     13069     13068     13071     13073
     13069     13068     13071     13074     13070     13068     13071     13072
     13070     13068     13071     13073     13070     13068     13071     13074
     13071     13074     13077     13078     13071     13074     13077     13079
     13072     13071     13074     13075     13072     13071     13074     13076
     13072     13071     13074     13077     13073     13071     13074     13075
     13073     13071     13074     13076     13073     13071     13074     13077
     13074     13077     13079     13080     13074     13077     13079     13081
     13075     13074     13077     13078     13075     13074     13077     13079
     13076     13074     13077     13078     13076     13074     13077     13079
     13077     13079     13081     13082     13077     13079     13081     13083
     13077     13079     13081     13084     13078     13077     13079     13080
     13078     13077     13079     13081     13079     13081     13084     13085
     13079     13081     13084     13086     13079     13081     13084     13087
     13080     13079     13081     13082     13080     13079     13081     13083
     13080     13079     13081     13084     13081     13084     13087     13088
     13081     13084     13087     13089     13081     13084     13087     13090
     13082     13081     13084     13085     13082     13081     13084     13086
     13082     13081     13084     13087     13083     13081     13084     13085
     13083     13081     13084     13086     13083     13081     13084     13087
     13084     13087     13090     13091     13084     13087     13090     13092
     13084     13087     13090     13093     13085     13084     13087     13088
     13085     13084     13087     13089     13085     13084     13087     13090
     13086     13084     13087     13088     13086     13084     13087     13089
     13086     13084     13087     13090     13087     13090     13093     13094
     13087     13090     13093     13095     13087     13090     13093     13096
     13088     13087     13090     13091     13088     13087     13090     13092
     13088     13087     13090     13093     13089     13087     13090     13091
     13089     13087     13090     13092     13089     13087     13090     13093
     13090     13093     13096     13097     13090     13093     13096     13098
     13090     13093     13096     13099     13091     13090     13093     13094
     13091     13090     13093     13095     13091     13090     13093     13096
     13092     13090     13093     13094     13092     13090     13093     13095
     13092     13090     13093     13096     13093     13096     13099     13100
     13093     13096     13099     13101     13093     13096     13099     13102
     13094     13093     13096     13097     13094     13093     13096     13098
     13094     13093     13096     13099     13095     13093     13096     13097
     13095     13093     13096     13098     13095     13093     13096     13099
     13096     13099     13102     13103     13096     13099     13102     13104
     13096     13099     13102     13105     13097     13096     13099     13100
     13097     13096     13099     13101     13097     13096     13099     13102
     13098     13096     13099     13100     13098     13096     13099     13101
     13098     13096     13099     13102     13100     13099     13102     13103
     13100     13099     13102     13104     13100     13099     13102     13105
     13101     13099     13102     13103     13101     13099     13102     13104
     13101     13099     13102     13105     13106     13109     13112     13113
     13106     13109     13112     13114     13106     13109     13112     13115
     13107     13106     13109     13110     13107     13106     13109     13111
     13107     13106     13109     13112     13108     13106     13109     13110
     13108     13106     13109     13111     13108     13106     13109     13112
     13109     13112     13115     13116     13109     13112     13115     13117
     13109     13112     13115     13118     13110     13109     13112     13113
     13110     13109     13112     13114     13110     13109     13112     13115
     13111     13109     13112     13113     13111     13109     13112     13114
     13111     13109     13112     13115     13112     13115     13118     13119
     13112     13115     13118     13120     13112     13115     13118     13121
     13113     13112     13115     13116     13113     13112     13115     13117
     13113     13112     13115     13118     13114     13112     13115     13116
     13114     13112     13115     13117     13114     13112     13115     13118
     13115     13118     13121     13122     13115     13118     13121     13123
     13115     13118     13121     13124     13116     13115     13118     13119
     13116     13115     13118     13120     13116     13115     13118     13121
     13117     13115     13118     13119     13117     13115     13118     13120
     13117     13115     13118     13121     13118     13121     13124     13125
     13118     13121     13124     13126     13118     13121     13124     13127
     13119     13118     13121     13122     13119     13118     13121     13123
     13119     13118     13121     13124     13120     13118     13121     13122
     13120     13118     13121     13123     13120     13118     13121     13124
     13121     13124     13127     13128     13121     13124     13127     13129
     13121     13124     13127     13130     13122     13121     13124     13125
     13122     13121     13124     13126     13122     13121     13124     13127
     13123     13121     13124     13125     13123     13121     13124     13126
     13123     13121     13124     13127     13124     13127     13130     13131
     13124     13127     13130     13132     13124     13127     13130     13133
     13125     13124     13127     13128     13125     13124     13127     13129
     13125     13124     13127     13130     13126     13124     13127     13128
     13126     13124     13127     13129     13126     13124     13127     13130
     13127     13130     13133     13134     13127     13130     13133     13135
     13127     13130     13133     13136     13128     13127     13130     13131
     13128     13127     13130     13132     13128     13127     13130     13133
     13129     13127     13130     13131     13129     13127     13130     13132
     13129     13127     13130     13133     13130     13133     13136     13137
     13130     13133     13136     13138     13130     13133     13136     13139
     13131     13130     13133     13134     13131     13130     13133     13135
     13131     13130     13133     13136     13132     13130     13133     13134
     13132     13130     13133     13135     13132     13130     13133     13136
     13133     13136     13139     13140     13133     13136     13139     13141
     13133     13136     13139     13142     13134     13133     13136     13137
     13134     13133     13136     13138     13134     13133     13136     13139
     13135     13133     13136     13137     13135     13133     13136     13138
     13135     13133     13136     13139     13136     13139     13142     13143
     13136     13139     13142     13144     13136     13139     13142     13145
     13137     13136     13139     13140     13137     13136     13139     13141
     13137     13136     13139     13142     13138     13136     13139     13140
     13138     13136     13139     13141     13138     13136     13139     13142
     13139     13142     13145     13146     13139     13142     13145     13147
     13139     13142     13145     13148     13140     13139     13142     13143
     13140     13139     13142     13144     13140     13139     13142     13145
     13141     13139     13142     13143     13141     13139     13142     13144
     13141     13139     13142     13145     13143     13142     13145     13146
     13143     13142     13145     13147     13143     13142     13145     13148
     13144     13142     13145     13146     13144     13142     13145     13147
     13144     13142     13145     13148     13149     13150     13165     13166
     13149     13150     13165     13167     13149     13150     13165     13171
     13150     13149     13153     13154     13150     13149     13153     13155
     13150     13149     13153     13156     13150     13149     13157     13158
     13150     13149     13157     13159     13150     13149     13157     13160
     13150     13149     13161     13162     13150     13149     13161     13163
     13150     13149     13161     13164     13150     13165     13171     13168
     13151     13150     13149     13153     13151     13150     13149     13157
     13151     13150     13149     13161     13151     13150     13165     13166
     13151     13150     13165     13167     13151     13150     13165     13171
     13152     13150     13149     13153     13152     13150     13149     13157
     13152     13150     13149     13161     13152     13150     13165     13166
     13152     13150     13165     13167     13152     13150     13165     13171
     13153     13149     13150     13165     13153     13149     13157     13158
     13153     13149     13157     13159     13153     13149     13157     13160
     13153     13149     13161     13162     13153     13149     13161     13163
     13153     13149     13161     13164     13154     13153     13149     13157
     13154     13153     13149     13161     13155     13153     13149     13157
     13155     13153     13149     13161     13156     13153     13149     13157
     13156     13153     13149     13161     13157     13149     13150     13165
     13157     13149     13161     13162     13157     13149     13161     13163
     13157     13149     13161     13164     13158     13157     13149     13161
     13159     13157     13149     13161     13160     13157     13149     13161
     13161     13149     13150     13165     13165     13171     13168     13169
     13165     13171     13168     13170     13165     13171     13168     13172
     13166     13165     13171     13168     13167     13165     13171     13168
     13168     13172     13173     13174     13168     13172     13173     13175
     13168     13172     13173     13176     13169     13168     13172     13173
     13170     13168     13172     13173     13171     13168     13172     13173
     13172     13173     13176     13177     13172     13173     13176     13178
     13172     13173     13176     13184     13173     13176     13178     13179
     13173     13176     13184     13185     13173     13176     13184     13186
     13173     13176     13184     13187     13174     13173     13176     13177
     13174     13173     13176     13178     13174     13173     13176     13184
     13175     13173     13176     13177     13175     13173     13176     13178
     13175     13173     13176     13184     13176     13178     13179     13180
     13176     13178     13179     13181     13176     13184     13187     13188
     13177     13176     13178     13179     13177     13176     13184     13185
     13177     13176     13184     13186     13177     13176     13184     13187
     13178     13176     13184     13185     13178     13176     13184     13186
     13178     13176     13184     13187     13178     13179     13181     13182
     13178     13179     13181     13183     13178     13179     13181     13193
     13179     13178     13176     13184     13179     13181     13193     13194
     13179     13181     13193     13195     13179     13181     13193     13196
     13180     13179     13181     13182     13180     13179     13181     13183
     13180     13179     13181     13193     13181     13193     13196     13197
     13181     13193     13196     13198     13181     13193     13196     13199
     13182     13181     13193     13194     13182     13181     13193     13195
     13182     13181     13193     13196     13183     13181     13193     13194
     13183     13181     13193     13195     13183     13181     13193     13196
     13184     13187     13188     13189     13184     13187     13188     13190
     13185     13184     13187     13188     13186     13184     13187     13188
     13187     13188     13190     13191     13187     13188     13190     13192
     13187     13188     13190     13240     13188     13190     13240     13241
     13188     13190     13240     13242     13188     13190     13240     13243
     13189     13188     13190     13191     13189     13188     13190     13192
     13189     13188     13190     13240     13190     13240     13243     13244
     13190     13240     13243     13245     13190     13240     13243     13246
     13191     13190     13240     13241     13191     13190     13240     13242
     13191     13190     13240     13243     13192     13190     13240     13241
     13192     13190     13240     13242     13192     13190     13240     13243
     13193     13196     13199     13200     13193     13196     13199     13201
     13193     13196     13199     13202     13194     13193     13196     13197
     13194     13193     13196     13198     13194     13193     13196     13199
     13195     13193     13196     13197     13195     13193     13196     13198
     13195     13193     13196     13199     13196     13199     13202     13203
     13196     13199     13202     13204     13196     13199     13202     13205
     13197     13196     13199     13200     13197     13196     13199     13201
     13197     13196     13199     13202     13198     13196     13199     13200
     13198     13196     13199     13201     13198     13196     13199     13202
     13199     13202     13205     13206     13199     13202     13205     13207
     13199     13202     13205     13208     13200     13199     13202     13203
     13200     13199     13202     13204     13200     13199     13202     13205
     13201     13199     13202     13203     13201     13199     13202     13204
     13201     13199     13202     13205     13202     13205     13208     13209
     13202     13205     13208     13210     13202     13205     13208     13211
     13203     13202     13205     13206     13203     13202     13205     13207
     13203     13202     13205     13208     13204     13202     13205     13206
     13204     13202     13205     13207     13204     13202     13205     13208
     13205     13208     13211     13212     13205     13208     13211     13213
     13206     13205     13208     13209     13206     13205     13208     13210
     13206     13205     13208     13211     13207     13205     13208     13209
     13207     13205     13208     13210     13207     13205     13208     13211
     13208     13211     13213     13214     13208     13211     13213     13215
     13209     13208     13211     13212     13209     13208     13211     13213
     13210     13208     13211     13212     13210     13208     13211     13213
     13211     13213     13215     13216     13211     13213     13215     13217
     13211     13213     13215     13218     13212     13211     13213     13214
     13212     13211     13213     13215     13213     13215     13218     13219
     13213     13215     13218     13220     13213     13215     13218     13221
     13214     13213     13215     13216     13214     13213     13215     13217
     13214     13213     13215     13218     13215     13218     13221     13222
     13215     13218     13221     13223     13215     13218     13221     13224
     13216     13215     13218     13219     13216     13215     13218     13220
     13216     13215     13218     13221     13217     13215     13218     13219
     13217     13215     13218     13220     13217     13215     13218     13221
     13218     13221     13224     13225     13218     13221     13224     13226
     13218     13221     13224     13227     13219     13218     13221     13222
     13219     13218     13221     13223     13219     13218     13221     13224
     13220     13218     13221     13222     13220     13218     13221     13223
     13220     13218     13221     13224     13221     13224     13227     13228
     13221     13224     13227     13229     13221     13224     13227     13230
     13222     13221     13224     13225     13222     13221     13224     13226
     13222     13221     13224     13227     13223     13221     13224     13225
     13223     13221     13224     13226     13223     13221     13224     13227
     13224     13227     13230     13231     13224     13227     13230     13232
     13224     13227     13230     13233     13225     13224     13227     13228
     13225     13224     13227     13229     13225     13224     13227     13230
     13226     13224     13227     13228     13226     13224     13227     13229
     13226     13224     13227     13230     13227     13230     13233     13234
     13227     13230     13233     13235     13227     13230     13233     13236
     13228     13227     13230     13231     13228     13227     13230     13232
     13228     13227     13230     13233     13229     13227     13230     13231
     13229     13227     13230     13232     13229     13227     13230     13233
     13230     13233     13236     13237     13230     13233     13236     13238
     13230     13233     13236     13239     13231     13230     13233     13234
     13231     13230     13233     13235     13231     13230     13233     13236
     13232     13230     13233     13234     13232     13230     13233     13235
     13232     13230     13233     13236     13234     13233     13236     13237
     13234     13233     13236     13238     13234     13233     13236     13239
     13235     13233     13236     13237     13235     13233     13236     13238
     13235     13233     13236     13239     13240     13243     13246     13247
     13240     13243     13246     13248     13240     13243     13246     13249
     13241     13240     13243     13244     13241     13240     13243     13245
     13241     13240     13243     13246     13242     13240     13243     13244
     13242     13240     13243     13245     13242     13240     13243     13246
     13243     13246     13249     13250     13243     13246     13249     13251
     13243     13246     13249     13252     13244     13243     13246     13247
     13244     13243     13246     13248     13244     13243     13246     13249
     13245     13243     13246     13247     13245     13243     13246     13248
     13245     13243     13246     13249     13246     13249     13252     13253
     13246     13249     13252     13254     13246     13249     13252     13255
     13247     13246     13249     13250     13247     13246     13249     13251
     13247     13246     13249     13252     13248     13246     13249     13250
     13248     13246     13249     13251     13248     13246     13249     13252
     13249     13252     13255     13256     13249     13252     13255     13257
     13249     13252     13255     13258     13250     13249     13252     13253
     13250     13249     13252     13254     13250     13249     13252     13255
     13251     13249     13252     13253     13251     13249     13252     13254
     13251     13249     13252     13255     13252     13255     13258     13259
     13252     13255     13258     13260     13252     13255     13258     13261
     13253     13252     13255     13256     13253     13252     13255     13257
     13253     13252     13255     13258     13254     13252     13255     13256
     13254     13252     13255     13257     13254     13252     13255     13258
     13255     13258     13261     13262     13255     13258     13261     13263
     13255     13258     13261     13264     13256     13255     13258     13259
     13256     13255     13258     13260     13256     13255     13258     13261
     13257     13255     13258     13259     13257     13255     13258     13260
     13257     13255     13258     13261     13258     13261     13264     13265
     13258     13261     13264     13266     13258     13261     13264     13267
     13259     13258     13261     13262     13259     13258     13261     13263
     13259     13258     13261     13264     13260     13258     13261     13262
     13260     13258     13261     13263     13260     13258     13261     13264
     13261     13264     13267     13268     13261     13264     13267     13269
     13261     13264     13267     13270     13262     13261     13264     13265
     13262     13261     13264     13266     13262     13261     13264     13267
     13263     13261     13264     13265     13263     13261     13264     13266
     13263     13261     13264     13267     13264     13267     13270     13271
     13264     13267     13270     13272     13264     13267     13270     13273
     13265     13264     13267     13268     13265     13264     13267     13269
     13265     13264     13267     13270     13266     13264     13267     13268
     13266     13264     13267     13269     13266     13264     13267     13270
     13267     13270     13273     13274     13267     13270     13273     13275
     13267     13270     13273     13276     13268     13267     13270     13271
     13268     13267     13270     13272     13268     13267     13270     13273
     13269     13267     13270     13271     13269     13267     13270     13272
     13269     13267     13270     13273     13270     13273     13276     13277
     13270     13273     13276     13278     13270     13273     13276     13279
     13271     13270     13273     13274     13271     13270     13273     13275
     13271     13270     13273     13276     13272     13270     13273     13274
     13272     13270     13273     13275     13272     13270     13273     13276
     13273     13276     13279     13280     13273     13276     13279     13281
     13273     13276     13279     13282     13274     13273     13276     13277
     13274     13273     13276     13278     13274     13273     13276     13279
     13275     13273     13276     13277     13275     13273     13276     13278
     13275     13273     13276     13279     13277     13276     13279     13280
     13277     13276     13279     13281     13277     13276     13279     13282
     13278     13276     13279     13280     13278     13276     13279     13281
     13278     13276     13279     13282     13283     13284     13299     13300
     13283     13284     13299     13301     13283     13284     13299     13305
     13284     13283     13287     13288     13284     13283     13287     13289
     13284     13283     13287     13290     13284     13283     13291     13292
     13284     13283     13291     13293     13284     13283     13291     13294
     13284     13283     13295     13296     13284     13283     13295     13297
     13284     13283     13295     13298     13284     13299     13305     13302
     13285     13284     13283     13287     13285     13284     13283     13291
     13285     13284     13283     13295     13285     13284     13299     13300
     13285     13284     13299     13301     13285     13284     13299     13305
     13286     13284     13283     13287     13286     13284     13283     13291
     13286     13284     13283     13295     13286     13284     13299     13300
     13286     13284     13299     13301     13286     13284     13299     13305
     13287     13283     13284     13299     13287     13283     13291     13292
     13287     13283     13291     13293     13287     13283     13291     13294
     13287     13283     13295     13296     13287     13283     13295     13297
     13287     13283     13295     13298     13288     13287     13283     13291
     13288     13287     13283     13295     13289     13287     13283     13291
     13289     13287     13283     13295     13290     13287     13283     13291
     13290     13287     13283     13295     13291     13283     13284     13299
     13291     13283     13295     13296     13291     13283     13295     13297
     13291     13283     13295     13298     13292     13291     13283     13295
     13293     13291     13283     13295     13294     13291     13283     13295
     13295     13283     13284     13299     13299     13305     13302     13303
     13299     13305     13302     13304     13299     13305     13302     13306
     13300     13299     13305     13302     13301     13299     13305     13302
     13302     13306     13307     13308     13302     13306     13307     13309
     13302     13306     13307     13310     13303     13302     13306     13307
     13304     13302     13306     13307     13305     13302     13306     13307
     13306     13307     13310     13311     13306     13307     13310     13312
     13306     13307     13310     13318     13307     13310     13312     13313
     13307     13310     13318     13319     13307     13310     13318     13320
     13307     13310     13318     13321     13308     13307     13310     13311
     13308     13307     13310     13312     13308     13307     13310     13318
     13309     13307     13310     13311     13309     13307     13310     13312
     13309     13307     13310     13318     13310     13312     13313     13314
     13310     13312     13313     13315     13310     13318     13321     13322
     13311     13310     13312     13313     13311     13310     13318     13319
     13311     13310     13318     13320     13311     13310     13318     13321
     13312     13310     13318     13319     13312     13310     13318     13320
     13312     13310     13318     13321     13312     13313     13315     13316
     13312     13313     13315     13317     13312     13313     13315     13327
     13313     13312     13310     13318     13313     13315     13327     13328
     13313     13315     13327     13329     13313     13315     13327     13330
     13314     13313     13315     13316     13314     13313     13315     13317
     13314     13313     13315     13327     13315     13327     13330     13331
     13315     13327     13330     13332     13315     13327     13330     13333
     13316     13315     13327     13328     13316     13315     13327     13329
     13316     13315     13327     13330     13317     13315     13327     13328
     13317     13315     13327     13329     13317     13315     13327     13330
     13318     13321     13322     13323     13318     13321     13322     13324
     13319     13318     13321     13322     13320     13318     13321     13322
     13321     13322     13324     13325     13321     13322     13324     13326
     13321     13322     13324     13374     13322     13324     13374     13375
     13322     13324     13374     13376     13322     13324     13374     13377
     13323     13322     13324     13325     13323     13322     13324     13326
     13323     13322     13324     13374     13324     13374     13377     13378
     13324     13374     13377     13379     13324     13374     13377     13380
     13325     13324     13374     13375     13325     13324     13374     13376
     13325     13324     13374     13377     13326     13324     13374     13375
     13326     13324     13374     13376     13326     13324     13374     13377
     13327     13330     13333     13334     13327     13330     13333     13335
     13327     13330     13333     13336     13328     13327     13330     13331
     13328     13327     13330     13332     13328     13327     13330     13333
     13329     13327     13330     13331     13329     13327     13330     13332
     13329     13327     13330     13333     13330     13333     13336     13337
     13330     13333     13336     13338     13330     13333     13336     13339
     13331     13330     13333     13334     13331     13330     13333     13335
     13331     13330     13333     13336     13332     13330     13333     13334
     13332     13330     13333     13335     13332     13330     13333     13336
     13333     13336     13339     13340     13333     13336     13339     13341
     13333     13336     13339     13342     13334     13333     13336     13337
     13334     13333     13336     13338     13334     13333     13336     13339
     13335     13333     13336     13337     13335     13333     13336     13338
     13335     13333     13336     13339     13336     13339     13342     13343
     13336     13339     13342     13344     13336     13339     13342     13345
     13337     13336     13339     13340     13337     13336     13339     13341
     13337     13336     13339     13342     13338     13336     13339     13340
     13338     13336     13339     13341     13338     13336     13339     13342
     13339     13342     13345     13346     13339     13342     13345     13347
     13340     13339     13342     13343     13340     13339     13342     13344
     13340     13339     13342     13345     13341     13339     13342     13343
     13341     13339     13342     13344     13341     13339     13342     13345
     13342     13345     13347     13348     13342     13345     13347     13349
     13343     13342     13345     13346     13343     13342     13345     13347
     13344     13342     13345     13346     13344     13342     13345     13347
     13345     13347     13349     13350     13345     13347     13349     13351
     13345     13347     13349     13352     13346     13345     13347     13348
     13346     13345     13347     13349     13347     13349     13352     13353
     13347     13349     13352     13354     13347     13349     13352     13355
     13348     13347     13349     13350     13348     13347     13349     13351
     13348     13347     13349     13352     13349     13352     13355     13356
     13349     13352     13355     13357     13349     13352     13355     13358
     13350     13349     13352     13353     13350     13349     13352     13354
     13350     13349     13352     13355     13351     13349     13352     13353
     13351     13349     13352     13354     13351     13349     13352     13355
     13352     13355     13358     13359     13352     13355     13358     13360
     13352     13355     13358     13361     13353     13352     13355     13356
     13353     13352     13355     13357     13353     13352     13355     13358
     13354     13352     13355     13356     13354     13352     13355     13357
     13354     13352     13355     13358     13355     13358     13361     13362
     13355     13358     13361     13363     13355     13358     13361     13364
     13356     13355     13358     13359     13356     13355     13358     13360
     13356     13355     13358     13361     13357     13355     13358     13359
     13357     13355     13358     13360     13357     13355     13358     13361
     13358     13361     13364     13365     13358     13361     13364     13366
     13358     13361     13364     13367     13359     13358     13361     13362
     13359     13358     13361     13363     13359     13358     13361     13364
     13360     13358     13361     13362     13360     13358     13361     13363
     13360     13358     13361     13364     13361     13364     13367     13368
     13361     13364     13367     13369     13361     13364     13367     13370
     13362     13361     13364     13365     13362     13361     13364     13366
     13362     13361     13364     13367     13363     13361     13364     13365
     13363     13361     13364     13366     13363     13361     13364     13367
     13364     13367     13370     13371     13364     13367     13370     13372
     13364     13367     13370     13373     13365     13364     13367     13368
     13365     13364     13367     13369     13365     13364     13367     13370
     13366     13364     13367     13368     13366     13364     13367     13369
     13366     13364     13367     13370     13368     13367     13370     13371
     13368     13367     13370     13372     13368     13367     13370     13373
     13369     13367     13370     13371     13369     13367     13370     13372
     13369     13367     13370     13373     13374     13377     13380     13381
     13374     13377     13380     13382     13374     13377     13380     13383
     13375     13374     13377     13378     13375     13374     13377     13379
     13375     13374     13377     13380     13376     13374     13377     13378
     13376     13374     13377     13379     13376     13374     13377     13380
     13377     13380     13383     13384     13377     13380     13383     13385
     13377     13380     13383     13386     13378     13377     13380     13381
     13378     13377     13380     13382     13378     13377     13380     13383
     13379     13377     13380     13381     13379     13377     13380     13382
     13379     13377     13380     13383     13380     13383     13386     13387
     13380     13383     13386     13388     13380     13383     13386     13389
     13381     13380     13383     13384     13381     13380     13383     13385
     13381     13380     13383     13386     13382     13380     13383     13384
     13382     13380     13383     13385     13382     13380     13383     13386
     13383     13386     13389     13390     13383     13386     13389     13391
     13383     13386     13389     13392     13384     13383     13386     13387
     13384     13383     13386     13388     13384     13383     13386     13389
     13385     13383     13386     13387     13385     13383     13386     13388
     13385     13383     13386     13389     13386     13389     13392     13393
     13386     13389     13392     13394     13386     13389     13392     13395
     13387     13386     13389     13390     13387     13386     13389     13391
     13387     13386     13389     13392     13388     13386     13389     13390
     13388     13386     13389     13391     13388     13386     13389     13392
     13389     13392     13395     13396     13389     13392     13395     13397
     13389     13392     13395     13398     13390     13389     13392     13393
     13390     13389     13392     13394     13390     13389     13392     13395
     13391     13389     13392     13393     13391     13389     13392     13394
     13391     13389     13392     13395     13392     13395     13398     13399
     13392     13395     13398     13400     13392     13395     13398     13401
     13393     13392     13395     13396     13393     13392     13395     13397
     13393     13392     13395     13398     13394     13392     13395     13396
     13394     13392     13395     13397     13394     13392     13395     13398
     13395     13398     13401     13402     13395     13398     13401     13403
     13395     13398     13401     13404     13396     13395     13398     13399
     13396     13395     13398     13400     13396     13395     13398     13401
     13397     13395     13398     13399     13397     13395     13398     13400
     13397     13395     13398     13401     13398     13401     13404     13405
     13398     13401     13404     13406     13398     13401     13404     13407
     13399     13398     13401     13402     13399     13398     13401     13403
     13399     13398     13401     13404     13400     13398     13401     13402
     13400     13398     13401     13403     13400     13398     13401     13404
     13401     13404     13407     13408     13401     13404     13407     13409
     13401     13404     13407     13410     13402     13401     13404     13405
     13402     13401     13404     13406     13402     13401     13404     13407
     13403     13401     13404     13405     13403     13401     13404     13406
     13403     13401     13404     13407     13404     13407     13410     13411
     13404     13407     13410     13412     13404     13407     13410     13413
     13405     13404     13407     13408     13405     13404     13407     13409
     13405     13404     13407     13410     13406     13404     13407     13408
     13406     13404     13407     13409     13406     13404     13407     13410
     13407     13410     13413     13414     13407     13410     13413     13415
     13407     13410     13413     13416     13408     13407     13410     13411
     13408     13407     13410     13412     13408     13407     13410     13413
     13409     13407     13410     13411     13409     13407     13410     13412
     13409     13407     13410     13413     13411     13410     13413     13414
     13411     13410     13413     13415     13411     13410     13413     13416
     13412     13410     13413     13414     13412     13410     13413     13415
     13412     13410     13413     13416     13417     13418     13433     13434
     13417     13418     13433     13435     13417     13418     13433     13439
     13418     13417     13421     13422     13418     13417     13421     13423
     13418     13417     13421     13424     13418     13417     13425     13426
     13418     13417     13425     13427     13418     13417     13425     13428
     13418     13417     13429     13430     13418     13417     13429     13431
     13418     13417     13429     13432     13418     13433     13439     13436
     13419     13418     13417     13421     13419     13418     13417     13425
     13419     13418     13417     13429     13419     13418     13433     13434
     13419     13418     13433     13435     13419     13418     13433     13439
     13420     13418     13417     13421     13420     13418     13417     13425
     13420     13418     13417     13429     13420     13418     13433     13434
     13420     13418     13433     13435     13420     13418     13433     13439
     13421     13417     13418     13433     13421     13417     13425     13426
     13421     13417     13425     13427     13421     13417     13425     13428
     13421     13417     13429     13430     13421     13417     13429     13431
     13421     13417     13429     13432     13422     13421     13417     13425
     13422     13421     13417     13429     13423     13421     13417     13425
     13423     13421     13417     13429     13424     13421     13417     13425
     13424     13421     13417     13429     13425     13417     13418     13433
     13425     13417     13429     13430     13425     13417     13429     13431
     13425     13417     13429     13432     13426     13425     13417     13429
     13427     13425     13417     13429     13428     13425     13417     13429
     13429     13417     13418     13433     13433     13439     13436     13437
     13433     13439     13436     13438     13433     13439     13436     13440
     13434     13433     13439     13436     13435     13433     13439     13436
     13436     13440     13441     13442     13436     13440     13441     13443
     13436     13440     13441     13444     13437     13436     13440     13441
     13438     13436     13440     13441     13439     13436     13440     13441
     13440     13441     13444     13445     13440     13441     13444     13446
     13440     13441     13444     13452     13441     13444     13446     13447
     13441     13444     13452     13453     13441     13444     13452     13454
     13441     13444     13452     13455     13442     13441     13444     13445
     13442     13441     13444     13446     13442     13441     13444     13452
     13443     13441     13444     13445     13443     13441     13444     13446
     13443     13441     13444     13452     13444     13446     13447     13448
     13444     13446     13447     13449     13444     13452     13455     13456
     13445     13444     13446     13447     13445     13444     13452     13453
     13445     13444     13452     13454     13445     13444     13452     13455
     13446     13444     13452     13453     13446     13444     13452     13454
     13446     13444     13452     13455     13446     13447     13449     13450
     13446     13447     13449     13451     13446     13447     13449     13461
     13447     13446     13444     13452     13447     13449     13461     13462
     13447     13449     13461     13463     13447     13449     13461     13464
     13448     13447     13449     13450     13448     13447     13449     13451
     13448     13447     13449     13461     13449     13461     13464     13465
     13449     13461     13464     13466     13449     13461     13464     13467
     13450     13449     13461     13462     13450     13449     13461     13463
     13450     13449     13461     13464     13451     13449     13461     13462
     13451     13449     13461     13463     13451     13449     13461     13464
     13452     13455     13456     13457     13452     13455     13456     13458
     13453     13452     13455     13456     13454     13452     13455     13456
     13455     13456     13458     13459     13455     13456     13458     13460
     13455     13456     13458     13508     13456     13458     13508     13509
     13456     13458     13508     13510     13456     13458     13508     13511
     13457     13456     13458     13459     13457     13456     13458     13460
     13457     13456     13458     13508     13458     13508     13511     13512
     13458     13508     13511     13513     13458     13508     13511     13514
     13459     13458     13508     13509     13459     13458     13508     13510
     13459     13458     13508     13511     13460     13458     13508     13509
     13460     13458     13508     13510     13460     13458     13508     13511
     13461     13464     13467     13468     13461     13464     13467     13469
     13461     13464     13467     13470     13462     13461     13464     13465
     13462     13461     13464     13466     13462     13461     13464     13467
     13463     13461     13464     13465     13463     13461     13464     13466
     13463     13461     13464     13467     13464     13467     13470     13471
     13464     13467     13470     13472     13464     13467     13470     13473
     13465     13464     13467     13468     13465     13464     13467     13469
     13465     13464     13467     13470     13466     13464     13467     13468
     13466     13464     13467     13469     13466     13464     13467     13470
     13467     13470     13473     13474     13467     13470     13473     13475
     13467     13470     13473     13476     13468     13467     13470     13471
     13468     13467     13470     13472     13468     13467     13470     13473
     13469     13467     13470     13471     13469     13467     13470     13472
     13469     13467     13470     13473     13470     13473     13476     13477
     13470     13473     13476     13478     13470     13473     13476     13479
     13471     13470     13473     13474     13471     13470     13473     13475
     13471     13470     13473     13476     13472     13470     13473     13474
     13472     13470     13473     13475     13472     13470     13473     13476
     13473     13476     13479     13480     13473     13476     13479     13481
     13474     13473     13476     13477     13474     13473     13476     13478
     13474     13473     13476     13479     13475     13473     13476     13477
     13475     13473     13476     13478     13475     13473     13476     13479
     13476     13479     13481     13482     13476     13479     13481     13483
     13477     13476     13479     13480     13477     13476     13479     13481
     13478     13476     13479     13480     13478     13476     13479     13481
     13479     13481     13483     13484     13479     13481     13483     13485
     13479     13481     13483     13486     13480     13479     13481     13482
     13480     13479     13481     13483     13481     13483     13486     13487
     13481     13483     13486     13488     13481     13483     13486     13489
     13482     13481     13483     13484     13482     13481     13483     13485
     13482     13481     13483     13486     13483     13486     13489     13490
     13483     13486     13489     13491     13483     13486     13489     13492
     13484     13483     13486     13487     13484     13483     13486     13488
     13484     13483     13486     13489     13485     13483     13486     13487
     13485     13483     13486     13488     13485     13483     13486     13489
     13486     13489     13492     13493     13486     13489     13492     13494
     13486     13489     13492     13495     13487     13486     13489     13490
     13487     13486     13489     13491     13487     13486     13489     13492
     13488     13486     13489     13490     13488     13486     13489     13491
     13488     13486     13489     13492     13489     13492     13495     13496
     13489     13492     13495     13497     13489     13492     13495     13498
     13490     13489     13492     13493     13490     13489     13492     13494
     13490     13489     13492     13495     13491     13489     13492     13493
     13491     13489     13492     13494     13491     13489     13492     13495
     13492     13495     13498     13499     13492     13495     13498     13500
     13492     13495     13498     13501     13493     13492     13495     13496
     13493     13492     13495     13497     13493     13492     13495     13498
     13494     13492     13495     13496     13494     13492     13495     13497
     13494     13492     13495     13498     13495     13498     13501     13502
     13495     13498     13501     13503     13495     13498     13501     13504
     13496     13495     13498     13499     13496     13495     13498     13500
     13496     13495     13498     13501     13497     13495     13498     13499
     13497     13495     13498     13500     13497     13495     13498     13501
     13498     13501     13504     13505     13498     13501     13504     13506
     13498     13501     13504     13507     13499     13498     13501     13502
     13499     13498     13501     13503     13499     13498     13501     13504
     13500     13498     13501     13502     13500     13498     13501     13503
     13500     13498     13501     13504     13502     13501     13504     13505
     13502     13501     13504     13506     13502     13501     13504     13507
     13503     13501     13504     13505     13503     13501     13504     13506
     13503     13501     13504     13507     13508     13511     13514     13515
     13508     13511     13514     13516     13508     13511     13514     13517
     13509     13508     13511     13512     13509     13508     13511     13513
     13509     13508     13511     13514     13510     13508     13511     13512
     13510     13508     13511     13513     13510     13508     13511     13514
     13511     13514     13517     13518     13511     13514     13517     13519
     13511     13514     13517     13520     13512     13511     13514     13515
     13512     13511     13514     13516     13512     13511     13514     13517
     13513     13511     13514     13515     13513     13511     13514     13516
     13513     13511     13514     13517     13514     13517     13520     13521
     13514     13517     13520     13522     13514     13517     13520     13523
     13515     13514     13517     13518     13515     13514     13517     13519
     13515     13514     13517     13520     13516     13514     13517     13518
     13516     13514     13517     13519     13516     13514     13517     13520
     13517     13520     13523     13524     13517     13520     13523     13525
     13517     13520     13523     13526     13518     13517     13520     13521
     13518     13517     13520     13522     13518     13517     13520     13523
     13519     13517     13520     13521     13519     13517     13520     13522
     13519     13517     13520     13523     13520     13523     13526     13527
     13520     13523     13526     13528     13520     13523     13526     13529
     13521     13520     13523     13524     13521     13520     13523     13525
     13521     13520     13523     13526     13522     13520     13523     13524
     13522     13520     13523     13525     13522     13520     13523     13526
     13523     13526     13529     13530     13523     13526     13529     13531
     13523     13526     13529     13532     13524     13523     13526     13527
     13524     13523     13526     13528     13524     13523     13526     13529
     13525     13523     13526     13527     13525     13523     13526     13528
     13525     13523     13526     13529     13526     13529     13532     13533
     13526     13529     13532     13534     13526     13529     13532     13535
     13527     13526     13529     13530     13527     13526     13529     13531
     13527     13526     13529     13532     13528     13526     13529     13530
     13528     13526     13529     13531     13528     13526     13529     13532
     13529     13532     13535     13536     13529     13532     13535     13537
     13529     13532     13535     13538     13530     13529     13532     13533
     13530     13529     13532     13534     13530     13529     13532     13535
     13531     13529     13532     13533     13531     13529     13532     13534
     13531     13529     13532     13535     13532     13535     13538     13539
     13532     13535     13538     13540     13532     13535     13538     13541
     13533     13532     13535     13536     13533     13532     13535     13537
     13533     13532     13535     13538     13534     13532     13535     13536
     13534     13532     13535     13537     13534     13532     13535     13538
     13535     13538     13541     13542     13535     13538     13541     13543
     13535     13538     13541     13544     13536     13535     13538     13539
     13536     13535     13538     13540     13536     13535     13538     13541
     13537     13535     13538     13539     13537     13535     13538     13540
     13537     13535     13538     13541     13538     13541     13544     13545
     13538     13541     13544     13546     13538     13541     13544     13547
     13539     13538     13541     13542     13539     13538     13541     13543
     13539     13538     13541     13544     13540     13538     13541     13542
     13540     13538     13541     13543     13540     13538     13541     13544
     13541     13544     13547     13548     13541     13544     13547     13549
     13541     13544     13547     13550     13542     13541     13544     13545
     13542     13541     13544     13546     13542     13541     13544     13547
     13543     13541     13544     13545     13543     13541     13544     13546
     13543     13541     13544     13547     13545     13544     13547     13548
     13545     13544     13547     13549     13545     13544     13547     13550
     13546     13544     13547     13548     13546     13544     13547     13549
     13546     13544     13547     13550     13551     13552     13567     13568
     13551     13552     13567     13569     13551     13552     13567     13573
     13552     13551     13555     13556     13552     13551     13555     13557
     13552     13551     13555     13558     13552     13551     13559     13560
     13552     13551     13559     13561     13552     13551     13559     13562
     13552     13551     13563     13564     13552     13551     13563     13565
     13552     13551     13563     13566     13552     13567     13573     13570
     13553     13552     13551     13555     13553     13552     13551     13559
     13553     13552     13551     13563     13553     13552     13567     13568
     13553     13552     13567     13569     13553     13552     13567     13573
     13554     13552     13551     13555     13554     13552     13551     13559
     13554     13552     13551     13563     13554     13552     13567     13568
     13554     13552     13567     13569     13554     13552     13567     13573
     13555     13551     13552     13567     13555     13551     13559     13560
     13555     13551     13559     13561     13555     13551     13559     13562
     13555     13551     13563     13564     13555     13551     13563     13565
     13555     13551     13563     13566     13556     13555     13551     13559
     13556     13555     13551     13563     13557     13555     13551     13559
     13557     13555     13551     13563     13558     13555     13551     13559
     13558     13555     13551     13563     13559     13551     13552     13567
     13559     13551     13563     13564     13559     13551     13563     13565
     13559     13551     13563     13566     13560     13559     13551     13563
     13561     13559     13551     13563     13562     13559     13551     13563
     13563     13551     13552     13567     13567     13573     13570     13571
     13567     13573     13570     13572     13567     13573     13570     13574
     13568     13567     13573     13570     13569     13567     13573     13570
     13570     13574     13575     13576     13570     13574     13575     13577
     13570     13574     13575     13578     13571     13570     13574     13575
     13572     13570     13574     13575     13573     13570     13574     13575
     13574     13575     13578     13579     13574     13575     13578     13580
     13574     13575     13578     13586     13575     13578     13580     13581
     13575     13578     13586     13587     13575     13578     13586     13588
     13575     13578     13586     13589     13576     13575     13578     13579
     13576     13575     13578     13580     13576     13575     13578     13586
     13577     13575     13578     13579     13577     13575     13578     13580
     13577     13575     13578     13586     13578     13580     13581     13582
     13578     13580     13581     13583     13578     13586     13589     13590
     13579     13578     13580     13581     13579     13578     13586     13587
     13579     13578     13586     13588     13579     13578     13586     13589
     13580     13578     13586     13587     13580     13578     13586     13588
     13580     13578     13586     13589     13580     13581     13583     13584
     13580     13581     13583     13585     13580     13581     13583     13595
     13581     13580     13578     13586     13581     13583     13595     13596
     13581     13583     13595     13597     13581     13583     13595     13598
     13582     13581     13583     13584     13582     13581     13583     13585
     13582     13581     13583     13595     13583     13595     13598     13599
     13583     13595     13598     13600     13583     13595     13598     13601
     13584     13583     13595     13596     13584     13583     13595     13597
     13584     13583     13595     13598     13585     13583     13595     13596
     13585     13583     13595     13597     13585     13583     13595     13598
     13586     13589     13590     13591     13586     13589     13590     13592
     13587     13586     13589     13590     13588     13586     13589     13590
     13589     13590     13592     13593     13589     13590     13592     13594
     13589     13590     13592     13642     13590     13592     13642     13643
     13590     13592     13642     13644     13590     13592     13642     13645
     13591     13590     13592     13593     13591     13590     13592     13594
     13591     13590     13592     13642     13592     13642     13645     13646
     13592     13642     13645     13647     13592     13642     13645     13648
     13593     13592     13642     13643     13593     13592     13642     13644
     13593     13592     13642     13645     13594     13592     13642     13643
     13594     13592     13642     13644     13594     13592     13642     13645
     13595     13598     13601     13602     13595     13598     13601     13603
     13595     13598     13601     13604     13596     13595     13598     13599
     13596     13595     13598     13600     13596     13595     13598     13601
     13597     13595     13598     13599     13597     13595     13598     13600
     13597     13595     13598     13601     13598     13601     13604     13605
     13598     13601     13604     13606     13598     13601     13604     13607
     13599     13598     13601     13602     13599     13598     13601     13603
     13599     13598     13601     13604     13600     13598     13601     13602
     13600     13598     13601     13603     13600     13598     13601     13604
     13601     13604     13607     13608     13601     13604     13607     13609
     13601     13604     13607     13610     13602     13601     13604     13605
     13602     13601     13604     13606     13602     13601     13604     13607
     13603     13601     13604     13605     13603     13601     13604     13606
     13603     13601     13604     13607     13604     13607     13610     13611
     13604     13607     13610     13612     13604     13607     13610     13613
     13605     13604     13607     13608     13605     13604     13607     13609
     13605     13604     13607     13610     13606     13604     13607     13608
     13606     13604     13607     13609     13606     13604     13607     13610
     13607     13610     13613     13614     13607     13610     13613     13615
     13608     13607     13610     13611     13608     13607     13610     13612
     13608     13607     13610     13613     13609     13607     13610     13611
     13609     13607     13610     13612     13609     13607     13610     13613
     13610     13613     13615     13616     13610     13613     13615     13617
     13611     13610     13613     13614     13611     13610     13613     13615
     13612     13610     13613     13614     13612     13610     13613     13615
     13613     13615     13617     13618     13613     13615     13617     13619
     13613     13615     13617     13620     13614     13613     13615     13616
     13614     13613     13615     13617     13615     13617     13620     13621
     13615     13617     13620     13622     13615     13617     13620     13623
     13616     13615     13617     13618     13616     13615     13617     13619
     13616     13615     13617     13620     13617     13620     13623     13624
     13617     13620     13623     13625     13617     13620     13623     13626
     13618     13617     13620     13621     13618     13617     13620     13622
     13618     13617     13620     13623     13619     13617     13620     13621
     13619     13617     13620     13622     13619     13617     13620     13623
     13620     13623     13626     13627     13620     13623     13626     13628
     13620     13623     13626     13629     13621     13620     13623     13624
     13621     13620     13623     13625     13621     13620     13623     13626
     13622     13620     13623     13624     13622     13620     13623     13625
     13622     13620     13623     13626     13623     13626     13629     13630
     13623     13626     13629     13631     13623     13626     13629     13632
     13624     13623     13626     13627     13624     13623     13626     13628
     13624     13623     13626     13629     13625     13623     13626     13627
     13625     13623     13626     13628     13625     13623     13626     13629
     13626     13629     13632     13633     13626     13629     13632     13634
     13626     13629     13632     13635     13627     13626     13629     13630
     13627     13626     13629     13631     13627     13626     13629     13632
     13628     13626     13629     13630     13628     13626     13629     13631
     13628     13626     13629     13632     13629     13632     13635     13636
     13629     13632     13635     13637     13629     13632     13635     13638
     13630     13629     13632     13633     13630     13629     13632     13634
     13630     13629     13632     13635     13631     13629     13632     13633
     13631     13629     13632     13634     13631     13629     13632     13635
     13632     13635     13638     13639     13632     13635     13638     13640
     13632     13635     13638     13641     13633     13632     13635     13636
     13633     13632     13635     13637     13633     13632     13635     13638
     13634     13632     13635     13636     13634     13632     13635     13637
     13634     13632     13635     13638     13636     13635     13638     13639
     13636     13635     13638     13640     13636     13635     13638     13641
     13637     13635     13638     13639     13637     13635     13638     13640
     13637     13635     13638     13641     13642     13645     13648     13649
     13642     13645     13648     13650     13642     13645     13648     13651
     13643     13642     13645     13646     13643     13642     13645     13647
     13643     13642     13645     13648     13644     13642     13645     13646
     13644     13642     13645     13647     13644     13642     13645     13648
     13645     13648     13651     13652     13645     13648     13651     13653
     13645     13648     13651     13654     13646     13645     13648     13649
     13646     13645     13648     13650     13646     13645     13648     13651
     13647     13645     13648     13649     13647     13645     13648     13650
     13647     13645     13648     13651     13648     13651     13654     13655
     13648     13651     13654     13656     13648     13651     13654     13657
     13649     13648     13651     13652     13649     13648     13651     13653
     13649     13648     13651     13654     13650     13648     13651     13652
     13650     13648     13651     13653     13650     13648     13651     13654
     13651     13654     13657     13658     13651     13654     13657     13659
     13651     13654     13657     13660     13652     13651     13654     13655
     13652     13651     13654     13656     13652     13651     13654     13657
     13653     13651     13654     13655     13653     13651     13654     13656
     13653     13651     13654     13657     13654     13657     13660     13661
     13654     13657     13660     13662     13654     13657     13660     13663
     13655     13654     13657     13658     13655     13654     13657     13659
     13655     13654     13657     13660     13656     13654     13657     13658
     13656     13654     13657     13659     13656     13654     13657     13660
     13657     13660     13663     13664     13657     13660     13663     13665
     13657     13660     13663     13666     13658     13657     13660     13661
     13658     13657     13660     13662     13658     13657     13660     13663
     13659     13657     13660     13661     13659     13657     13660     13662
     13659     13657     13660     13663     13660     13663     13666     13667
     13660     13663     13666     13668     13660     13663     13666     13669
     13661     13660     13663     13664     13661     13660     13663     13665
     13661     13660     13663     13666     13662     13660     13663     13664
     13662     13660     13663     13665     13662     13660     13663     13666
     13663     13666     13669     13670     13663     13666     13669     13671
     13663     13666     13669     13672     13664     13663     13666     13667
     13664     13663     13666     13668     13664     13663     13666     13669
     13665     13663     13666     13667     13665     13663     13666     13668
     13665     13663     13666     13669     13666     13669     13672     13673
     13666     13669     13672     13674     13666     13669     13672     13675
     13667     13666     13669     13670     13667     13666     13669     13671
     13667     13666     13669     13672     13668     13666     13669     13670
     13668     13666     13669     13671     13668     13666     13669     13672
     13669     13672     13675     13676     13669     13672     13675     13677
     13669     13672     13675     13678     13670     13669     13672     13673
     13670     13669     13672     13674     13670     13669     13672     13675
     13671     13669     13672     13673     13671     13669     13672     13674
     13671     13669     13672     13675     13672     13675     13678     13679
     13672     13675     13678     13680     13672     13675     13678     13681
     13673     13672     13675     13676     13673     13672     13675     13677
     13673     13672     13675     13678     13674     13672     13675     13676
     13674     13672     13675     13677     13674     13672     13675     13678
     13675     13678     13681     13682     13675     13678     13681     13683
     13675     13678     13681     13684     13676     13675     13678     13679
     13676     13675     13678     13680     13676     13675     13678     13681
     13677     13675     13678     13679     13677     13675     13678     13680
     13677     13675     13678     13681     13679     13678     13681     13682
     13679     13678     13681     13683     13679     13678     13681     13684
     13680     13678     13681     13682     13680     13678     13681     13683
     13680     13678     13681     13684     13685     13686     13701     13702
     13685     13686     13701     13703     13685     13686     13701     13707
     13686     13685     13689     13690     13686     13685     13689     13691
     13686     13685     13689     13692     13686     13685     13693     13694
     13686     13685     13693     13695     13686     13685     13693     13696
     13686     13685     13697     13698     13686     13685     13697     13699
     13686     13685     13697     13700     13686     13701     13707     13704
     13687     13686     13685     13689     13687     13686     13685     13693
     13687     13686     13685     13697     13687     13686     13701     13702
     13687     13686     13701     13703     13687     13686     13701     13707
     13688     13686     13685     13689     13688     13686     13685     13693
     13688     13686     13685     13697     13688     13686     13701     13702
     13688     13686     13701     13703     13688     13686     13701     13707
     13689     13685     13686     13701     13689     13685     13693     13694
     13689     13685     13693     13695     13689     13685     13693     13696
     13689     13685     13697     13698     13689     13685     13697     13699
     13689     13685     13697     13700     13690     13689     13685     13693
     13690     13689     13685     13697     13691     13689     13685     13693
     13691     13689     13685     13697     13692     13689     13685     13693
     13692     13689     13685     13697     13693     13685     13686     13701
     13693     13685     13697     13698     13693     13685     13697     13699
     13693     13685     13697     13700     13694     13693     13685     13697
     13695     13693     13685     13697     13696     13693     13685     13697
     13697     13685     13686     13701     13701     13707     13704     13705
     13701     13707     13704     13706     13701     13707     13704     13708
     13702     13701     13707     13704     13703     13701     13707     13704
     13704     13708     13709     13710     13704     13708     13709     13711
     13704     13708     13709     13712     13705     13704     13708     13709
     13706     13704     13708     13709     13707     13704     13708     13709
     13708     13709     13712     13713     13708     13709     13712     13714
     13708     13709     13712     13720     13709     13712     13714     13715
     13709     13712     13720     13721     13709     13712     13720     13722
     13709     13712     13720     13723     13710     13709     13712     13713
     13710     13709     13712     13714     13710     13709     13712     13720
     13711     13709     13712     13713     13711     13709     13712     13714
     13711     13709     13712     13720     13712     13714     13715     13716
     13712     13714     13715     13717     13712     13720     13723     13724
     13713     13712     13714     13715     13713     13712     13720     13721
     13713     13712     13720     13722     13713     13712     13720     13723
     13714     13712     13720     13721     13714     13712     13720     13722
     13714     13712     13720     13723     13714     13715     13717     13718
     13714     13715     13717     13719     13714     13715     13717     13729
     13715     13714     13712     13720     13715     13717     13729     13730
     13715     13717     13729     13731     13715     13717     13729     13732
     13716     13715     13717     13718     13716     13715     13717     13719
     13716     13715     13717     13729     13717     13729     13732     13733
     13717     13729     13732     13734     13717     13729     13732     13735
     13718     13717     13729     13730     13718     13717     13729     13731
     13718     13717     13729     13732     13719     13717     13729     13730
     13719     13717     13729     13731     13719     13717     13729     13732
     13720     13723     13724     13725     13720     13723     13724     13726
     13721     13720     13723     13724     13722     13720     13723     13724
     13723     13724     13726     13727     13723     13724     13726     13728
     13723     13724     13726     13776     13724     13726     13776     13777
     13724     13726     13776     13778     13724     13726     13776     13779
     13725     13724     13726     13727     13725     13724     13726     13728
     13725     13724     13726     13776     13726     13776     13779     13780
     13726     13776     13779     13781     13726     13776     13779     13782
     13727     13726     13776     13777     13727     13726     13776     13778
     13727     13726     13776     13779     13728     13726     13776     13777
     13728     13726     13776     13778     13728     13726     13776     13779
     13729     13732     13735     13736     13729     13732     13735     13737
     13729     13732     13735     13738     13730     13729     13732     13733
     13730     13729     13732     13734     13730     13729     13732     13735
     13731     13729     13732     13733     13731     13729     13732     13734
     13731     13729     13732     13735     13732     13735     13738     13739
     13732     13735     13738     13740     13732     13735     13738     13741
     13733     13732     13735     13736     13733     13732     13735     13737
     13733     13732     13735     13738     13734     13732     13735     13736
     13734     13732     13735     13737     13734     13732     13735     13738
     13735     13738     13741     13742     13735     13738     13741     13743
     13735     13738     13741     13744     13736     13735     13738     13739
     13736     13735     13738     13740     13736     13735     13738     13741
     13737     13735     13738     13739     13737     13735     13738     13740
     13737     13735     13738     13741     13738     13741     13744     13745
     13738     13741     13744     13746     13738     13741     13744     13747
     13739     13738     13741     13742     13739     13738     13741     13743
     13739     13738     13741     13744     13740     13738     13741     13742
     13740     13738     13741     13743     13740     13738     13741     13744
     13741     13744     13747     13748     13741     13744     13747     13749
     13742     13741     13744     13745     13742     13741     13744     13746
     13742     13741     13744     13747     13743     13741     13744     13745
     13743     13741     13744     13746     13743     13741     13744     13747
     13744     13747     13749     13750     13744     13747     13749     13751
     13745     13744     13747     13748     13745     13744     13747     13749
     13746     13744     13747     13748     13746     13744     13747     13749
     13747     13749     13751     13752     13747     13749     13751     13753
     13747     13749     13751     13754     13748     13747     13749     13750
     13748     13747     13749     13751     13749     13751     13754     13755
     13749     13751     13754     13756     13749     13751     13754     13757
     13750     13749     13751     13752     13750     13749     13751     13753
     13750     13749     13751     13754     13751     13754     13757     13758
     13751     13754     13757     13759     13751     13754     13757     13760
     13752     13751     13754     13755     13752     13751     13754     13756
     13752     13751     13754     13757     13753     13751     13754     13755
     13753     13751     13754     13756     13753     13751     13754     13757
     13754     13757     13760     13761     13754     13757     13760     13762
     13754     13757     13760     13763     13755     13754     13757     13758
     13755     13754     13757     13759     13755     13754     13757     13760
     13756     13754     13757     13758     13756     13754     13757     13759
     13756     13754     13757     13760     13757     13760     13763     13764
     13757     13760     13763     13765     13757     13760     13763     13766
     13758     13757     13760     13761     13758     13757     13760     13762
     13758     13757     13760     13763     13759     13757     13760     13761
     13759     13757     13760     13762     13759     13757     13760     13763
     13760     13763     13766     13767     13760     13763     13766     13768
     13760     13763     13766     13769     13761     13760     13763     13764
     13761     13760     13763     13765     13761     13760     13763     13766
     13762     13760     13763     13764     13762     13760     13763     13765
     13762     13760     13763     13766     13763     13766     13769     13770
     13763     13766     13769     13771     13763     13766     13769     13772
     13764     13763     13766     13767     13764     13763     13766     13768
     13764     13763     13766     13769     13765     13763     13766     13767
     13765     13763     13766     13768     13765     13763     13766     13769
     13766     13769     13772     13773     13766     13769     13772     13774
     13766     13769     13772     13775     13767     13766     13769     13770
     13767     13766     13769     13771     13767     13766     13769     13772
     13768     13766     13769     13770     13768     13766     13769     13771
     13768     13766     13769     13772     13770     13769     13772     13773
     13770     13769     13772     13774     13770     13769     13772     13775
     13771     13769     13772     13773     13771     13769     13772     13774
     13771     13769     13772     13775     13776     13779     13782     13783
     13776     13779     13782     13784     13776     13779     13782     13785
     13777     13776     13779     13780     13777     13776     13779     13781
     13777     13776     13779     13782     13778     13776     13779     13780
     13778     13776     13779     13781     13778     13776     13779     13782
     13779     13782     13785     13786     13779     13782     13785     13787
     13779     13782     13785     13788     13780     13779     13782     13783
     13780     13779     13782     13784     13780     13779     13782     13785
     13781     13779     13782     13783     13781     13779     13782     13784
     13781     13779     13782     13785     13782     13785     13788     13789
     13782     13785     13788     13790     13782     13785     13788     13791
     13783     13782     13785     13786     13783     13782     13785     13787
     13783     13782     13785     13788     13784     13782     13785     13786
     13784     13782     13785     13787     13784     13782     13785     13788
     13785     13788     13791     13792     13785     13788     13791     13793
     13785     13788     13791     13794     13786     13785     13788     13789
     13786     13785     13788     13790     13786     13785     13788     13791
     13787     13785     13788     13789     13787     13785     13788     13790
     13787     13785     13788     13791     13788     13791     13794     13795
     13788     13791     13794     13796     13788     13791     13794     13797
     13789     13788     13791     13792     13789     13788     13791     13793
     13789     13788     13791     13794     13790     13788     13791     13792
     13790     13788     13791     13793     13790     13788     13791     13794
     13791     13794     13797     13798     13791     13794     13797     13799
     13791     13794     13797     13800     13792     13791     13794     13795
     13792     13791     13794     13796     13792     13791     13794     13797
     13793     13791     13794     13795     13793     13791     13794     13796
     13793     13791     13794     13797     13794     13797     13800     13801
     13794     13797     13800     13802     13794     13797     13800     13803
     13795     13794     13797     13798     13795     13794     13797     13799
     13795     13794     13797     13800     13796     13794     13797     13798
     13796     13794     13797     13799     13796     13794     13797     13800
     13797     13800     13803     13804     13797     13800     13803     13805
     13797     13800     13803     13806     13798     13797     13800     13801
     13798     13797     13800     13802     13798     13797     13800     13803
     13799     13797     13800     13801     13799     13797     13800     13802
     13799     13797     13800     13803     13800     13803     13806     13807
     13800     13803     13806     13808     13800     13803     13806     13809
     13801     13800     13803     13804     13801     13800     13803     13805
     13801     13800     13803     13806     13802     13800     13803     13804
     13802     13800     13803     13805     13802     13800     13803     13806
     13803     13806     13809     13810     13803     13806     13809     13811
     13803     13806     13809     13812     13804     13803     13806     13807
     13804     13803     13806     13808     13804     13803     13806     13809
     13805     13803     13806     13807     13805     13803     13806     13808
     13805     13803     13806     13809     13806     13809     13812     13813
     13806     13809     13812     13814     13806     13809     13812     13815
     13807     13806     13809     13810     13807     13806     13809     13811
     13807     13806     13809     13812     13808     13806     13809     13810
     13808     13806     13809     13811     13808     13806     13809     13812
     13809     13812     13815     13816     13809     13812     13815     13817
     13809     13812     13815     13818     13810     13809     13812     13813
     13810     13809     13812     13814     13810     13809     13812     13815
     13811     13809     13812     13813     13811     13809     13812     13814
     13811     13809     13812     13815     13813     13812     13815     13816
     13813     13812     13815     13817     13813     13812     13815     13818
     13814     13812     13815     13816     13814     13812     13815     13817
     13814     13812     13815     13818     13819     13820     13835     13836
     13819     13820     13835     13837     13819     13820     13835     13841
     13820     13819     13823     13824     13820     13819     13823     13825
     13820     13819     13823     13826     13820     13819     13827     13828
     13820     13819     13827     13829     13820     13819     13827     13830
     13820     13819     13831     13832     13820     13819     13831     13833
     13820     13819     13831     13834     13820     13835     13841     13838
     13821     13820     13819     13823     13821     13820     13819     13827
     13821     13820     13819     13831     13821     13820     13835     13836
     13821     13820     13835     13837     13821     13820     13835     13841
     13822     13820     13819     13823     13822     13820     13819     13827
     13822     13820     13819     13831     13822     13820     13835     13836
     13822     13820     13835     13837     13822     13820     13835     13841
     13823     13819     13820     13835     13823     13819     13827     13828
     13823     13819     13827     13829     13823     13819     13827     13830
     13823     13819     13831     13832     13823     13819     13831     13833
     13823     13819     13831     13834     13824     13823     13819     13827
     13824     13823     13819     13831     13825     13823     13819     13827
     13825     13823     13819     13831     13826     13823     13819     13827
     13826     13823     13819     13831     13827     13819     13820     13835
     13827     13819     13831     13832     13827     13819     13831     13833
     13827     13819     13831     13834     13828     13827     13819     13831
     13829     13827     13819     13831     13830     13827     13819     13831
     13831     13819     13820     13835     13835     13841     13838     13839
     13835     13841     13838     13840     13835     13841     13838     13842
     13836     13835     13841     13838     13837     13835     13841     13838
     13838     13842     13843     13844     13838     13842     13843     13845
     13838     13842     13843     13846     13839     13838     13842     13843
     13840     13838     13842     13843     13841     13838     13842     13843
     13842     13843     13846     13847     13842     13843     13846     13848
     13842     13843     13846     13854     13843     13846     13848     13849
     13843     13846     13854     13855     13843     13846     13854     13856
     13843     13846     13854     13857     13844     13843     13846     13847
     13844     13843     13846     13848     13844     13843     13846     13854
     13845     13843     13846     13847     13845     13843     13846     13848
     13845     13843     13846     13854     13846     13848     13849     13850
     13846     13848     13849     13851     13846     13854     13857     13858
     13847     13846     13848     13849     13847     13846     13854     13855
     13847     13846     13854     13856     13847     13846     13854     13857
     13848     13846     13854     13855     13848     13846     13854     13856
     13848     13846     13854     13857     13848     13849     13851     13852
     13848     13849     13851     13853     13848     13849     13851     13863
     13849     13848     13846     13854     13849     13851     13863     13864
     13849     13851     13863     13865     13849     13851     13863     13866
     13850     13849     13851     13852     13850     13849     13851     13853
     13850     13849     13851     13863     13851     13863     13866     13867
     13851     13863     13866     13868     13851     13863     13866     13869
     13852     13851     13863     13864     13852     13851     13863     13865
     13852     13851     13863     13866     13853     13851     13863     13864
     13853     13851     13863     13865     13853     13851     13863     13866
     13854     13857     13858     13859     13854     13857     13858     13860
     13855     13854     13857     13858     13856     13854     13857     13858
     13857     13858     13860     13861     13857     13858     13860     13862
     13857     13858     13860     13910     13858     13860     13910     13911
     13858     13860     13910     13912     13858     13860     13910     13913
     13859     13858     13860     13861     13859     13858     13860     13862
     13859     13858     13860     13910     13860     13910     13913     13914
     13860     13910     13913     13915     13860     13910     13913     13916
     13861     13860     13910     13911     13861     13860     13910     13912
     13861     13860     13910     13913     13862     13860     13910     13911
     13862     13860     13910     13912     13862     13860     13910     13913
     13863     13866     13869     13870     13863     13866     13869     13871
     13863     13866     13869     13872     13864     13863     13866     13867
     13864     13863     13866     13868     13864     13863     13866     13869
     13865     13863     13866     13867     13865     13863     13866     13868
     13865     13863     13866     13869     13866     13869     13872     13873
     13866     13869     13872     13874     13866     13869     13872     13875
     13867     13866     13869     13870     13867     13866     13869     13871
     13867     13866     13869     13872     13868     13866     13869     13870
     13868     13866     13869     13871     13868     13866     13869     13872
     13869     13872     13875     13876     13869     13872     13875     13877
     13869     13872     13875     13878     13870     13869     13872     13873
     13870     13869     13872     13874     13870     13869     13872     13875
     13871     13869     13872     13873     13871     13869     13872     13874
     13871     13869     13872     13875     13872     13875     13878     13879
     13872     13875     13878     13880     13872     13875     13878     13881
     13873     13872     13875     13876     13873     13872     13875     13877
     13873     13872     13875     13878     13874     13872     13875     13876
     13874     13872     13875     13877     13874     13872     13875     13878
     13875     13878     13881     13882     13875     13878     13881     13883
     13876     13875     13878     13879     13876     13875     13878     13880
     13876     13875     13878     13881     13877     13875     13878     13879
     13877     13875     13878     13880     13877     13875     13878     13881
     13878     13881     13883     13884     13878     13881     13883     13885
     13879     13878     13881     13882     13879     13878     13881     13883
     13880     13878     13881     13882     13880     13878     13881     13883
     13881     13883     13885     13886     13881     13883     13885     13887
     13881     13883     13885     13888     13882     13881     13883     13884
     13882     13881     13883     13885     13883     13885     13888     13889
     13883     13885     13888     13890     13883     13885     13888     13891
     13884     13883     13885     13886     13884     13883     13885     13887
     13884     13883     13885     13888     13885     13888     13891     13892
     13885     13888     13891     13893     13885     13888     13891     13894
     13886     13885     13888     13889     13886     13885     13888     13890
     13886     13885     13888     13891     13887     13885     13888     13889
     13887     13885     13888     13890     13887     13885     13888     13891
     13888     13891     13894     13895     13888     13891     13894     13896
     13888     13891     13894     13897     13889     13888     13891     13892
     13889     13888     13891     13893     13889     13888     13891     13894
     13890     13888     13891     13892     13890     13888     13891     13893
     13890     13888     13891     13894     13891     13894     13897     13898
     13891     13894     13897     13899     13891     13894     13897     13900
     13892     13891     13894     13895     13892     13891     13894     13896
     13892     13891     13894     13897     13893     13891     13894     13895
     13893     13891     13894     13896     13893     13891     13894     13897
     13894     13897     13900     13901     13894     13897     13900     13902
     13894     13897     13900     13903     13895     13894     13897     13898
     13895     13894     13897     13899     13895     13894     13897     13900
     13896     13894     13897     13898     13896     13894     13897     13899
     13896     13894     13897     13900     13897     13900     13903     13904
     13897     13900     13903     13905     13897     13900     13903     13906
     13898     13897     13900     13901     13898     13897     13900     13902
     13898     13897     13900     13903     13899     13897     13900     13901
     13899     13897     13900     13902     13899     13897     13900     13903
     13900     13903     13906     13907     13900     13903     13906     13908
     13900     13903     13906     13909     13901     13900     13903     13904
     13901     13900     13903     13905     13901     13900     13903     13906
     13902     13900     13903     13904     13902     13900     13903     13905
     13902     13900     13903     13906     13904     13903     13906     13907
     13904     13903     13906     13908     13904     13903     13906     13909
     13905     13903     13906     13907     13905     13903     13906     13908
     13905     13903     13906     13909     13910     13913     13916     13917
     13910     13913     13916     13918     13910     13913     13916     13919
     13911     13910     13913     13914     13911     13910     13913     13915
     13911     13910     13913     13916     13912     13910     13913     13914
     13912     13910     13913     13915     13912     13910     13913     13916
     13913     13916     13919     13920     13913     13916     13919     13921
     13913     13916     13919     13922     13914     13913     13916     13917
     13914     13913     13916     13918     13914     13913     13916     13919
     13915     13913     13916     13917     13915     13913     13916     13918
     13915     13913     13916     13919     13916     13919     13922     13923
     13916     13919     13922     13924     13916     13919     13922     13925
     13917     13916     13919     13920     13917     13916     13919     13921
     13917     13916     13919     13922     13918     13916     13919     13920
     13918     13916     13919     13921     13918     13916     13919     13922
     13919     13922     13925     13926     13919     13922     13925     13927
     13919     13922     13925     13928     13920     13919     13922     13923
     13920     13919     13922     13924     13920     13919     13922     13925
     13921     13919     13922     13923     13921     13919     13922     13924
     13921     13919     13922     13925     13922     13925     13928     13929
     13922     13925     13928     13930     13922     13925     13928     13931
     13923     13922     13925     13926     13923     13922     13925     13927
     13923     13922     13925     13928     13924     13922     13925     13926
     13924     13922     13925     13927     13924     13922     13925     13928
     13925     13928     13931     13932     13925     13928     13931     13933
     13925     13928     13931     13934     13926     13925     13928     13929
     13926     13925     13928     13930     13926     13925     13928     13931
     13927     13925     13928     13929     13927     13925     13928     13930
     13927     13925     13928     13931     13928     13931     13934     13935
     13928     13931     13934     13936     13928     13931     13934     13937
     13929     13928     13931     13932     13929     13928     13931     13933
     13929     13928     13931     13934     13930     13928     13931     13932
     13930     13928     13931     13933     13930     13928     13931     13934
     13931     13934     13937     13938     13931     13934     13937     13939
     13931     13934     13937     13940     13932     13931     13934     13935
     13932     13931     13934     13936     13932     13931     13934     13937
     13933     13931     13934     13935     13933     13931     13934     13936
     13933     13931     13934     13937     13934     13937     13940     13941
     13934     13937     13940     13942     13934     13937     13940     13943
     13935     13934     13937     13938     13935     13934     13937     13939
     13935     13934     13937     13940     13936     13934     13937     13938
     13936     13934     13937     13939     13936     13934     13937     13940
     13937     13940     13943     13944     13937     13940     13943     13945
     13937     13940     13943     13946     13938     13937     13940     13941
     13938     13937     13940     13942     13938     13937     13940     13943
     13939     13937     13940     13941     13939     13937     13940     13942
     13939     13937     13940     13943     13940     13943     13946     13947
     13940     13943     13946     13948     13940     13943     13946     13949
     13941     13940     13943     13944     13941     13940     13943     13945
     13941     13940     13943     13946     13942     13940     13943     13944
     13942     13940     13943     13945     13942     13940     13943     13946
     13943     13946     13949     13950     13943     13946     13949     13951
     13943     13946     13949     13952     13944     13943     13946     13947
     13944     13943     13946     13948     13944     13943     13946     13949
     13945     13943     13946     13947     13945     13943     13946     13948
     13945     13943     13946     13949     13947     13946     13949     13950
     13947     13946     13949     13951     13947     13946     13949     13952
     13948     13946     13949     13950     13948     13946     13949     13951
     13948     13946     13949     13952     13953     13954     13969     13970
     13953     13954     13969     13971     13953     13954     13969     13975
     13954     13953     13957     13958     13954     13953     13957     13959
     13954     13953     13957     13960     13954     13953     13961     13962
     13954     13953     13961     13963     13954     13953     13961     13964
     13954     13953     13965     13966     13954     13953     13965     13967
     13954     13953     13965     13968     13954     13969     13975     13972
     13955     13954     13953     13957     13955     13954     13953     13961
     13955     13954     13953     13965     13955     13954     13969     13970
     13955     13954     13969     13971     13955     13954     13969     13975
     13956     13954     13953     13957     13956     13954     13953     13961
     13956     13954     13953     13965     13956     13954     13969     13970
     13956     13954     13969     13971     13956     13954     13969     13975
     13957     13953     13954     13969     13957     13953     13961     13962
     13957     13953     13961     13963     13957     13953     13961     13964
     13957     13953     13965     13966     13957     13953     13965     13967
     13957     13953     13965     13968     13958     13957     13953     13961
     13958     13957     13953     13965     13959     13957     13953     13961
     13959     13957     13953     13965     13960     13957     13953     13961
     13960     13957     13953     13965     13961     13953     13954     13969
     13961     13953     13965     13966     13961     13953     13965     13967
     13961     13953     13965     13968     13962     13961     13953     13965
     13963     13961     13953     13965     13964     13961     13953     13965
     13965     13953     13954     13969     13969     13975     13972     13973
     13969     13975     13972     13974     13969     13975     13972     13976
     13970     13969     13975     13972     13971     13969     13975     13972
     13972     13976     13977     13978     13972     13976     13977     13979
     13972     13976     13977     13980     13973     13972     13976     13977
     13974     13972     13976     13977     13975     13972     13976     13977
     13976     13977     13980     13981     13976     13977     13980     13982
     13976     13977     13980     13988     13977     13980     13982     13983
     13977     13980     13988     13989     13977     13980     13988     13990
     13977     13980     13988     13991     13978     13977     13980     13981
     13978     13977     13980     13982     13978     13977     13980     13988
     13979     13977     13980     13981     13979     13977     13980     13982
     13979     13977     13980     13988     13980     13982     13983     13984
     13980     13982     13983     13985     13980     13988     13991     13992
     13981     13980     13982     13983     13981     13980     13988     13989
     13981     13980     13988     13990     13981     13980     13988     13991
     13982     13980     13988     13989     13982     13980     13988     13990
     13982     13980     13988     13991     13982     13983     13985     13986
     13982     13983     13985     13987     13982     13983     13985     13997
     13983     13982     13980     13988     13983     13985     13997     13998
     13983     13985     13997     13999     13983     13985     13997     14000
     13984     13983     13985     13986     13984     13983     13985     13987
     13984     13983     13985     13997     13985     13997     14000     14001
     13985     13997     14000     14002     13985     13997     14000     14003
     13986     13985     13997     13998     13986     13985     13997     13999
     13986     13985     13997     14000     13987     13985     13997     13998
     13987     13985     13997     13999     13987     13985     13997     14000
     13988     13991     13992     13993     13988     13991     13992     13994
     13989     13988     13991     13992     13990     13988     13991     13992
     13991     13992     13994     13995     13991     13992     13994     13996
     13991     13992     13994     14044     13992     13994     14044     14045
     13992     13994     14044     14046     13992     13994     14044     14047
     13993     13992     13994     13995     13993     13992     13994     13996
     13993     13992     13994     14044     13994     14044     14047     14048
     13994     14044     14047     14049     13994     14044     14047     14050
     13995     13994     14044     14045     13995     13994     14044     14046
     13995     13994     14044     14047     13996     13994     14044     14045
     13996     13994     14044     14046     13996     13994     14044     14047
     13997     14000     14003     14004     13997     14000     14003     14005
     13997     14000     14003     14006     13998     13997     14000     14001
     13998     13997     14000     14002     13998     13997     14000     14003
     13999     13997     14000     14001     13999     13997     14000     14002
     13999     13997     14000     14003     14000     14003     14006     14007
     14000     14003     14006     14008     14000     14003     14006     14009
     14001     14000     14003     14004     14001     14000     14003     14005
     14001     14000     14003     14006     14002     14000     14003     14004
     14002     14000     14003     14005     14002     14000     14003     14006
     14003     14006     14009     14010     14003     14006     14009     14011
     14003     14006     14009     14012     14004     14003     14006     14007
     14004     14003     14006     14008     14004     14003     14006     14009
     14005     14003     14006     14007     14005     14003     14006     14008
     14005     14003     14006     14009     14006     14009     14012     14013
     14006     14009     14012     14014     14006     14009     14012     14015
     14007     14006     14009     14010     14007     14006     14009     14011
     14007     14006     14009     14012     14008     14006     14009     14010
     14008     14006     14009     14011     14008     14006     14009     14012
     14009     14012     14015     14016     14009     14012     14015     14017
     14010     14009     14012     14013     14010     14009     14012     14014
     14010     14009     14012     14015     14011     14009     14012     14013
     14011     14009     14012     14014     14011     14009     14012     14015
     14012     14015     14017     14018     14012     14015     14017     14019
     14013     14012     14015     14016     14013     14012     14015     14017
     14014     14012     14015     14016     14014     14012     14015     14017
     14015     14017     14019     14020     14015     14017     14019     14021
     14015     14017     14019     14022     14016     14015     14017     14018
     14016     14015     14017     14019     14017     14019     14022     14023
     14017     14019     14022     14024     14017     14019     14022     14025
     14018     14017     14019     14020     14018     14017     14019     14021
     14018     14017     14019     14022     14019     14022     14025     14026
     14019     14022     14025     14027     14019     14022     14025     14028
     14020     14019     14022     14023     14020     14019     14022     14024
     14020     14019     14022     14025     14021     14019     14022     14023
     14021     14019     14022     14024     14021     14019     14022     14025
     14022     14025     14028     14029     14022     14025     14028     14030
     14022     14025     14028     14031     14023     14022     14025     14026
     14023     14022     14025     14027     14023     14022     14025     14028
     14024     14022     14025     14026     14024     14022     14025     14027
     14024     14022     14025     14028     14025     14028     14031     14032
     14025     14028     14031     14033     14025     14028     14031     14034
     14026     14025     14028     14029     14026     14025     14028     14030
     14026     14025     14028     14031     14027     14025     14028     14029
     14027     14025     14028     14030     14027     14025     14028     14031
     14028     14031     14034     14035     14028     14031     14034     14036
     14028     14031     14034     14037     14029     14028     14031     14032
     14029     14028     14031     14033     14029     14028     14031     14034
     14030     14028     14031     14032     14030     14028     14031     14033
     14030     14028     14031     14034     14031     14034     14037     14038
     14031     14034     14037     14039     14031     14034     14037     14040
     14032     14031     14034     14035     14032     14031     14034     14036
     14032     14031     14034     14037     14033     14031     14034     14035
     14033     14031     14034     14036     14033     14031     14034     14037
     14034     14037     14040     14041     14034     14037     14040     14042
     14034     14037     14040     14043     14035     14034     14037     14038
     14035     14034     14037     14039     14035     14034     14037     14040
     14036     14034     14037     14038     14036     14034     14037     14039
     14036     14034     14037     14040     14038     14037     14040     14041
     14038     14037     14040     14042     14038     14037     14040     14043
     14039     14037     14040     14041     14039     14037     14040     14042
     14039     14037     14040     14043     14044     14047     14050     14051
     14044     14047     14050     14052     14044     14047     14050     14053
     14045     14044     14047     14048     14045     14044     14047     14049
     14045     14044     14047     14050     14046     14044     14047     14048
     14046     14044     14047     14049     14046     14044     14047     14050
     14047     14050     14053     14054     14047     14050     14053     14055
     14047     14050     14053     14056     14048     14047     14050     14051
     14048     14047     14050     14052     14048     14047     14050     14053
     14049     14047     14050     14051     14049     14047     14050     14052
     14049     14047     14050     14053     14050     14053     14056     14057
     14050     14053     14056     14058     14050     14053     14056     14059
     14051     14050     14053     14054     14051     14050     14053     14055
     14051     14050     14053     14056     14052     14050     14053     14054
     14052     14050     14053     14055     14052     14050     14053     14056
     14053     14056     14059     14060     14053     14056     14059     14061
     14053     14056     14059     14062     14054     14053     14056     14057
     14054     14053     14056     14058     14054     14053     14056     14059
     14055     14053     14056     14057     14055     14053     14056     14058
     14055     14053     14056     14059     14056     14059     14062     14063
     14056     14059     14062     14064     14056     14059     14062     14065
     14057     14056     14059     14060     14057     14056     14059     14061
     14057     14056     14059     14062     14058     14056     14059     14060
     14058     14056     14059     14061     14058     14056     14059     14062
     14059     14062     14065     14066     14059     14062     14065     14067
     14059     14062     14065     14068     14060     14059     14062     14063
     14060     14059     14062     14064     14060     14059     14062     14065
     14061     14059     14062     14063     14061     14059     14062     14064
     14061     14059     14062     14065     14062     14065     14068     14069
     14062     14065     14068     14070     14062     14065     14068     14071
     14063     14062     14065     14066     14063     14062     14065     14067
     14063     14062     14065     14068     14064     14062     14065     14066
     14064     14062     14065     14067     14064     14062     14065     14068
     14065     14068     14071     14072     14065     14068     14071     14073
     14065     14068     14071     14074     14066     14065     14068     14069
     14066     14065     14068     14070     14066     14065     14068     14071
     14067     14065     14068     14069     14067     14065     14068     14070
     14067     14065     14068     14071     14068     14071     14074     14075
     14068     14071     14074     14076     14068     14071     14074     14077
     14069     14068     14071     14072     14069     14068     14071     14073
     14069     14068     14071     14074     14070     14068     14071     14072
     14070     14068     14071     14073     14070     14068     14071     14074
     14071     14074     14077     14078     14071     14074     14077     14079
     14071     14074     14077     14080     14072     14071     14074     14075
     14072     14071     14074     14076     14072     14071     14074     14077
     14073     14071     14074     14075     14073     14071     14074     14076
     14073     14071     14074     14077     14074     14077     14080     14081
     14074     14077     14080     14082     14074     14077     14080     14083
     14075     14074     14077     14078     14075     14074     14077     14079
     14075     14074     14077     14080     14076     14074     14077     14078
     14076     14074     14077     14079     14076     14074     14077     14080
     14077     14080     14083     14084     14077     14080     14083     14085
     14077     14080     14083     14086     14078     14077     14080     14081
     14078     14077     14080     14082     14078     14077     14080     14083
     14079     14077     14080     14081     14079     14077     14080     14082
     14079     14077     14080     14083     14081     14080     14083     14084
     14081     14080     14083     14085     14081     14080     14083     14086
     14082     14080     14083     14084     14082     14080     14083     14085
     14082     14080     14083     14086     14087     14088     14103     14104
     14087     14088     14103     14105     14087     14088     14103     14109
     14088     14087     14091     14092     14088     14087     14091     14093
     14088     14087     14091     14094     14088     14087     14095     14096
     14088     14087     14095     14097     14088     14087     14095     14098
     14088     14087     14099     14100     14088     14087     14099     14101
     14088     14087     14099     14102     14088     14103     14109     14106
     14089     14088     14087     14091     14089     14088     14087     14095
     14089     14088     14087     14099     14089     14088     14103     14104
     14089     14088     14103     14105     14089     14088     14103     14109
     14090     14088     14087     14091     14090     14088     14087     14095
     14090     14088     14087     14099     14090     14088     14103     14104
     14090     14088     14103     14105     14090     14088     14103     14109
     14091     14087     14088     14103     14091     14087     14095     14096
     14091     14087     14095     14097     14091     14087     14095     14098
     14091     14087     14099     14100     14091     14087     14099     14101
     14091     14087     14099     14102     14092     14091     14087     14095
     14092     14091     14087     14099     14093     14091     14087     14095
     14093     14091     14087     14099     14094     14091     14087     14095
     14094     14091     14087     14099     14095     14087     14088     14103
     14095     14087     14099     14100     14095     14087     14099     14101
     14095     14087     14099     14102     14096     14095     14087     14099
     14097     14095     14087     14099     14098     14095     14087     14099
     14099     14087     14088     14103     14103     14109     14106     14107
     14103     14109     14106     14108     14103     14109     14106     14110
     14104     14103     14109     14106     14105     14103     14109     14106
     14106     14110     14111     14112     14106     14110     14111     14113
     14106     14110     14111     14114     14107     14106     14110     14111
     14108     14106     14110     14111     14109     14106     14110     14111
     14110     14111     14114     14115     14110     14111     14114     14116
     14110     14111     14114     14122     14111     14114     14116     14117
     14111     14114     14122     14123     14111     14114     14122     14124
     14111     14114     14122     14125     14112     14111     14114     14115
     14112     14111     14114     14116     14112     14111     14114     14122
     14113     14111     14114     14115     14113     14111     14114     14116
     14113     14111     14114     14122     14114     14116     14117     14118
     14114     14116     14117     14119     14114     14122     14125     14126
     14115     14114     14116     14117     14115     14114     14122     14123
     14115     14114     14122     14124     14115     14114     14122     14125
     14116     14114     14122     14123     14116     14114     14122     14124
     14116     14114     14122     14125     14116     14117     14119     14120
     14116     14117     14119     14121     14116     14117     14119     14131
     14117     14116     14114     14122     14117     14119     14131     14132
     14117     14119     14131     14133     14117     14119     14131     14134
     14118     14117     14119     14120     14118     14117     14119     14121
     14118     14117     14119     14131     14119     14131     14134     14135
     14119     14131     14134     14136     14119     14131     14134     14137
     14120     14119     14131     14132     14120     14119     14131     14133
     14120     14119     14131     14134     14121     14119     14131     14132
     14121     14119     14131     14133     14121     14119     14131     14134
     14122     14125     14126     14127     14122     14125     14126     14128
     14123     14122     14125     14126     14124     14122     14125     14126
     14125     14126     14128     14129     14125     14126     14128     14130
     14125     14126     14128     14178     14126     14128     14178     14179
     14126     14128     14178     14180     14126     14128     14178     14181
     14127     14126     14128     14129     14127     14126     14128     14130
     14127     14126     14128     14178     14128     14178     14181     14182
     14128     14178     14181     14183     14128     14178     14181     14184
     14129     14128     14178     14179     14129     14128     14178     14180
     14129     14128     14178     14181     14130     14128     14178     14179
     14130     14128     14178     14180     14130     14128     14178     14181
     14131     14134     14137     14138     14131     14134     14137     14139
     14131     14134     14137     14140     14132     14131     14134     14135
     14132     14131     14134     14136     14132     14131     14134     14137
     14133     14131     14134     14135     14133     14131     14134     14136
     14133     14131     14134     14137     14134     14137     14140     14141
     14134     14137     14140     14142     14134     14137     14140     14143
     14135     14134     14137     14138     14135     14134     14137     14139
     14135     14134     14137     14140     14136     14134     14137     14138
     14136     14134     14137     14139     14136     14134     14137     14140
     14137     14140     14143     14144     14137     14140     14143     14145
     14137     14140     14143     14146     14138     14137     14140     14141
     14138     14137     14140     14142     14138     14137     14140     14143
     14139     14137     14140     14141     14139     14137     14140     14142
     14139     14137     14140     14143     14140     14143     14146     14147
     14140     14143     14146     14148     14140     14143     14146     14149
     14141     14140     14143     14144     14141     14140     14143     14145
     14141     14140     14143     14146     14142     14140     14143     14144
     14142     14140     14143     14145     14142     14140     14143     14146
     14143     14146     14149     14150     14143     14146     14149     14151
     14144     14143     14146     14147     14144     14143     14146     14148
     14144     14143     14146     14149     14145     14143     14146     14147
     14145     14143     14146     14148     14145     14143     14146     14149
     14146     14149     14151     14152     14146     14149     14151     14153
     14147     14146     14149     14150     14147     14146     14149     14151
     14148     14146     14149     14150     14148     14146     14149     14151
     14149     14151     14153     14154     14149     14151     14153     14155
     14149     14151     14153     14156     14150     14149     14151     14152
     14150     14149     14151     14153     14151     14153     14156     14157
     14151     14153     14156     14158     14151     14153     14156     14159
     14152     14151     14153     14154     14152     14151     14153     14155
     14152     14151     14153     14156     14153     14156     14159     14160
     14153     14156     14159     14161     14153     14156     14159     14162
     14154     14153     14156     14157     14154     14153     14156     14158
     14154     14153     14156     14159     14155     14153     14156     14157
     14155     14153     14156     14158     14155     14153     14156     14159
     14156     14159     14162     14163     14156     14159     14162     14164
     14156     14159     14162     14165     14157     14156     14159     14160
     14157     14156     14159     14161     14157     14156     14159     14162
     14158     14156     14159     14160     14158     14156     14159     14161
     14158     14156     14159     14162     14159     14162     14165     14166
     14159     14162     14165     14167     14159     14162     14165     14168
     14160     14159     14162     14163     14160     14159     14162     14164
     14160     14159     14162     14165     14161     14159     14162     14163
     14161     14159     14162     14164     14161     14159     14162     14165
     14162     14165     14168     14169     14162     14165     14168     14170
     14162     14165     14168     14171     14163     14162     14165     14166
     14163     14162     14165     14167     14163     14162     14165     14168
     14164     14162     14165     14166     14164     14162     14165     14167
     14164     14162     14165     14168     14165     14168     14171     14172
     14165     14168     14171     14173     14165     14168     14171     14174
     14166     14165     14168     14169     14166     14165     14168     14170
     14166     14165     14168     14171     14167     14165     14168     14169
     14167     14165     14168     14170     14167     14165     14168     14171
     14168     14171     14174     14175     14168     14171     14174     14176
     14168     14171     14174     14177     14169     14168     14171     14172
     14169     14168     14171     14173     14169     14168     14171     14174
     14170     14168     14171     14172     14170     14168     14171     14173
     14170     14168     14171     14174     14172     14171     14174     14175
     14172     14171     14174     14176     14172     14171     14174     14177
     14173     14171     14174     14175     14173     14171     14174     14176
     14173     14171     14174     14177     14178     14181     14184     14185
     14178     14181     14184     14186     14178     14181     14184     14187
     14179     14178     14181     14182     14179     14178     14181     14183
     14179     14178     14181     14184     14180     14178     14181     14182
     14180     14178     14181     14183     14180     14178     14181     14184
     14181     14184     14187     14188     14181     14184     14187     14189
     14181     14184     14187     14190     14182     14181     14184     14185
     14182     14181     14184     14186     14182     14181     14184     14187
     14183     14181     14184     14185     14183     14181     14184     14186
     14183     14181     14184     14187     14184     14187     14190     14191
     14184     14187     14190     14192     14184     14187     14190     14193
     14185     14184     14187     14188     14185     14184     14187     14189
     14185     14184     14187     14190     14186     14184     14187     14188
     14186     14184     14187     14189     14186     14184     14187     14190
     14187     14190     14193     14194     14187     14190     14193     14195
     14187     14190     14193     14196     14188     14187     14190     14191
     14188     14187     14190     14192     14188     14187     14190     14193
     14189     14187     14190     14191     14189     14187     14190     14192
     14189     14187     14190     14193     14190     14193     14196     14197
     14190     14193     14196     14198     14190     14193     14196     14199
     14191     14190     14193     14194     14191     14190     14193     14195
     14191     14190     14193     14196     14192     14190     14193     14194
     14192     14190     14193     14195     14192     14190     14193     14196
     14193     14196     14199     14200     14193     14196     14199     14201
     14193     14196     14199     14202     14194     14193     14196     14197
     14194     14193     14196     14198     14194     14193     14196     14199
     14195     14193     14196     14197     14195     14193     14196     14198
     14195     14193     14196     14199     14196     14199     14202     14203
     14196     14199     14202     14204     14196     14199     14202     14205
     14197     14196     14199     14200     14197     14196     14199     14201
     14197     14196     14199     14202     14198     14196     14199     14200
     14198     14196     14199     14201     14198     14196     14199     14202
     14199     14202     14205     14206     14199     14202     14205     14207
     14199     14202     14205     14208     14200     14199     14202     14203
     14200     14199     14202     14204     14200     14199     14202     14205
     14201     14199     14202     14203     14201     14199     14202     14204
     14201     14199     14202     14205     14202     14205     14208     14209
     14202     14205     14208     14210     14202     14205     14208     14211
     14203     14202     14205     14206     14203     14202     14205     14207
     14203     14202     14205     14208     14204     14202     14205     14206
     14204     14202     14205     14207     14204     14202     14205     14208
     14205     14208     14211     14212     14205     14208     14211     14213
     14205     14208     14211     14214     14206     14205     14208     14209
     14206     14205     14208     14210     14206     14205     14208     14211
     14207     14205     14208     14209     14207     14205     14208     14210
     14207     14205     14208     14211     14208     14211     14214     14215
     14208     14211     14214     14216     14208     14211     14214     14217
     14209     14208     14211     14212     14209     14208     14211     14213
     14209     14208     14211     14214     14210     14208     14211     14212
     14210     14208     14211     14213     14210     14208     14211     14214
     14211     14214     14217     14218     14211     14214     14217     14219
     14211     14214     14217     14220     14212     14211     14214     14215
     14212     14211     14214     14216     14212     14211     14214     14217
     14213     14211     14214     14215     14213     14211     14214     14216
     14213     14211     14214     14217     14215     14214     14217     14218
     14215     14214     14217     14219     14215     14214     14217     14220
     14216     14214     14217     14218     14216     14214     14217     14219
     14216     14214     14217     14220     14221     14222     14237     14238
     14221     14222     14237     14239     14221     14222     14237     14243
     14222     14221     14225     14226     14222     14221     14225     14227
     14222     14221     14225     14228     14222     14221     14229     14230
     14222     14221     14229     14231     14222     14221     14229     14232
     14222     14221     14233     14234     14222     14221     14233     14235
     14222     14221     14233     14236     14222     14237     14243     14240
     14223     14222     14221     14225     14223     14222     14221     14229
     14223     14222     14221     14233     14223     14222     14237     14238
     14223     14222     14237     14239     14223     14222     14237     14243
     14224     14222     14221     14225     14224     14222     14221     14229
     14224     14222     14221     14233     14224     14222     14237     14238
     14224     14222     14237     14239     14224     14222     14237     14243
     14225     14221     14222     14237     14225     14221     14229     14230
     14225     14221     14229     14231     14225     14221     14229     14232
     14225     14221     14233     14234     14225     14221     14233     14235
     14225     14221     14233     14236     14226     14225     14221     14229
     14226     14225     14221     14233     14227     14225     14221     14229
     14227     14225     14221     14233     14228     14225     14221     14229
     14228     14225     14221     14233     14229     14221     14222     14237
     14229     14221     14233     14234     14229     14221     14233     14235
     14229     14221     14233     14236     14230     14229     14221     14233
     14231     14229     14221     14233     14232     14229     14221     14233
     14233     14221     14222     14237     14237     14243     14240     14241
     14237     14243     14240     14242     14237     14243     14240     14244
     14238     14237     14243     14240     14239     14237     14243     14240
     14240     14244     14245     14246     14240     14244     14245     14247
     14240     14244     14245     14248     14241     14240     14244     14245
     14242     14240     14244     14245     14243     14240     14244     14245
     14244     14245     14248     14249     14244     14245     14248     14250
     14244     14245     14248     14256     14245     14248     14250     14251
     14245     14248     14256     14257     14245     14248     14256     14258
     14245     14248     14256     14259     14246     14245     14248     14249
     14246     14245     14248     14250     14246     14245     14248     14256
     14247     14245     14248     14249     14247     14245     14248     14250
     14247     14245     14248     14256     14248     14250     14251     14252
     14248     14250     14251     14253     14248     14256     14259     14260
     14249     14248     14250     14251     14249     14248     14256     14257
     14249     14248     14256     14258     14249     14248     14256     14259
     14250     14248     14256     14257     14250     14248     14256     14258
     14250     14248     14256     14259     14250     14251     14253     14254
     14250     14251     14253     14255     14250     14251     14253     14265
     14251     14250     14248     14256     14251     14253     14265     14266
     14251     14253     14265     14267     14251     14253     14265     14268
     14252     14251     14253     14254     14252     14251     14253     14255
     14252     14251     14253     14265     14253     14265     14268     14269
     14253     14265     14268     14270     14253     14265     14268     14271
     14254     14253     14265     14266     14254     14253     14265     14267
     14254     14253     14265     14268     14255     14253     14265     14266
     14255     14253     14265     14267     14255     14253     14265     14268
     14256     14259     14260     14261     14256     14259     14260     14262
     14257     14256     14259     14260     14258     14256     14259     14260
     14259     14260     14262     14263     14259     14260     14262     14264
     14259     14260     14262     14312     14260     14262     14312     14313
     14260     14262     14312     14314     14260     14262     14312     14315
     14261     14260     14262     14263     14261     14260     14262     14264
     14261     14260     14262     14312     14262     14312     14315     14316
     14262     14312     14315     14317     14262     14312     14315     14318
     14263     14262     14312     14313     14263     14262     14312     14314
     14263     14262     14312     14315     14264     14262     14312     14313
     14264     14262     14312     14314     14264     14262     14312     14315
     14265     14268     14271     14272     14265     14268     14271     14273
     14265     14268     14271     14274     14266     14265     14268     14269
     14266     14265     14268     14270     14266     14265     14268     14271
     14267     14265     14268     14269     14267     14265     14268     14270
     14267     14265     14268     14271     14268     14271     14274     14275
     14268     14271     14274     14276     14268     14271     14274     14277
     14269     14268     14271     14272     14269     14268     14271     14273
     14269     14268     14271     14274     14270     14268     14271     14272
     14270     14268     14271     14273     14270     14268     14271     14274
     14271     14274     14277     14278     14271     14274     14277     14279
     14271     14274     14277     14280     14272     14271     14274     14275
     14272     14271     14274     14276     14272     14271     14274     14277
     14273     14271     14274     14275     14273     14271     14274     14276
     14273     14271     14274     14277     14274     14277     14280     14281
     14274     14277     14280     14282     14274     14277     14280     14283
     14275     14274     14277     14278     14275     14274     14277     14279
     14275     14274     14277     14280     14276     14274     14277     14278
     14276     14274     14277     14279     14276     14274     14277     14280
     14277     14280     14283     14284     14277     14280     14283     14285
     14278     14277     14280     14281     14278     14277     14280     14282
     14278     14277     14280     14283     14279     14277     14280     14281
     14279     14277     14280     14282     14279     14277     14280     14283
     14280     14283     14285     14286     14280     14283     14285     14287
     14281     14280     14283     14284     14281     14280     14283     14285
     14282     14280     14283     14284     14282     14280     14283     14285
     14283     14285     14287     14288     14283     14285     14287     14289
     14283     14285     14287     14290     14284     14283     14285     14286
     14284     14283     14285     14287     14285     14287     14290     14291
     14285     14287     14290     14292     14285     14287     14290     14293
     14286     14285     14287     14288     14286     14285     14287     14289
     14286     14285     14287     14290     14287     14290     14293     14294
     14287     14290     14293     14295     14287     14290     14293     14296
     14288     14287     14290     14291     14288     14287     14290     14292
     14288     14287     14290     14293     14289     14287     14290     14291
     14289     14287     14290     14292     14289     14287     14290     14293
     14290     14293     14296     14297     14290     14293     14296     14298
     14290     14293     14296     14299     14291     14290     14293     14294
     14291     14290     14293     14295     14291     14290     14293     14296
     14292     14290     14293     14294     14292     14290     14293     14295
     14292     14290     14293     14296     14293     14296     14299     14300
     14293     14296     14299     14301     14293     14296     14299     14302
     14294     14293     14296     14297     14294     14293     14296     14298
     14294     14293     14296     14299     14295     14293     14296     14297
     14295     14293     14296     14298     14295     14293     14296     14299
     14296     14299     14302     14303     14296     14299     14302     14304
     14296     14299     14302     14305     14297     14296     14299     14300
     14297     14296     14299     14301     14297     14296     14299     14302
     14298     14296     14299     14300     14298     14296     14299     14301
     14298     14296     14299     14302     14299     14302     14305     14306
     14299     14302     14305     14307     14299     14302     14305     14308
     14300     14299     14302     14303     14300     14299     14302     14304
     14300     14299     14302     14305     14301     14299     14302     14303
     14301     14299     14302     14304     14301     14299     14302     14305
     14302     14305     14308     14309     14302     14305     14308     14310
     14302     14305     14308     14311     14303     14302     14305     14306
     14303     14302     14305     14307     14303     14302     14305     14308
     14304     14302     14305     14306     14304     14302     14305     14307
     14304     14302     14305     14308     14306     14305     14308     14309
     14306     14305     14308     14310     14306     14305     14308     14311
     14307     14305     14308     14309     14307     14305     14308     14310
     14307     14305     14308     14311     14312     14315     14318     14319
     14312     14315     14318     14320     14312     14315     14318     14321
     14313     14312     14315     14316     14313     14312     14315     14317
     14313     14312     14315     14318     14314     14312     14315     14316
     14314     14312     14315     14317     14314     14312     14315     14318
     14315     14318     14321     14322     14315     14318     14321     14323
     14315     14318     14321     14324     14316     14315     14318     14319
     14316     14315     14318     14320     14316     14315     14318     14321
     14317     14315     14318     14319     14317     14315     14318     14320
     14317     14315     14318     14321     14318     14321     14324     14325
     14318     14321     14324     14326     14318     14321     14324     14327
     14319     14318     14321     14322     14319     14318     14321     14323
     14319     14318     14321     14324     14320     14318     14321     14322
     14320     14318     14321     14323     14320     14318     14321     14324
     14321     14324     14327     14328     14321     14324     14327     14329
     14321     14324     14327     14330     14322     14321     14324     14325
     14322     14321     14324     14326     14322     14321     14324     14327
     14323     14321     14324     14325     14323     14321     14324     14326
     14323     14321     14324     14327     14324     14327     14330     14331
     14324     14327     14330     14332     14324     14327     14330     14333
     14325     14324     14327     14328     14325     14324     14327     14329
     14325     14324     14327     14330     14326     14324     14327     14328
     14326     14324     14327     14329     14326     14324     14327     14330
     14327     14330     14333     14334     14327     14330     14333     14335
     14327     14330     14333     14336     14328     14327     14330     14331
     14328     14327     14330     14332     14328     14327     14330     14333
     14329     14327     14330     14331     14329     14327     14330     14332
     14329     14327     14330     14333     14330     14333     14336     14337
     14330     14333     14336     14338     14330     14333     14336     14339
     14331     14330     14333     14334     14331     14330     14333     14335
     14331     14330     14333     14336     14332     14330     14333     14334
     14332     14330     14333     14335     14332     14330     14333     14336
     14333     14336     14339     14340     14333     14336     14339     14341
     14333     14336     14339     14342     14334     14333     14336     14337
     14334     14333     14336     14338     14334     14333     14336     14339
     14335     14333     14336     14337     14335     14333     14336     14338
     14335     14333     14336     14339     14336     14339     14342     14343
     14336     14339     14342     14344     14336     14339     14342     14345
     14337     14336     14339     14340     14337     14336     14339     14341
     14337     14336     14339     14342     14338     14336     14339     14340
     14338     14336     14339     14341     14338     14336     14339     14342
     14339     14342     14345     14346     14339     14342     14345     14347
     14339     14342     14345     14348     14340     14339     14342     14343
     14340     14339     14342     14344     14340     14339     14342     14345
     14341     14339     14342     14343     14341     14339     14342     14344
     14341     14339     14342     14345     14342     14345     14348     14349
     14342     14345     14348     14350     14342     14345     14348     14351
     14343     14342     14345     14346     14343     14342     14345     14347
     14343     14342     14345     14348     14344     14342     14345     14346
     14344     14342     14345     14347     14344     14342     14345     14348
     14345     14348     14351     14352     14345     14348     14351     14353
     14345     14348     14351     14354     14346     14345     14348     14349
     14346     14345     14348     14350     14346     14345     14348     14351
     14347     14345     14348     14349     14347     14345     14348     14350
     14347     14345     14348     14351     14349     14348     14351     14352
     14349     14348     14351     14353     14349     14348     14351     14354
     14350     14348     14351     14352     14350     14348     14351     14353
     14350     14348     14351     14354     14355     14356     14371     14372
     14355     14356     14371     14373     14355     14356     14371     14377
     14356     14355     14359     14360     14356     14355     14359     14361
     14356     14355     14359     14362     14356     14355     14363     14364
     14356     14355     14363     14365     14356     14355     14363     14366
     14356     14355     14367     14368     14356     14355     14367     14369
     14356     14355     14367     14370     14356     14371     14377     14374
     14357     14356     14355     14359     14357     14356     14355     14363
     14357     14356     14355     14367     14357     14356     14371     14372
     14357     14356     14371     14373     14357     14356     14371     14377
     14358     14356     14355     14359     14358     14356     14355     14363
     14358     14356     14355     14367     14358     14356     14371     14372
     14358     14356     14371     14373     14358     14356     14371     14377
     14359     14355     14356     14371     14359     14355     14363     14364
     14359     14355     14363     14365     14359     14355     14363     14366
     14359     14355     14367     14368     14359     14355     14367     14369
     14359     14355     14367     14370     14360     14359     14355     14363
     14360     14359     14355     14367     14361     14359     14355     14363
     14361     14359     14355     14367     14362     14359     14355     14363
     14362     14359     14355     14367     14363     14355     14356     14371
     14363     14355     14367     14368     14363     14355     14367     14369
     14363     14355     14367     14370     14364     14363     14355     14367
     14365     14363     14355     14367     14366     14363     14355     14367
     14367     14355     14356     14371     14371     14377     14374     14375
     14371     14377     14374     14376     14371     14377     14374     14378
     14372     14371     14377     14374     14373     14371     14377     14374
     14374     14378     14379     14380     14374     14378     14379     14381
     14374     14378     14379     14382     14375     14374     14378     14379
     14376     14374     14378     14379     14377     14374     14378     14379
     14378     14379     14382     14383     14378     14379     14382     14384
     14378     14379     14382     14390     14379     14382     14384     14385
     14379     14382     14390     14391     14379     14382     14390     14392
     14379     14382     14390     14393     14380     14379     14382     14383
     14380     14379     14382     14384     14380     14379     14382     14390
     14381     14379     14382     14383     14381     14379     14382     14384
     14381     14379     14382     14390     14382     14384     14385     14386
     14382     14384     14385     14387     14382     14390     14393     14394
     14383     14382     14384     14385     14383     14382     14390     14391
     14383     14382     14390     14392     14383     14382     14390     14393
     14384     14382     14390     14391     14384     14382     14390     14392
     14384     14382     14390     14393     14384     14385     14387     14388
     14384     14385     14387     14389     14384     14385     14387     14399
     14385     14384     14382     14390     14385     14387     14399     14400
     14385     14387     14399     14401     14385     14387     14399     14402
     14386     14385     14387     14388     14386     14385     14387     14389
     14386     14385     14387     14399     14387     14399     14402     14403
     14387     14399     14402     14404     14387     14399     14402     14405
     14388     14387     14399     14400     14388     14387     14399     14401
     14388     14387     14399     14402     14389     14387     14399     14400
     14389     14387     14399     14401     14389     14387     14399     14402
     14390     14393     14394     14395     14390     14393     14394     14396
     14391     14390     14393     14394     14392     14390     14393     14394
     14393     14394     14396     14397     14393     14394     14396     14398
     14393     14394     14396     14446     14394     14396     14446     14447
     14394     14396     14446     14448     14394     14396     14446     14449
     14395     14394     14396     14397     14395     14394     14396     14398
     14395     14394     14396     14446     14396     14446     14449     14450
     14396     14446     14449     14451     14396     14446     14449     14452
     14397     14396     14446     14447     14397     14396     14446     14448
     14397     14396     14446     14449     14398     14396     14446     14447
     14398     14396     14446     14448     14398     14396     14446     14449
     14399     14402     14405     14406     14399     14402     14405     14407
     14399     14402     14405     14408     14400     14399     14402     14403
     14400     14399     14402     14404     14400     14399     14402     14405
     14401     14399     14402     14403     14401     14399     14402     14404
     14401     14399     14402     14405     14402     14405     14408     14409
     14402     14405     14408     14410     14402     14405     14408     14411
     14403     14402     14405     14406     14403     14402     14405     14407
     14403     14402     14405     14408     14404     14402     14405     14406
     14404     14402     14405     14407     14404     14402     14405     14408
     14405     14408     14411     14412     14405     14408     14411     14413
     14405     14408     14411     14414     14406     14405     14408     14409
     14406     14405     14408     14410     14406     14405     14408     14411
     14407     14405     14408     14409     14407     14405     14408     14410
     14407     14405     14408     14411     14408     14411     14414     14415
     14408     14411     14414     14416     14408     14411     14414     14417
     14409     14408     14411     14412     14409     14408     14411     14413
     14409     14408     14411     14414     14410     14408     14411     14412
     14410     14408     14411     14413     14410     14408     14411     14414
     14411     14414     14417     14418     14411     14414     14417     14419
     14412     14411     14414     14415     14412     14411     14414     14416
     14412     14411     14414     14417     14413     14411     14414     14415
     14413     14411     14414     14416     14413     14411     14414     14417
     14414     14417     14419     14420     14414     14417     14419     14421
     14415     14414     14417     14418     14415     14414     14417     14419
     14416     14414     14417     14418     14416     14414     14417     14419
     14417     14419     14421     14422     14417     14419     14421     14423
     14417     14419     14421     14424     14418     14417     14419     14420
     14418     14417     14419     14421     14419     14421     14424     14425
     14419     14421     14424     14426     14419     14421     14424     14427
     14420     14419     14421     14422     14420     14419     14421     14423
     14420     14419     14421     14424     14421     14424     14427     14428
     14421     14424     14427     14429     14421     14424     14427     14430
     14422     14421     14424     14425     14422     14421     14424     14426
     14422     14421     14424     14427     14423     14421     14424     14425
     14423     14421     14424     14426     14423     14421     14424     14427
     14424     14427     14430     14431     14424     14427     14430     14432
     14424     14427     14430     14433     14425     14424     14427     14428
     14425     14424     14427     14429     14425     14424     14427     14430
     14426     14424     14427     14428     14426     14424     14427     14429
     14426     14424     14427     14430     14427     14430     14433     14434
     14427     14430     14433     14435     14427     14430     14433     14436
     14428     14427     14430     14431     14428     14427     14430     14432
     14428     14427     14430     14433     14429     14427     14430     14431
     14429     14427     14430     14432     14429     14427     14430     14433
     14430     14433     14436     14437     14430     14433     14436     14438
     14430     14433     14436     14439     14431     14430     14433     14434
     14431     14430     14433     14435     14431     14430     14433     14436
     14432     14430     14433     14434     14432     14430     14433     14435
     14432     14430     14433     14436     14433     14436     14439     14440
     14433     14436     14439     14441     14433     14436     14439     14442
     14434     14433     14436     14437     14434     14433     14436     14438
     14434     14433     14436     14439     14435     14433     14436     14437
     14435     14433     14436     14438     14435     14433     14436     14439
     14436     14439     14442     14443     14436     14439     14442     14444
     14436     14439     14442     14445     14437     14436     14439     14440
     14437     14436     14439     14441     14437     14436     14439     14442
     14438     14436     14439     14440     14438     14436     14439     14441
     14438     14436     14439     14442     14440     14439     14442     14443
     14440     14439     14442     14444     14440     14439     14442     14445
     14441     14439     14442     14443     14441     14439     14442     14444
     14441     14439     14442     14445     14446     14449     14452     14453
     14446     14449     14452     14454     14446     14449     14452     14455
     14447     14446     14449     14450     14447     14446     14449     14451
     14447     14446     14449     14452     14448     14446     14449     14450
     14448     14446     14449     14451     14448     14446     14449     14452
     14449     14452     14455     14456     14449     14452     14455     14457
     14449     14452     14455     14458     14450     14449     14452     14453
     14450     14449     14452     14454     14450     14449     14452     14455
     14451     14449     14452     14453     14451     14449     14452     14454
     14451     14449     14452     14455     14452     14455     14458     14459
     14452     14455     14458     14460     14452     14455     14458     14461
     14453     14452     14455     14456     14453     14452     14455     14457
     14453     14452     14455     14458     14454     14452     14455     14456
     14454     14452     14455     14457     14454     14452     14455     14458
     14455     14458     14461     14462     14455     14458     14461     14463
     14455     14458     14461     14464     14456     14455     14458     14459
     14456     14455     14458     14460     14456     14455     14458     14461
     14457     14455     14458     14459     14457     14455     14458     14460
     14457     14455     14458     14461     14458     14461     14464     14465
     14458     14461     14464     14466     14458     14461     14464     14467
     14459     14458     14461     14462     14459     14458     14461     14463
     14459     14458     14461     14464     14460     14458     14461     14462
     14460     14458     14461     14463     14460     14458     14461     14464
     14461     14464     14467     14468     14461     14464     14467     14469
     14461     14464     14467     14470     14462     14461     14464     14465
     14462     14461     14464     14466     14462     14461     14464     14467
     14463     14461     14464     14465     14463     14461     14464     14466
     14463     14461     14464     14467     14464     14467     14470     14471
     14464     14467     14470     14472     14464     14467     14470     14473
     14465     14464     14467     14468     14465     14464     14467     14469
     14465     14464     14467     14470     14466     14464     14467     14468
     14466     14464     14467     14469     14466     14464     14467     14470
     14467     14470     14473     14474     14467     14470     14473     14475
     14467     14470     14473     14476     14468     14467     14470     14471
     14468     14467     14470     14472     14468     14467     14470     14473
     14469     14467     14470     14471     14469     14467     14470     14472
     14469     14467     14470     14473     14470     14473     14476     14477
     14470     14473     14476     14478     14470     14473     14476     14479
     14471     14470     14473     14474     14471     14470     14473     14475
     14471     14470     14473     14476     14472     14470     14473     14474
     14472     14470     14473     14475     14472     14470     14473     14476
     14473     14476     14479     14480     14473     14476     14479     14481
     14473     14476     14479     14482     14474     14473     14476     14477
     14474     14473     14476     14478     14474     14473     14476     14479
     14475     14473     14476     14477     14475     14473     14476     14478
     14475     14473     14476     14479     14476     14479     14482     14483
     14476     14479     14482     14484     14476     14479     14482     14485
     14477     14476     14479     14480     14477     14476     14479     14481
     14477     14476     14479     14482     14478     14476     14479     14480
     14478     14476     14479     14481     14478     14476     14479     14482
     14479     14482     14485     14486     14479     14482     14485     14487
     14479     14482     14485     14488     14480     14479     14482     14483
     14480     14479     14482     14484     14480     14479     14482     14485
     14481     14479     14482     14483     14481     14479     14482     14484
     14481     14479     14482     14485     14483     14482     14485     14486
     14483     14482     14485     14487     14483     14482     14485     14488
     14484     14482     14485     14486     14484     14482     14485     14487
     14484     14482     14485     14488     14489     14490     14505     14506
     14489     14490     14505     14507     14489     14490     14505     14511
     14490     14489     14493     14494     14490     14489     14493     14495
     14490     14489     14493     14496     14490     14489     14497     14498
     14490     14489     14497     14499     14490     14489     14497     14500
     14490     14489     14501     14502     14490     14489     14501     14503
     14490     14489     14501     14504     14490     14505     14511     14508
     14491     14490     14489     14493     14491     14490     14489     14497
     14491     14490     14489     14501     14491     14490     14505     14506
     14491     14490     14505     14507     14491     14490     14505     14511
     14492     14490     14489     14493     14492     14490     14489     14497
     14492     14490     14489     14501     14492     14490     14505     14506
     14492     14490     14505     14507     14492     14490     14505     14511
     14493     14489     14490     14505     14493     14489     14497     14498
     14493     14489     14497     14499     14493     14489     14497     14500
     14493     14489     14501     14502     14493     14489     14501     14503
     14493     14489     14501     14504     14494     14493     14489     14497
     14494     14493     14489     14501     14495     14493     14489     14497
     14495     14493     14489     14501     14496     14493     14489     14497
     14496     14493     14489     14501     14497     14489     14490     14505
     14497     14489     14501     14502     14497     14489     14501     14503
     14497     14489     14501     14504     14498     14497     14489     14501
     14499     14497     14489     14501     14500     14497     14489     14501
     14501     14489     14490     14505     14505     14511     14508     14509
     14505     14511     14508     14510     14505     14511     14508     14512
     14506     14505     14511     14508     14507     14505     14511     14508
     14508     14512     14513     14514     14508     14512     14513     14515
     14508     14512     14513     14516     14509     14508     14512     14513
     14510     14508     14512     14513     14511     14508     14512     14513
     14512     14513     14516     14517     14512     14513     14516     14518
     14512     14513     14516     14524     14513     14516     14518     14519
     14513     14516     14524     14525     14513     14516     14524     14526
     14513     14516     14524     14527     14514     14513     14516     14517
     14514     14513     14516     14518     14514     14513     14516     14524
     14515     14513     14516     14517     14515     14513     14516     14518
     14515     14513     14516     14524     14516     14518     14519     14520
     14516     14518     14519     14521     14516     14524     14527     14528
     14517     14516     14518     14519     14517     14516     14524     14525
     14517     14516     14524     14526     14517     14516     14524     14527
     14518     14516     14524     14525     14518     14516     14524     14526
     14518     14516     14524     14527     14518     14519     14521     14522
     14518     14519     14521     14523     14518     14519     14521     14533
     14519     14518     14516     14524     14519     14521     14533     14534
     14519     14521     14533     14535     14519     14521     14533     14536
     14520     14519     14521     14522     14520     14519     14521     14523
     14520     14519     14521     14533     14521     14533     14536     14537
     14521     14533     14536     14538     14521     14533     14536     14539
     14522     14521     14533     14534     14522     14521     14533     14535
     14522     14521     14533     14536     14523     14521     14533     14534
     14523     14521     14533     14535     14523     14521     14533     14536
     14524     14527     14528     14529     14524     14527     14528     14530
     14525     14524     14527     14528     14526     14524     14527     14528
     14527     14528     14530     14531     14527     14528     14530     14532
     14527     14528     14530     14580     14528     14530     14580     14581
     14528     14530     14580     14582     14528     14530     14580     14583
     14529     14528     14530     14531     14529     14528     14530     14532
     14529     14528     14530     14580     14530     14580     14583     14584
     14530     14580     14583     14585     14530     14580     14583     14586
     14531     14530     14580     14581     14531     14530     14580     14582
     14531     14530     14580     14583     14532     14530     14580     14581
     14532     14530     14580     14582     14532     14530     14580     14583
     14533     14536     14539     14540     14533     14536     14539     14541
     14533     14536     14539     14542     14534     14533     14536     14537
     14534     14533     14536     14538     14534     14533     14536     14539
     14535     14533     14536     14537     14535     14533     14536     14538
     14535     14533     14536     14539     14536     14539     14542     14543
     14536     14539     14542     14544     14536     14539     14542     14545
     14537     14536     14539     14540     14537     14536     14539     14541
     14537     14536     14539     14542     14538     14536     14539     14540
     14538     14536     14539     14541     14538     14536     14539     14542
     14539     14542     14545     14546     14539     14542     14545     14547
     14539     14542     14545     14548     14540     14539     14542     14543
     14540     14539     14542     14544     14540     14539     14542     14545
     14541     14539     14542     14543     14541     14539     14542     14544
     14541     14539     14542     14545     14542     14545     14548     14549
     14542     14545     14548     14550     14542     14545     14548     14551
     14543     14542     14545     14546     14543     14542     14545     14547
     14543     14542     14545     14548     14544     14542     14545     14546
     14544     14542     14545     14547     14544     14542     14545     14548
     14545     14548     14551     14552     14545     14548     14551     14553
     14546     14545     14548     14549     14546     14545     14548     14550
     14546     14545     14548     14551     14547     14545     14548     14549
     14547     14545     14548     14550     14547     14545     14548     14551
     14548     14551     14553     14554     14548     14551     14553     14555
     14549     14548     14551     14552     14549     14548     14551     14553
     14550     14548     14551     14552     14550     14548     14551     14553
     14551     14553     14555     14556     14551     14553     14555     14557
     14551     14553     14555     14558     14552     14551     14553     14554
     14552     14551     14553     14555     14553     14555     14558     14559
     14553     14555     14558     14560     14553     14555     14558     14561
     14554     14553     14555     14556     14554     14553     14555     14557
     14554     14553     14555     14558     14555     14558     14561     14562
     14555     14558     14561     14563     14555     14558     14561     14564
     14556     14555     14558     14559     14556     14555     14558     14560
     14556     14555     14558     14561     14557     14555     14558     14559
     14557     14555     14558     14560     14557     14555     14558     14561
     14558     14561     14564     14565     14558     14561     14564     14566
     14558     14561     14564     14567     14559     14558     14561     14562
     14559     14558     14561     14563     14559     14558     14561     14564
     14560     14558     14561     14562     14560     14558     14561     14563
     14560     14558     14561     14564     14561     14564     14567     14568
     14561     14564     14567     14569     14561     14564     14567     14570
     14562     14561     14564     14565     14562     14561     14564     14566
     14562     14561     14564     14567     14563     14561     14564     14565
     14563     14561     14564     14566     14563     14561     14564     14567
     14564     14567     14570     14571     14564     14567     14570     14572
     14564     14567     14570     14573     14565     14564     14567     14568
     14565     14564     14567     14569     14565     14564     14567     14570
     14566     14564     14567     14568     14566     14564     14567     14569
     14566     14564     14567     14570     14567     14570     14573     14574
     14567     14570     14573     14575     14567     14570     14573     14576
     14568     14567     14570     14571     14568     14567     14570     14572
     14568     14567     14570     14573     14569     14567     14570     14571
     14569     14567     14570     14572     14569     14567     14570     14573
     14570     14573     14576     14577     14570     14573     14576     14578
     14570     14573     14576     14579     14571     14570     14573     14574
     14571     14570     14573     14575     14571     14570     14573     14576
     14572     14570     14573     14574     14572     14570     14573     14575
     14572     14570     14573     14576     14574     14573     14576     14577
     14574     14573     14576     14578     14574     14573     14576     14579
     14575     14573     14576     14577     14575     14573     14576     14578
     14575     14573     14576     14579     14580     14583     14586     14587
     14580     14583     14586     14588     14580     14583     14586     14589
     14581     14580     14583     14584     14581     14580     14583     14585
     14581     14580     14583     14586     14582     14580     14583     14584
     14582     14580     14583     14585     14582     14580     14583     14586
     14583     14586     14589     14590     14583     14586     14589     14591
     14583     14586     14589     14592     14584     14583     14586     14587
     14584     14583     14586     14588     14584     14583     14586     14589
     14585     14583     14586     14587     14585     14583     14586     14588
     14585     14583     14586     14589     14586     14589     14592     14593
     14586     14589     14592     14594     14586     14589     14592     14595
     14587     14586     14589     14590     14587     14586     14589     14591
     14587     14586     14589     14592     14588     14586     14589     14590
     14588     14586     14589     14591     14588     14586     14589     14592
     14589     14592     14595     14596     14589     14592     14595     14597
     14589     14592     14595     14598     14590     14589     14592     14593
     14590     14589     14592     14594     14590     14589     14592     14595
     14591     14589     14592     14593     14591     14589     14592     14594
     14591     14589     14592     14595     14592     14595     14598     14599
     14592     14595     14598     14600     14592     14595     14598     14601
     14593     14592     14595     14596     14593     14592     14595     14597
     14593     14592     14595     14598     14594     14592     14595     14596
     14594     14592     14595     14597     14594     14592     14595     14598
     14595     14598     14601     14602     14595     14598     14601     14603
     14595     14598     14601     14604     14596     14595     14598     14599
     14596     14595     14598     14600     14596     14595     14598     14601
     14597     14595     14598     14599     14597     14595     14598     14600
     14597     14595     14598     14601     14598     14601     14604     14605
     14598     14601     14604     14606     14598     14601     14604     14607
     14599     14598     14601     14602     14599     14598     14601     14603
     14599     14598     14601     14604     14600     14598     14601     14602
     14600     14598     14601     14603     14600     14598     14601     14604
     14601     14604     14607     14608     14601     14604     14607     14609
     14601     14604     14607     14610     14602     14601     14604     14605
     14602     14601     14604     14606     14602     14601     14604     14607
     14603     14601     14604     14605     14603     14601     14604     14606
     14603     14601     14604     14607     14604     14607     14610     14611
     14604     14607     14610     14612     14604     14607     14610     14613
     14605     14604     14607     14608     14605     14604     14607     14609
     14605     14604     14607     14610     14606     14604     14607     14608
     14606     14604     14607     14609     14606     14604     14607     14610
     14607     14610     14613     14614     14607     14610     14613     14615
     14607     14610     14613     14616     14608     14607     14610     14611
     14608     14607     14610     14612     14608     14607     14610     14613
     14609     14607     14610     14611     14609     14607     14610     14612
     14609     14607     14610     14613     14610     14613     14616     14617
     14610     14613     14616     14618     14610     14613     14616     14619
     14611     14610     14613     14614     14611     14610     14613     14615
     14611     14610     14613     14616     14612     14610     14613     14614
     14612     14610     14613     14615     14612     14610     14613     14616
     14613     14616     14619     14620     14613     14616     14619     14621
     14613     14616     14619     14622     14614     14613     14616     14617
     14614     14613     14616     14618     14614     14613     14616     14619
     14615     14613     14616     14617     14615     14613     14616     14618
     14615     14613     14616     14619     14617     14616     14619     14620
     14617     14616     14619     14621     14617     14616     14619     14622
     14618     14616     14619     14620     14618     14616     14619     14621
     14618     14616     14619     14622     14623     14624     14639     14640
     14623     14624     14639     14641     14623     14624     14639     14645
     14624     14623     14627     14628     14624     14623     14627     14629
     14624     14623     14627     14630     14624     14623     14631     14632
     14624     14623     14631     14633     14624     14623     14631     14634
     14624     14623     14635     14636     14624     14623     14635     14637
     14624     14623     14635     14638     14624     14639     14645     14642
     14625     14624     14623     14627     14625     14624     14623     14631
     14625     14624     14623     14635     14625     14624     14639     14640
     14625     14624     14639     14641     14625     14624     14639     14645
     14626     14624     14623     14627     14626     14624     14623     14631
     14626     14624     14623     14635     14626     14624     14639     14640
     14626     14624     14639     14641     14626     14624     14639     14645
     14627     14623     14624     14639     14627     14623     14631     14632
     14627     14623     14631     14633     14627     14623     14631     14634
     14627     14623     14635     14636     14627     14623     14635     14637
     14627     14623     14635     14638     14628     14627     14623     14631
     14628     14627     14623     14635     14629     14627     14623     14631
     14629     14627     14623     14635     14630     14627     14623     14631
     14630     14627     14623     14635     14631     14623     14624     14639
     14631     14623     14635     14636     14631     14623     14635     14637
     14631     14623     14635     14638     14632     14631     14623     14635
     14633     14631     14623     14635     14634     14631     14623     14635
     14635     14623     14624     14639     14639     14645     14642     14643
     14639     14645     14642     14644     14639     14645     14642     14646
     14640     14639     14645     14642     14641     14639     14645     14642
     14642     14646     14647     14648     14642     14646     14647     14649
     14642     14646     14647     14650     14643     14642     14646     14647
     14644     14642     14646     14647     14645     14642     14646     14647
     14646     14647     14650     14651     14646     14647     14650     14652
     14646     14647     14650     14658     14647     14650     14652     14653
     14647     14650     14658     14659     14647     14650     14658     14660
     14647     14650     14658     14661     14648     14647     14650     14651
     14648     14647     14650     14652     14648     14647     14650     14658
     14649     14647     14650     14651     14649     14647     14650     14652
     14649     14647     14650     14658     14650     14652     14653     14654
     14650     14652     14653     14655     14650     14658     14661     14662
     14651     14650     14652     14653     14651     14650     14658     14659
     14651     14650     14658     14660     14651     14650     14658     14661
     14652     14650     14658     14659     14652     14650     14658     14660
     14652     14650     14658     14661     14652     14653     14655     14656
     14652     14653     14655     14657     14652     14653     14655     14667
     14653     14652     14650     14658     14653     14655     14667     14668
     14653     14655     14667     14669     14653     14655     14667     14670
     14654     14653     14655     14656     14654     14653     14655     14657
     14654     14653     14655     14667     14655     14667     14670     14671
     14655     14667     14670     14672     14655     14667     14670     14673
     14656     14655     14667     14668     14656     14655     14667     14669
     14656     14655     14667     14670     14657     14655     14667     14668
     14657     14655     14667     14669     14657     14655     14667     14670
     14658     14661     14662     14663     14658     14661     14662     14664
     14659     14658     14661     14662     14660     14658     14661     14662
     14661     14662     14664     14665     14661     14662     14664     14666
     14661     14662     14664     14714     14662     14664     14714     14715
     14662     14664     14714     14716     14662     14664     14714     14717
     14663     14662     14664     14665     14663     14662     14664     14666
     14663     14662     14664     14714     14664     14714     14717     14718
     14664     14714     14717     14719     14664     14714     14717     14720
     14665     14664     14714     14715     14665     14664     14714     14716
     14665     14664     14714     14717     14666     14664     14714     14715
     14666     14664     14714     14716     14666     14664     14714     14717
     14667     14670     14673     14674     14667     14670     14673     14675
     14667     14670     14673     14676     14668     14667     14670     14671
     14668     14667     14670     14672     14668     14667     14670     14673
     14669     14667     14670     14671     14669     14667     14670     14672
     14669     14667     14670     14673     14670     14673     14676     14677
     14670     14673     14676     14678     14670     14673     14676     14679
     14671     14670     14673     14674     14671     14670     14673     14675
     14671     14670     14673     14676     14672     14670     14673     14674
     14672     14670     14673     14675     14672     14670     14673     14676
     14673     14676     14679     14680     14673     14676     14679     14681
     14673     14676     14679     14682     14674     14673     14676     14677
     14674     14673     14676     14678     14674     14673     14676     14679
     14675     14673     14676     14677     14675     14673     14676     14678
     14675     14673     14676     14679     14676     14679     14682     14683
     14676     14679     14682     14684     14676     14679     14682     14685
     14677     14676     14679     14680     14677     14676     14679     14681
     14677     14676     14679     14682     14678     14676     14679     14680
     14678     14676     14679     14681     14678     14676     14679     14682
     14679     14682     14685     14686     14679     14682     14685     14687
     14680     14679     14682     14683     14680     14679     14682     14684
     14680     14679     14682     14685     14681     14679     14682     14683
     14681     14679     14682     14684     14681     14679     14682     14685
     14682     14685     14687     14688     14682     14685     14687     14689
     14683     14682     14685     14686     14683     14682     14685     14687
     14684     14682     14685     14686     14684     14682     14685     14687
     14685     14687     14689     14690     14685     14687     14689     14691
     14685     14687     14689     14692     14686     14685     14687     14688
     14686     14685     14687     14689     14687     14689     14692     14693
     14687     14689     14692     14694     14687     14689     14692     14695
     14688     14687     14689     14690     14688     14687     14689     14691
     14688     14687     14689     14692     14689     14692     14695     14696
     14689     14692     14695     14697     14689     14692     14695     14698
     14690     14689     14692     14693     14690     14689     14692     14694
     14690     14689     14692     14695     14691     14689     14692     14693
     14691     14689     14692     14694     14691     14689     14692     14695
     14692     14695     14698     14699     14692     14695     14698     14700
     14692     14695     14698     14701     14693     14692     14695     14696
     14693     14692     14695     14697     14693     14692     14695     14698
     14694     14692     14695     14696     14694     14692     14695     14697
     14694     14692     14695     14698     14695     14698     14701     14702
     14695     14698     14701     14703     14695     14698     14701     14704
     14696     14695     14698     14699     14696     14695     14698     14700
     14696     14695     14698     14701     14697     14695     14698     14699
     14697     14695     14698     14700     14697     14695     14698     14701
     14698     14701     14704     14705     14698     14701     14704     14706
     14698     14701     14704     14707     14699     14698     14701     14702
     14699     14698     14701     14703     14699     14698     14701     14704
     14700     14698     14701     14702     14700     14698     14701     14703
     14700     14698     14701     14704     14701     14704     14707     14708
     14701     14704     14707     14709     14701     14704     14707     14710
     14702     14701     14704     14705     14702     14701     14704     14706
     14702     14701     14704     14707     14703     14701     14704     14705
     14703     14701     14704     14706     14703     14701     14704     14707
     14704     14707     14710     14711     14704     14707     14710     14712
     14704     14707     14710     14713     14705     14704     14707     14708
     14705     14704     14707     14709     14705     14704     14707     14710
     14706     14704     14707     14708     14706     14704     14707     14709
     14706     14704     14707     14710     14708     14707     14710     14711
     14708     14707     14710     14712     14708     14707     14710     14713
     14709     14707     14710     14711     14709     14707     14710     14712
     14709     14707     14710     14713     14714     14717     14720     14721
     14714     14717     14720     14722     14714     14717     14720     14723
     14715     14714     14717     14718     14715     14714     14717     14719
     14715     14714     14717     14720     14716     14714     14717     14718
     14716     14714     14717     14719     14716     14714     14717     14720
     14717     14720     14723     14724     14717     14720     14723     14725
     14717     14720     14723     14726     14718     14717     14720     14721
     14718     14717     14720     14722     14718     14717     14720     14723
     14719     14717     14720     14721     14719     14717     14720     14722
     14719     14717     14720     14723     14720     14723     14726     14727
     14720     14723     14726     14728     14720     14723     14726     14729
     14721     14720     14723     14724     14721     14720     14723     14725
     14721     14720     14723     14726     14722     14720     14723     14724
     14722     14720     14723     14725     14722     14720     14723     14726
     14723     14726     14729     14730     14723     14726     14729     14731
     14723     14726     14729     14732     14724     14723     14726     14727
     14724     14723     14726     14728     14724     14723     14726     14729
     14725     14723     14726     14727     14725     14723     14726     14728
     14725     14723     14726     14729     14726     14729     14732     14733
     14726     14729     14732     14734     14726     14729     14732     14735
     14727     14726     14729     14730     14727     14726     14729     14731
     14727     14726     14729     14732     14728     14726     14729     14730
     14728     14726     14729     14731     14728     14726     14729     14732
     14729     14732     14735     14736     14729     14732     14735     14737
     14729     14732     14735     14738     14730     14729     14732     14733
     14730     14729     14732     14734     14730     14729     14732     14735
     14731     14729     14732     14733     14731     14729     14732     14734
     14731     14729     14732     14735     14732     14735     14738     14739
     14732     14735     14738     14740     14732     14735     14738     14741
     14733     14732     14735     14736     14733     14732     14735     14737
     14733     14732     14735     14738     14734     14732     14735     14736
     14734     14732     14735     14737     14734     14732     14735     14738
     14735     14738     14741     14742     14735     14738     14741     14743
     14735     14738     14741     14744     14736     14735     14738     14739
     14736     14735     14738     14740     14736     14735     14738     14741
     14737     14735     14738     14739     14737     14735     14738     14740
     14737     14735     14738     14741     14738     14741     14744     14745
     14738     14741     14744     14746     14738     14741     14744     14747
     14739     14738     14741     14742     14739     14738     14741     14743
     14739     14738     14741     14744     14740     14738     14741     14742
     14740     14738     14741     14743     14740     14738     14741     14744
     14741     14744     14747     14748     14741     14744     14747     14749
     14741     14744     14747     14750     14742     14741     14744     14745
     14742     14741     14744     14746     14742     14741     14744     14747
     14743     14741     14744     14745     14743     14741     14744     14746
     14743     14741     14744     14747     14744     14747     14750     14751
     14744     14747     14750     14752     14744     14747     14750     14753
     14745     14744     14747     14748     14745     14744     14747     14749
     14745     14744     14747     14750     14746     14744     14747     14748
     14746     14744     14747     14749     14746     14744     14747     14750
     14747     14750     14753     14754     14747     14750     14753     14755
     14747     14750     14753     14756     14748     14747     14750     14751
     14748     14747     14750     14752     14748     14747     14750     14753
     14749     14747     14750     14751     14749     14747     14750     14752
     14749     14747     14750     14753     14751     14750     14753     14754
     14751     14750     14753     14755     14751     14750     14753     14756
     14752     14750     14753     14754     14752     14750     14753     14755
     14752     14750     14753     14756     14757     14758     14773     14774
     14757     14758     14773     14775     14757     14758     14773     14779
     14758     14757     14761     14762     14758     14757     14761     14763
     14758     14757     14761     14764     14758     14757     14765     14766
     14758     14757     14765     14767     14758     14757     14765     14768
     14758     14757     14769     14770     14758     14757     14769     14771
     14758     14757     14769     14772     14758     14773     14779     14776
     14759     14758     14757     14761     14759     14758     14757     14765
     14759     14758     14757     14769     14759     14758     14773     14774
     14759     14758     14773     14775     14759     14758     14773     14779
     14760     14758     14757     14761     14760     14758     14757     14765
     14760     14758     14757     14769     14760     14758     14773     14774
     14760     14758     14773     14775     14760     14758     14773     14779
     14761     14757     14758     14773     14761     14757     14765     14766
     14761     14757     14765     14767     14761     14757     14765     14768
     14761     14757     14769     14770     14761     14757     14769     14771
     14761     14757     14769     14772     14762     14761     14757     14765
     14762     14761     14757     14769     14763     14761     14757     14765
     14763     14761     14757     14769     14764     14761     14757     14765
     14764     14761     14757     14769     14765     14757     14758     14773
     14765     14757     14769     14770     14765     14757     14769     14771
     14765     14757     14769     14772     14766     14765     14757     14769
     14767     14765     14757     14769     14768     14765     14757     14769
     14769     14757     14758     14773     14773     14779     14776     14777
     14773     14779     14776     14778     14773     14779     14776     14780
     14774     14773     14779     14776     14775     14773     14779     14776
     14776     14780     14781     14782     14776     14780     14781     14783
     14776     14780     14781     14784     14777     14776     14780     14781
     14778     14776     14780     14781     14779     14776     14780     14781
     14780     14781     14784     14785     14780     14781     14784     14786
     14780     14781     14784     14792     14781     14784     14786     14787
     14781     14784     14792     14793     14781     14784     14792     14794
     14781     14784     14792     14795     14782     14781     14784     14785
     14782     14781     14784     14786     14782     14781     14784     14792
     14783     14781     14784     14785     14783     14781     14784     14786
     14783     14781     14784     14792     14784     14786     14787     14788
     14784     14786     14787     14789     14784     14792     14795     14796
     14785     14784     14786     14787     14785     14784     14792     14793
     14785     14784     14792     14794     14785     14784     14792     14795
     14786     14784     14792     14793     14786     14784     14792     14794
     14786     14784     14792     14795     14786     14787     14789     14790
     14786     14787     14789     14791     14786     14787     14789     14801
     14787     14786     14784     14792     14787     14789     14801     14802
     14787     14789     14801     14803     14787     14789     14801     14804
     14788     14787     14789     14790     14788     14787     14789     14791
     14788     14787     14789     14801     14789     14801     14804     14805
     14789     14801     14804     14806     14789     14801     14804     14807
     14790     14789     14801     14802     14790     14789     14801     14803
     14790     14789     14801     14804     14791     14789     14801     14802
     14791     14789     14801     14803     14791     14789     14801     14804
     14792     14795     14796     14797     14792     14795     14796     14798
     14793     14792     14795     14796     14794     14792     14795     14796
     14795     14796     14798     14799     14795     14796     14798     14800
     14795     14796     14798     14848     14796     14798     14848     14849
     14796     14798     14848     14850     14796     14798     14848     14851
     14797     14796     14798     14799     14797     14796     14798     14800
     14797     14796     14798     14848     14798     14848     14851     14852
     14798     14848     14851     14853     14798     14848     14851     14854
     14799     14798     14848     14849     14799     14798     14848     14850
     14799     14798     14848     14851     14800     14798     14848     14849
     14800     14798     14848     14850     14800     14798     14848     14851
     14801     14804     14807     14808     14801     14804     14807     14809
     14801     14804     14807     14810     14802     14801     14804     14805
     14802     14801     14804     14806     14802     14801     14804     14807
     14803     14801     14804     14805     14803     14801     14804     14806
     14803     14801     14804     14807     14804     14807     14810     14811
     14804     14807     14810     14812     14804     14807     14810     14813
     14805     14804     14807     14808     14805     14804     14807     14809
     14805     14804     14807     14810     14806     14804     14807     14808
     14806     14804     14807     14809     14806     14804     14807     14810
     14807     14810     14813     14814     14807     14810     14813     14815
     14807     14810     14813     14816     14808     14807     14810     14811
     14808     14807     14810     14812     14808     14807     14810     14813
     14809     14807     14810     14811     14809     14807     14810     14812
     14809     14807     14810     14813     14810     14813     14816     14817
     14810     14813     14816     14818     14810     14813     14816     14819
     14811     14810     14813     14814     14811     14810     14813     14815
     14811     14810     14813     14816     14812     14810     14813     14814
     14812     14810     14813     14815     14812     14810     14813     14816
     14813     14816     14819     14820     14813     14816     14819     14821
     14814     14813     14816     14817     14814     14813     14816     14818
     14814     14813     14816     14819     14815     14813     14816     14817
     14815     14813     14816     14818     14815     14813     14816     14819
     14816     14819     14821     14822     14816     14819     14821     14823
     14817     14816     14819     14820     14817     14816     14819     14821
     14818     14816     14819     14820     14818     14816     14819     14821
     14819     14821     14823     14824     14819     14821     14823     14825
     14819     14821     14823     14826     14820     14819     14821     14822
     14820     14819     14821     14823     14821     14823     14826     14827
     14821     14823     14826     14828     14821     14823     14826     14829
     14822     14821     14823     14824     14822     14821     14823     14825
     14822     14821     14823     14826     14823     14826     14829     14830
     14823     14826     14829     14831     14823     14826     14829     14832
     14824     14823     14826     14827     14824     14823     14826     14828
     14824     14823     14826     14829     14825     14823     14826     14827
     14825     14823     14826     14828     14825     14823     14826     14829
     14826     14829     14832     14833     14826     14829     14832     14834
     14826     14829     14832     14835     14827     14826     14829     14830
     14827     14826     14829     14831     14827     14826     14829     14832
     14828     14826     14829     14830     14828     14826     14829     14831
     14828     14826     14829     14832     14829     14832     14835     14836
     14829     14832     14835     14837     14829     14832     14835     14838
     14830     14829     14832     14833     14830     14829     14832     14834
     14830     14829     14832     14835     14831     14829     14832     14833
     14831     14829     14832     14834     14831     14829     14832     14835
     14832     14835     14838     14839     14832     14835     14838     14840
     14832     14835     14838     14841     14833     14832     14835     14836
     14833     14832     14835     14837     14833     14832     14835     14838
     14834     14832     14835     14836     14834     14832     14835     14837
     14834     14832     14835     14838     14835     14838     14841     14842
     14835     14838     14841     14843     14835     14838     14841     14844
     14836     14835     14838     14839     14836     14835     14838     14840
     14836     14835     14838     14841     14837     14835     14838     14839
     14837     14835     14838     14840     14837     14835     14838     14841
     14838     14841     14844     14845     14838     14841     14844     14846
     14838     14841     14844     14847     14839     14838     14841     14842
     14839     14838     14841     14843     14839     14838     14841     14844
     14840     14838     14841     14842     14840     14838     14841     14843
     14840     14838     14841     14844     14842     14841     14844     14845
     14842     14841     14844     14846     14842     14841     14844     14847
     14843     14841     14844     14845     14843     14841     14844     14846
     14843     14841     14844     14847     14848     14851     14854     14855
     14848     14851     14854     14856     14848     14851     14854     14857
     14849     14848     14851     14852     14849     14848     14851     14853
     14849     14848     14851     14854     14850     14848     14851     14852
     14850     14848     14851     14853     14850     14848     14851     14854
     14851     14854     14857     14858     14851     14854     14857     14859
     14851     14854     14857     14860     14852     14851     14854     14855
     14852     14851     14854     14856     14852     14851     14854     14857
     14853     14851     14854     14855     14853     14851     14854     14856
     14853     14851     14854     14857     14854     14857     14860     14861
     14854     14857     14860     14862     14854     14857     14860     14863
     14855     14854     14857     14858     14855     14854     14857     14859
     14855     14854     14857     14860     14856     14854     14857     14858
     14856     14854     14857     14859     14856     14854     14857     14860
     14857     14860     14863     14864     14857     14860     14863     14865
     14857     14860     14863     14866     14858     14857     14860     14861
     14858     14857     14860     14862     14858     14857     14860     14863
     14859     14857     14860     14861     14859     14857     14860     14862
     14859     14857     14860     14863     14860     14863     14866     14867
     14860     14863     14866     14868     14860     14863     14866     14869
     14861     14860     14863     14864     14861     14860     14863     14865
     14861     14860     14863     14866     14862     14860     14863     14864
     14862     14860     14863     14865     14862     14860     14863     14866
     14863     14866     14869     14870     14863     14866     14869     14871
     14863     14866     14869     14872     14864     14863     14866     14867
     14864     14863     14866     14868     14864     14863     14866     14869
     14865     14863     14866     14867     14865     14863     14866     14868
     14865     14863     14866     14869     14866     14869     14872     14873
     14866     14869     14872     14874     14866     14869     14872     14875
     14867     14866     14869     14870     14867     14866     14869     14871
     14867     14866     14869     14872     14868     14866     14869     14870
     14868     14866     14869     14871     14868     14866     14869     14872
     14869     14872     14875     14876     14869     14872     14875     14877
     14869     14872     14875     14878     14870     14869     14872     14873
     14870     14869     14872     14874     14870     14869     14872     14875
     14871     14869     14872     14873     14871     14869     14872     14874
     14871     14869     14872     14875     14872     14875     14878     14879
     14872     14875     14878     14880     14872     14875     14878     14881
     14873     14872     14875     14876     14873     14872     14875     14877
     14873     14872     14875     14878     14874     14872     14875     14876
     14874     14872     14875     14877     14874     14872     14875     14878
     14875     14878     14881     14882     14875     14878     14881     14883
     14875     14878     14881     14884     14876     14875     14878     14879
     14876     14875     14878     14880     14876     14875     14878     14881
     14877     14875     14878     14879     14877     14875     14878     14880
     14877     14875     14878     14881     14878     14881     14884     14885
     14878     14881     14884     14886     14878     14881     14884     14887
     14879     14878     14881     14882     14879     14878     14881     14883
     14879     14878     14881     14884     14880     14878     14881     14882
     14880     14878     14881     14883     14880     14878     14881     14884
     14881     14884     14887     14888     14881     14884     14887     14889
     14881     14884     14887     14890     14882     14881     14884     14885
     14882     14881     14884     14886     14882     14881     14884     14887
     14883     14881     14884     14885     14883     14881     14884     14886
     14883     14881     14884     14887     14885     14884     14887     14888
     14885     14884     14887     14889     14885     14884     14887     14890
     14886     14884     14887     14888     14886     14884     14887     14889
     14886     14884     14887     14890     14891     14892     14907     14908
     14891     14892     14907     14909     14891     14892     14907     14913
     14892     14891     14895     14896     14892     14891     14895     14897
     14892     14891     14895     14898     14892     14891     14899     14900
     14892     14891     14899     14901     14892     14891     14899     14902
     14892     14891     14903     14904     14892     14891     14903     14905
     14892     14891     14903     14906     14892     14907     14913     14910
     14893     14892     14891     14895     14893     14892     14891     14899
     14893     14892     14891     14903     14893     14892     14907     14908
     14893     14892     14907     14909     14893     14892     14907     14913
     14894     14892     14891     14895     14894     14892     14891     14899
     14894     14892     14891     14903     14894     14892     14907     14908
     14894     14892     14907     14909     14894     14892     14907     14913
     14895     14891     14892     14907     14895     14891     14899     14900
     14895     14891     14899     14901     14895     14891     14899     14902
     14895     14891     14903     14904     14895     14891     14903     14905
     14895     14891     14903     14906     14896     14895     14891     14899
     14896     14895     14891     14903     14897     14895     14891     14899
     14897     14895     14891     14903     14898     14895     14891     14899
     14898     14895     14891     14903     14899     14891     14892     14907
     14899     14891     14903     14904     14899     14891     14903     14905
     14899     14891     14903     14906     14900     14899     14891     14903
     14901     14899     14891     14903     14902     14899     14891     14903
     14903     14891     14892     14907     14907     14913     14910     14911
     14907     14913     14910     14912     14907     14913     14910     14914
     14908     14907     14913     14910     14909     14907     14913     14910
     14910     14914     14915     14916     14910     14914     14915     14917
     14910     14914     14915     14918     14911     14910     14914     14915
     14912     14910     14914     14915     14913     14910     14914     14915
     14914     14915     14918     14919     14914     14915     14918     14920
     14914     14915     14918     14926     14915     14918     14920     14921
     14915     14918     14926     14927     14915     14918     14926     14928
     14915     14918     14926     14929     14916     14915     14918     14919
     14916     14915     14918     14920     14916     14915     14918     14926
     14917     14915     14918     14919     14917     14915     14918     14920
     14917     14915     14918     14926     14918     14920     14921     14922
     14918     14920     14921     14923     14918     14926     14929     14930
     14919     14918     14920     14921     14919     14918     14926     14927
     14919     14918     14926     14928     14919     14918     14926     14929
     14920     14918     14926     14927     14920     14918     14926     14928
     14920     14918     14926     14929     14920     14921     14923     14924
     14920     14921     14923     14925     14920     14921     14923     14935
     14921     14920     14918     14926     14921     14923     14935     14936
     14921     14923     14935     14937     14921     14923     14935     14938
     14922     14921     14923     14924     14922     14921     14923     14925
     14922     14921     14923     14935     14923     14935     14938     14939
     14923     14935     14938     14940     14923     14935     14938     14941
     14924     14923     14935     14936     14924     14923     14935     14937
     14924     14923     14935     14938     14925     14923     14935     14936
     14925     14923     14935     14937     14925     14923     14935     14938
     14926     14929     14930     14931     14926     14929     14930     14932
     14927     14926     14929     14930     14928     14926     14929     14930
     14929     14930     14932     14933     14929     14930     14932     14934
     14929     14930     14932     14982     14930     14932     14982     14983
     14930     14932     14982     14984     14930     14932     14982     14985
     14931     14930     14932     14933     14931     14930     14932     14934
     14931     14930     14932     14982     14932     14982     14985     14986
     14932     14982     14985     14987     14932     14982     14985     14988
     14933     14932     14982     14983     14933     14932     14982     14984
     14933     14932     14982     14985     14934     14932     14982     14983
     14934     14932     14982     14984     14934     14932     14982     14985
     14935     14938     14941     14942     14935     14938     14941     14943
     14935     14938     14941     14944     14936     14935     14938     14939
     14936     14935     14938     14940     14936     14935     14938     14941
     14937     14935     14938     14939     14937     14935     14938     14940
     14937     14935     14938     14941     14938     14941     14944     14945
     14938     14941     14944     14946     14938     14941     14944     14947
     14939     14938     14941     14942     14939     14938     14941     14943
     14939     14938     14941     14944     14940     14938     14941     14942
     14940     14938     14941     14943     14940     14938     14941     14944
     14941     14944     14947     14948     14941     14944     14947     14949
     14941     14944     14947     14950     14942     14941     14944     14945
     14942     14941     14944     14946     14942     14941     14944     14947
     14943     14941     14944     14945     14943     14941     14944     14946
     14943     14941     14944     14947     14944     14947     14950     14951
     14944     14947     14950     14952     14944     14947     14950     14953
     14945     14944     14947     14948     14945     14944     14947     14949
     14945     14944     14947     14950     14946     14944     14947     14948
     14946     14944     14947     14949     14946     14944     14947     14950
     14947     14950     14953     14954     14947     14950     14953     14955
     14948     14947     14950     14951     14948     14947     14950     14952
     14948     14947     14950     14953     14949     14947     14950     14951
     14949     14947     14950     14952     14949     14947     14950     14953
     14950     14953     14955     14956     14950     14953     14955     14957
     14951     14950     14953     14954     14951     14950     14953     14955
     14952     14950     14953     14954     14952     14950     14953     14955
     14953     14955     14957     14958     14953     14955     14957     14959
     14953     14955     14957     14960     14954     14953     14955     14956
     14954     14953     14955     14957     14955     14957     14960     14961
     14955     14957     14960     14962     14955     14957     14960     14963
     14956     14955     14957     14958     14956     14955     14957     14959
     14956     14955     14957     14960     14957     14960     14963     14964
     14957     14960     14963     14965     14957     14960     14963     14966
     14958     14957     14960     14961     14958     14957     14960     14962
     14958     14957     14960     14963     14959     14957     14960     14961
     14959     14957     14960     14962     14959     14957     14960     14963
     14960     14963     14966     14967     14960     14963     14966     14968
     14960     14963     14966     14969     14961     14960     14963     14964
     14961     14960     14963     14965     14961     14960     14963     14966
     14962     14960     14963     14964     14962     14960     14963     14965
     14962     14960     14963     14966     14963     14966     14969     14970
     14963     14966     14969     14971     14963     14966     14969     14972
     14964     14963     14966     14967     14964     14963     14966     14968
     14964     14963     14966     14969     14965     14963     14966     14967
     14965     14963     14966     14968     14965     14963     14966     14969
     14966     14969     14972     14973     14966     14969     14972     14974
     14966     14969     14972     14975     14967     14966     14969     14970
     14967     14966     14969     14971     14967     14966     14969     14972
     14968     14966     14969     14970     14968     14966     14969     14971
     14968     14966     14969     14972     14969     14972     14975     14976
     14969     14972     14975     14977     14969     14972     14975     14978
     14970     14969     14972     14973     14970     14969     14972     14974
     14970     14969     14972     14975     14971     14969     14972     14973
     14971     14969     14972     14974     14971     14969     14972     14975
     14972     14975     14978     14979     14972     14975     14978     14980
     14972     14975     14978     14981     14973     14972     14975     14976
     14973     14972     14975     14977     14973     14972     14975     14978
     14974     14972     14975     14976     14974     14972     14975     14977
     14974     14972     14975     14978     14976     14975     14978     14979
     14976     14975     14978     14980     14976     14975     14978     14981
     14977     14975     14978     14979     14977     14975     14978     14980
     14977     14975     14978     14981     14982     14985     14988     14989
     14982     14985     14988     14990     14982     14985     14988     14991
     14983     14982     14985     14986     14983     14982     14985     14987
     14983     14982     14985     14988     14984     14982     14985     14986
     14984     14982     14985     14987     14984     14982     14985     14988
     14985     14988     14991     14992     14985     14988     14991     14993
     14985     14988     14991     14994     14986     14985     14988     14989
     14986     14985     14988     14990     14986     14985     14988     14991
     14987     14985     14988     14989     14987     14985     14988     14990
     14987     14985     14988     14991     14988     14991     14994     14995
     14988     14991     14994     14996     14988     14991     14994     14997
     14989     14988     14991     14992     14989     14988     14991     14993
     14989     14988     14991     14994     14990     14988     14991     14992
     14990     14988     14991     14993     14990     14988     14991     14994
     14991     14994     14997     14998     14991     14994     14997     14999
     14991     14994     14997     15000     14992     14991     14994     14995
     14992     14991     14994     14996     14992     14991     14994     14997
     14993     14991     14994     14995     14993     14991     14994     14996
     14993     14991     14994     14997     14994     14997     15000     15001
     14994     14997     15000     15002     14994     14997     15000     15003
     14995     14994     14997     14998     14995     14994     14997     14999
     14995     14994     14997     15000     14996     14994     14997     14998
     14996     14994     14997     14999     14996     14994     14997     15000
     14997     15000     15003     15004     14997     15000     15003     15005
     14997     15000     15003     15006     14998     14997     15000     15001
     14998     14997     15000     15002     14998     14997     15000     15003
     14999     14997     15000     15001     14999     14997     15000     15002
     14999     14997     15000     15003     15000     15003     15006     15007
     15000     15003     15006     15008     15000     15003     15006     15009
     15001     15000     15003     15004     15001     15000     15003     15005
     15001     15000     15003     15006     15002     15000     15003     15004
     15002     15000     15003     15005     15002     15000     15003     15006
     15003     15006     15009     15010     15003     15006     15009     15011
     15003     15006     15009     15012     15004     15003     15006     15007
     15004     15003     15006     15008     15004     15003     15006     15009
     15005     15003     15006     15007     15005     15003     15006     15008
     15005     15003     15006     15009     15006     15009     15012     15013
     15006     15009     15012     15014     15006     15009     15012     15015
     15007     15006     15009     15010     15007     15006     15009     15011
     15007     15006     15009     15012     15008     15006     15009     15010
     15008     15006     15009     15011     15008     15006     15009     15012
     15009     15012     15015     15016     15009     15012     15015     15017
     15009     15012     15015     15018     15010     15009     15012     15013
     15010     15009     15012     15014     15010     15009     15012     15015
     15011     15009     15012     15013     15011     15009     15012     15014
     15011     15009     15012     15015     15012     15015     15018     15019
     15012     15015     15018     15020     15012     15015     15018     15021
     15013     15012     15015     15016     15013     15012     15015     15017
     15013     15012     15015     15018     15014     15012     15015     15016
     15014     15012     15015     15017     15014     15012     15015     15018
     15015     15018     15021     15022     15015     15018     15021     15023
     15015     15018     15021     15024     15016     15015     15018     15019
     15016     15015     15018     15020     15016     15015     15018     15021
     15017     15015     15018     15019     15017     15015     15018     15020
     15017     15015     15018     15021     15019     15018     15021     15022
     15019     15018     15021     15023     15019     15018     15021     15024
     15020     15018     15021     15022     15020     15018     15021     15023
     15020     15018     15021     15024     15025     15026     15041     15042
     15025     15026     15041     15043     15025     15026     15041     15047
     15026     15025     15029     15030     15026     15025     15029     15031
     15026     15025     15029     15032     15026     15025     15033     15034
     15026     15025     15033     15035     15026     15025     15033     15036
     15026     15025     15037     15038     15026     15025     15037     15039
     15026     15025     15037     15040     15026     15041     15047     15044
     15027     15026     15025     15029     15027     15026     15025     15033
     15027     15026     15025     15037     15027     15026     15041     15042
     15027     15026     15041     15043     15027     15026     15041     15047
     15028     15026     15025     15029     15028     15026     15025     15033
     15028     15026     15025     15037     15028     15026     15041     15042
     15028     15026     15041     15043     15028     15026     15041     15047
     15029     15025     15026     15041     15029     15025     15033     15034
     15029     15025     15033     15035     15029     15025     15033     15036
     15029     15025     15037     15038     15029     15025     15037     15039
     15029     15025     15037     15040     15030     15029     15025     15033
     15030     15029     15025     15037     15031     15029     15025     15033
     15031     15029     15025     15037     15032     15029     15025     15033
     15032     15029     15025     15037     15033     15025     15026     15041
     15033     15025     15037     15038     15033     15025     15037     15039
     15033     15025     15037     15040     15034     15033     15025     15037
     15035     15033     15025     15037     15036     15033     15025     15037
     15037     15025     15026     15041     15041     15047     15044     15045
     15041     15047     15044     15046     15041     15047     15044     15048
     15042     15041     15047     15044     15043     15041     15047     15044
     15044     15048     15049     15050     15044     15048     15049     15051
     15044     15048     15049     15052     15045     15044     15048     15049
     15046     15044     15048     15049     15047     15044     15048     15049
     15048     15049     15052     15053     15048     15049     15052     15054
     15048     15049     15052     15060     15049     15052     15054     15055
     15049     15052     15060     15061     15049     15052     15060     15062
     15049     15052     15060     15063     15050     15049     15052     15053
     15050     15049     15052     15054     15050     15049     15052     15060
     15051     15049     15052     15053     15051     15049     15052     15054
     15051     15049     15052     15060     15052     15054     15055     15056
     15052     15054     15055     15057     15052     15060     15063     15064
     15053     15052     15054     15055     15053     15052     15060     15061
     15053     15052     15060     15062     15053     15052     15060     15063
     15054     15052     15060     15061     15054     15052     15060     15062
     15054     15052     15060     15063     15054     15055     15057     15058
     15054     15055     15057     15059     15054     15055     15057     15069
     15055     15054     15052     15060     15055     15057     15069     15070
     15055     15057     15069     15071     15055     15057     15069     15072
     15056     15055     15057     15058     15056     15055     15057     15059
     15056     15055     15057     15069     15057     15069     15072     15073
     15057     15069     15072     15074     15057     15069     15072     15075
     15058     15057     15069     15070     15058     15057     15069     15071
     15058     15057     15069     15072     15059     15057     15069     15070
     15059     15057     15069     15071     15059     15057     15069     15072
     15060     15063     15064     15065     15060     15063     15064     15066
     15061     15060     15063     15064     15062     15060     15063     15064
     15063     15064     15066     15067     15063     15064     15066     15068
     15063     15064     15066     15116     15064     15066     15116     15117
     15064     15066     15116     15118     15064     15066     15116     15119
     15065     15064     15066     15067     15065     15064     15066     15068
     15065     15064     15066     15116     15066     15116     15119     15120
     15066     15116     15119     15121     15066     15116     15119     15122
     15067     15066     15116     15117     15067     15066     15116     15118
     15067     15066     15116     15119     15068     15066     15116     15117
     15068     15066     15116     15118     15068     15066     15116     15119
     15069     15072     15075     15076     15069     15072     15075     15077
     15069     15072     15075     15078     15070     15069     15072     15073
     15070     15069     15072     15074     15070     15069     15072     15075
     15071     15069     15072     15073     15071     15069     15072     15074
     15071     15069     15072     15075     15072     15075     15078     15079
     15072     15075     15078     15080     15072     15075     15078     15081
     15073     15072     15075     15076     15073     15072     15075     15077
     15073     15072     15075     15078     15074     15072     15075     15076
     15074     15072     15075     15077     15074     15072     15075     15078
     15075     15078     15081     15082     15075     15078     15081     15083
     15075     15078     15081     15084     15076     15075     15078     15079
     15076     15075     15078     15080     15076     15075     15078     15081
     15077     15075     15078     15079     15077     15075     15078     15080
     15077     15075     15078     15081     15078     15081     15084     15085
     15078     15081     15084     15086     15078     15081     15084     15087
     15079     15078     15081     15082     15079     15078     15081     15083
     15079     15078     15081     15084     15080     15078     15081     15082
     15080     15078     15081     15083     15080     15078     15081     15084
     15081     15084     15087     15088     15081     15084     15087     15089
     15082     15081     15084     15085     15082     15081     15084     15086
     15082     15081     15084     15087     15083     15081     15084     15085
     15083     15081     15084     15086     15083     15081     15084     15087
     15084     15087     15089     15090     15084     15087     15089     15091
     15085     15084     15087     15088     15085     15084     15087     15089
     15086     15084     15087     15088     15086     15084     15087     15089
     15087     15089     15091     15092     15087     15089     15091     15093
     15087     15089     15091     15094     15088     15087     15089     15090
     15088     15087     15089     15091     15089     15091     15094     15095
     15089     15091     15094     15096     15089     15091     15094     15097
     15090     15089     15091     15092     15090     15089     15091     15093
     15090     15089     15091     15094     15091     15094     15097     15098
     15091     15094     15097     15099     15091     15094     15097     15100
     15092     15091     15094     15095     15092     15091     15094     15096
     15092     15091     15094     15097     15093     15091     15094     15095
     15093     15091     15094     15096     15093     15091     15094     15097
     15094     15097     15100     15101     15094     15097     15100     15102
     15094     15097     15100     15103     15095     15094     15097     15098
     15095     15094     15097     15099     15095     15094     15097     15100
     15096     15094     15097     15098     15096     15094     15097     15099
     15096     15094     15097     15100     15097     15100     15103     15104
     15097     15100     15103     15105     15097     15100     15103     15106
     15098     15097     15100     15101     15098     15097     15100     15102
     15098     15097     15100     15103     15099     15097     15100     15101
     15099     15097     15100     15102     15099     15097     15100     15103
     15100     15103     15106     15107     15100     15103     15106     15108
     15100     15103     15106     15109     15101     15100     15103     15104
     15101     15100     15103     15105     15101     15100     15103     15106
     15102     15100     15103     15104     15102     15100     15103     15105
     15102     15100     15103     15106     15103     15106     15109     15110
     15103     15106     15109     15111     15103     15106     15109     15112
     15104     15103     15106     15107     15104     15103     15106     15108
     15104     15103     15106     15109     15105     15103     15106     15107
     15105     15103     15106     15108     15105     15103     15106     15109
     15106     15109     15112     15113     15106     15109     15112     15114
     15106     15109     15112     15115     15107     15106     15109     15110
     15107     15106     15109     15111     15107     15106     15109     15112
     15108     15106     15109     15110     15108     15106     15109     15111
     15108     15106     15109     15112     15110     15109     15112     15113
     15110     15109     15112     15114     15110     15109     15112     15115
     15111     15109     15112     15113     15111     15109     15112     15114
     15111     15109     15112     15115     15116     15119     15122     15123
     15116     15119     15122     15124     15116     15119     15122     15125
     15117     15116     15119     15120     15117     15116     15119     15121
     15117     15116     15119     15122     15118     15116     15119     15120
     15118     15116     15119     15121     15118     15116     15119     15122
     15119     15122     15125     15126     15119     15122     15125     15127
     15119     15122     15125     15128     15120     15119     15122     15123
     15120     15119     15122     15124     15120     15119     15122     15125
     15121     15119     15122     15123     15121     15119     15122     15124
     15121     15119     15122     15125     15122     15125     15128     15129
     15122     15125     15128     15130     15122     15125     15128     15131
     15123     15122     15125     15126     15123     15122     15125     15127
     15123     15122     15125     15128     15124     15122     15125     15126
     15124     15122     15125     15127     15124     15122     15125     15128
     15125     15128     15131     15132     15125     15128     15131     15133
     15125     15128     15131     15134     15126     15125     15128     15129
     15126     15125     15128     15130     15126     15125     15128     15131
     15127     15125     15128     15129     15127     15125     15128     15130
     15127     15125     15128     15131     15128     15131     15134     15135
     15128     15131     15134     15136     15128     15131     15134     15137
     15129     15128     15131     15132     15129     15128     15131     15133
     15129     15128     15131     15134     15130     15128     15131     15132
     15130     15128     15131     15133     15130     15128     15131     15134
     15131     15134     15137     15138     15131     15134     15137     15139
     15131     15134     15137     15140     15132     15131     15134     15135
     15132     15131     15134     15136     15132     15131     15134     15137
     15133     15131     15134     15135     15133     15131     15134     15136
     15133     15131     15134     15137     15134     15137     15140     15141
     15134     15137     15140     15142     15134     15137     15140     15143
     15135     15134     15137     15138     15135     15134     15137     15139
     15135     15134     15137     15140     15136     15134     15137     15138
     15136     15134     15137     15139     15136     15134     15137     15140
     15137     15140     15143     15144     15137     15140     15143     15145
     15137     15140     15143     15146     15138     15137     15140     15141
     15138     15137     15140     15142     15138     15137     15140     15143
     15139     15137     15140     15141     15139     15137     15140     15142
     15139     15137     15140     15143     15140     15143     15146     15147
     15140     15143     15146     15148     15140     15143     15146     15149
     15141     15140     15143     15144     15141     15140     15143     15145
     15141     15140     15143     15146     15142     15140     15143     15144
     15142     15140     15143     15145     15142     15140     15143     15146
     15143     15146     15149     15150     15143     15146     15149     15151
     15143     15146     15149     15152     15144     15143     15146     15147
     15144     15143     15146     15148     15144     15143     15146     15149
     15145     15143     15146     15147     15145     15143     15146     15148
     15145     15143     15146     15149     15146     15149     15152     15153
     15146     15149     15152     15154     15146     15149     15152     15155
     15147     15146     15149     15150     15147     15146     15149     15151
     15147     15146     15149     15152     15148     15146     15149     15150
     15148     15146     15149     15151     15148     15146     15149     15152
     15149     15152     15155     15156     15149     15152     15155     15157
     15149     15152     15155     15158     15150     15149     15152     15153
     15150     15149     15152     15154     15150     15149     15152     15155
     15151     15149     15152     15153     15151     15149     15152     15154
     15151     15149     15152     15155     15153     15152     15155     15156
     15153     15152     15155     15157     15153     15152     15155     15158
     15154     15152     15155     15156     15154     15152     15155     15157
     15154     15152     15155     15158     15159     15160     15175     15176
     15159     15160     15175     15177     15159     15160     15175     15181
     15160     15159     15163     15164     15160     15159     15163     15165
     15160     15159     15163     15166     15160     15159     15167     15168
     15160     15159     15167     15169     15160     15159     15167     15170
     15160     15159     15171     15172     15160     15159     15171     15173
     15160     15159     15171     15174     15160     15175     15181     15178
     15161     15160     15159     15163     15161     15160     15159     15167
     15161     15160     15159     15171     15161     15160     15175     15176
     15161     15160     15175     15177     15161     15160     15175     15181
     15162     15160     15159     15163     15162     15160     15159     15167
     15162     15160     15159     15171     15162     15160     15175     15176
     15162     15160     15175     15177     15162     15160     15175     15181
     15163     15159     15160     15175     15163     15159     15167     15168
     15163     15159     15167     15169     15163     15159     15167     15170
     15163     15159     15171     15172     15163     15159     15171     15173
     15163     15159     15171     15174     15164     15163     15159     15167
     15164     15163     15159     15171     15165     15163     15159     15167
     15165     15163     15159     15171     15166     15163     15159     15167
     15166     15163     15159     15171     15167     15159     15160     15175
     15167     15159     15171     15172     15167     15159     15171     15173
     15167     15159     15171     15174     15168     15167     15159     15171
     15169     15167     15159     15171     15170     15167     15159     15171
     15171     15159     15160     15175     15175     15181     15178     15179
     15175     15181     15178     15180     15175     15181     15178     15182
     15176     15175     15181     15178     15177     15175     15181     15178
     15178     15182     15183     15184     15178     15182     15183     15185
     15178     15182     15183     15186     15179     15178     15182     15183
     15180     15178     15182     15183     15181     15178     15182     15183
     15182     15183     15186     15187     15182     15183     15186     15188
     15182     15183     15186     15194     15183     15186     15188     15189
     15183     15186     15194     15195     15183     15186     15194     15196
     15183     15186     15194     15197     15184     15183     15186     15187
     15184     15183     15186     15188     15184     15183     15186     15194
     15185     15183     15186     15187     15185     15183     15186     15188
     15185     15183     15186     15194     15186     15188     15189     15190
     15186     15188     15189     15191     15186     15194     15197     15198
     15187     15186     15188     15189     15187     15186     15194     15195
     15187     15186     15194     15196     15187     15186     15194     15197
     15188     15186     15194     15195     15188     15186     15194     15196
     15188     15186     15194     15197     15188     15189     15191     15192
     15188     15189     15191     15193     15188     15189     15191     15203
     15189     15188     15186     15194     15189     15191     15203     15204
     15189     15191     15203     15205     15189     15191     15203     15206
     15190     15189     15191     15192     15190     15189     15191     15193
     15190     15189     15191     15203     15191     15203     15206     15207
     15191     15203     15206     15208     15191     15203     15206     15209
     15192     15191     15203     15204     15192     15191     15203     15205
     15192     15191     15203     15206     15193     15191     15203     15204
     15193     15191     15203     15205     15193     15191     15203     15206
     15194     15197     15198     15199     15194     15197     15198     15200
     15195     15194     15197     15198     15196     15194     15197     15198
     15197     15198     15200     15201     15197     15198     15200     15202
     15197     15198     15200     15250     15198     15200     15250     15251
     15198     15200     15250     15252     15198     15200     15250     15253
     15199     15198     15200     15201     15199     15198     15200     15202
     15199     15198     15200     15250     15200     15250     15253     15254
     15200     15250     15253     15255     15200     15250     15253     15256
     15201     15200     15250     15251     15201     15200     15250     15252
     15201     15200     15250     15253     15202     15200     15250     15251
     15202     15200     15250     15252     15202     15200     15250     15253
     15203     15206     15209     15210     15203     15206     15209     15211
     15203     15206     15209     15212     15204     15203     15206     15207
     15204     15203     15206     15208     15204     15203     15206     15209
     15205     15203     15206     15207     15205     15203     15206     15208
     15205     15203     15206     15209     15206     15209     15212     15213
     15206     15209     15212     15214     15206     15209     15212     15215
     15207     15206     15209     15210     15207     15206     15209     15211
     15207     15206     15209     15212     15208     15206     15209     15210
     15208     15206     15209     15211     15208     15206     15209     15212
     15209     15212     15215     15216     15209     15212     15215     15217
     15209     15212     15215     15218     15210     15209     15212     15213
     15210     15209     15212     15214     15210     15209     15212     15215
     15211     15209     15212     15213     15211     15209     15212     15214
     15211     15209     15212     15215     15212     15215     15218     15219
     15212     15215     15218     15220     15212     15215     15218     15221
     15213     15212     15215     15216     15213     15212     15215     15217
     15213     15212     15215     15218     15214     15212     15215     15216
     15214     15212     15215     15217     15214     15212     15215     15218
     15215     15218     15221     15222     15215     15218     15221     15223
     15216     15215     15218     15219     15216     15215     15218     15220
     15216     15215     15218     15221     15217     15215     15218     15219
     15217     15215     15218     15220     15217     15215     15218     15221
     15218     15221     15223     15224     15218     15221     15223     15225
     15219     15218     15221     15222     15219     15218     15221     15223
     15220     15218     15221     15222     15220     15218     15221     15223
     15221     15223     15225     15226     15221     15223     15225     15227
     15221     15223     15225     15228     15222     15221     15223     15224
     15222     15221     15223     15225     15223     15225     15228     15229
     15223     15225     15228     15230     15223     15225     15228     15231
     15224     15223     15225     15226     15224     15223     15225     15227
     15224     15223     15225     15228     15225     15228     15231     15232
     15225     15228     15231     15233     15225     15228     15231     15234
     15226     15225     15228     15229     15226     15225     15228     15230
     15226     15225     15228     15231     15227     15225     15228     15229
     15227     15225     15228     15230     15227     15225     15228     15231
     15228     15231     15234     15235     15228     15231     15234     15236
     15228     15231     15234     15237     15229     15228     15231     15232
     15229     15228     15231     15233     15229     15228     15231     15234
     15230     15228     15231     15232     15230     15228     15231     15233
     15230     15228     15231     15234     15231     15234     15237     15238
     15231     15234     15237     15239     15231     15234     15237     15240
     15232     15231     15234     15235     15232     15231     15234     15236
     15232     15231     15234     15237     15233     15231     15234     15235
     15233     15231     15234     15236     15233     15231     15234     15237
     15234     15237     15240     15241     15234     15237     15240     15242
     15234     15237     15240     15243     15235     15234     15237     15238
     15235     15234     15237     15239     15235     15234     15237     15240
     15236     15234     15237     15238     15236     15234     15237     15239
     15236     15234     15237     15240     15237     15240     15243     15244
     15237     15240     15243     15245     15237     15240     15243     15246
     15238     15237     15240     15241     15238     15237     15240     15242
     15238     15237     15240     15243     15239     15237     15240     15241
     15239     15237     15240     15242     15239     15237     15240     15243
     15240     15243     15246     15247     15240     15243     15246     15248
     15240     15243     15246     15249     15241     15240     15243     15244
     15241     15240     15243     15245     15241     15240     15243     15246
     15242     15240     15243     15244     15242     15240     15243     15245
     15242     15240     15243     15246     15244     15243     15246     15247
     15244     15243     15246     15248     15244     15243     15246     15249
     15245     15243     15246     15247     15245     15243     15246     15248
     15245     15243     15246     15249     15250     15253     15256     15257
     15250     15253     15256     15258     15250     15253     15256     15259
     15251     15250     15253     15254     15251     15250     15253     15255
     15251     15250     15253     15256     15252     15250     15253     15254
     15252     15250     15253     15255     15252     15250     15253     15256
     15253     15256     15259     15260     15253     15256     15259     15261
     15253     15256     15259     15262     15254     15253     15256     15257
     15254     15253     15256     15258     15254     15253     15256     15259
     15255     15253     15256     15257     15255     15253     15256     15258
     15255     15253     15256     15259     15256     15259     15262     15263
     15256     15259     15262     15264     15256     15259     15262     15265
     15257     15256     15259     15260     15257     15256     15259     15261
     15257     15256     15259     15262     15258     15256     15259     15260
     15258     15256     15259     15261     15258     15256     15259     15262
     15259     15262     15265     15266     15259     15262     15265     15267
     15259     15262     15265     15268     15260     15259     15262     15263
     15260     15259     15262     15264     15260     15259     15262     15265
     15261     15259     15262     15263     15261     15259     15262     15264
     15261     15259     15262     15265     15262     15265     15268     15269
     15262     15265     15268     15270     15262     15265     15268     15271
     15263     15262     15265     15266     15263     15262     15265     15267
     15263     15262     15265     15268     15264     15262     15265     15266
     15264     15262     15265     15267     15264     15262     15265     15268
     15265     15268     15271     15272     15265     15268     15271     15273
     15265     15268     15271     15274     15266     15265     15268     15269
     15266     15265     15268     15270     15266     15265     15268     15271
     15267     15265     15268     15269     15267     15265     15268     15270
     15267     15265     15268     15271     15268     15271     15274     15275
     15268     15271     15274     15276     15268     15271     15274     15277
     15269     15268     15271     15272     15269     15268     15271     15273
     15269     15268     15271     15274     15270     15268     15271     15272
     15270     15268     15271     15273     15270     15268     15271     15274
     15271     15274     15277     15278     15271     15274     15277     15279
     15271     15274     15277     15280     15272     15271     15274     15275
     15272     15271     15274     15276     15272     15271     15274     15277
     15273     15271     15274     15275     15273     15271     15274     15276
     15273     15271     15274     15277     15274     15277     15280     15281
     15274     15277     15280     15282     15274     15277     15280     15283
     15275     15274     15277     15278     15275     15274     15277     15279
     15275     15274     15277     15280     15276     15274     15277     15278
     15276     15274     15277     15279     15276     15274     15277     15280
     15277     15280     15283     15284     15277     15280     15283     15285
     15277     15280     15283     15286     15278     15277     15280     15281
     15278     15277     15280     15282     15278     15277     15280     15283
     15279     15277     15280     15281     15279     15277     15280     15282
     15279     15277     15280     15283     15280     15283     15286     15287
     15280     15283     15286     15288     15280     15283     15286     15289
     15281     15280     15283     15284     15281     15280     15283     15285
     15281     15280     15283     15286     15282     15280     15283     15284
     15282     15280     15283     15285     15282     15280     15283     15286
     15283     15286     15289     15290     15283     15286     15289     15291
     15283     15286     15289     15292     15284     15283     15286     15287
     15284     15283     15286     15288     15284     15283     15286     15289
     15285     15283     15286     15287     15285     15283     15286     15288
     15285     15283     15286     15289     15287     15286     15289     15290
     15287     15286     15289     15291     15287     15286     15289     15292
     15288     15286     15289     15290     15288     15286     15289     15291
     15288     15286     15289     15292     15293     15294     15309     15310
     15293     15294     15309     15311     15293     15294     15309     15315
     15294     15293     15297     15298     15294     15293     15297     15299
     15294     15293     15297     15300     15294     15293     15301     15302
     15294     15293     15301     15303     15294     15293     15301     15304
     15294     15293     15305     15306     15294     15293     15305     15307
     15294     15293     15305     15308     15294     15309     15315     15312
     15295     15294     15293     15297     15295     15294     15293     15301
     15295     15294     15293     15305     15295     15294     15309     15310
     15295     15294     15309     15311     15295     15294     15309     15315
     15296     15294     15293     15297     15296     15294     15293     15301
     15296     15294     15293     15305     15296     15294     15309     15310
     15296     15294     15309     15311     15296     15294     15309     15315
     15297     15293     15294     15309     15297     15293     15301     15302
     15297     15293     15301     15303     15297     15293     15301     15304
     15297     15293     15305     15306     15297     15293     15305     15307
     15297     15293     15305     15308     15298     15297     15293     15301
     15298     15297     15293     15305     15299     15297     15293     15301
     15299     15297     15293     15305     15300     15297     15293     15301
     15300     15297     15293     15305     15301     15293     15294     15309
     15301     15293     15305     15306     15301     15293     15305     15307
     15301     15293     15305     15308     15302     15301     15293     15305
     15303     15301     15293     15305     15304     15301     15293     15305
     15305     15293     15294     15309     15309     15315     15312     15313
     15309     15315     15312     15314     15309     15315     15312     15316
     15310     15309     15315     15312     15311     15309     15315     15312
     15312     15316     15317     15318     15312     15316     15317     15319
     15312     15316     15317     15320     15313     15312     15316     15317
     15314     15312     15316     15317     15315     15312     15316     15317
     15316     15317     15320     15321     15316     15317     15320     15322
     15316     15317     15320     15328     15317     15320     15322     15323
     15317     15320     15328     15329     15317     15320     15328     15330
     15317     15320     15328     15331     15318     15317     15320     15321
     15318     15317     15320     15322     15318     15317     15320     15328
     15319     15317     15320     15321     15319     15317     15320     15322
     15319     15317     15320     15328     15320     15322     15323     15324
     15320     15322     15323     15325     15320     15328     15331     15332
     15321     15320     15322     15323     15321     15320     15328     15329
     15321     15320     15328     15330     15321     15320     15328     15331
     15322     15320     15328     15329     15322     15320     15328     15330
     15322     15320     15328     15331     15322     15323     15325     15326
     15322     15323     15325     15327     15322     15323     15325     15337
     15323     15322     15320     15328     15323     15325     15337     15338
     15323     15325     15337     15339     15323     15325     15337     15340
     15324     15323     15325     15326     15324     15323     15325     15327
     15324     15323     15325     15337     15325     15337     15340     15341
     15325     15337     15340     15342     15325     15337     15340     15343
     15326     15325     15337     15338     15326     15325     15337     15339
     15326     15325     15337     15340     15327     15325     15337     15338
     15327     15325     15337     15339     15327     15325     15337     15340
     15328     15331     15332     15333     15328     15331     15332     15334
     15329     15328     15331     15332     15330     15328     15331     15332
     15331     15332     15334     15335     15331     15332     15334     15336
     15331     15332     15334     15384     15332     15334     15384     15385
     15332     15334     15384     15386     15332     15334     15384     15387
     15333     15332     15334     15335     15333     15332     15334     15336
     15333     15332     15334     15384     15334     15384     15387     15388
     15334     15384     15387     15389     15334     15384     15387     15390
     15335     15334     15384     15385     15335     15334     15384     15386
     15335     15334     15384     15387     15336     15334     15384     15385
     15336     15334     15384     15386     15336     15334     15384     15387
     15337     15340     15343     15344     15337     15340     15343     15345
     15337     15340     15343     15346     15338     15337     15340     15341
     15338     15337     15340     15342     15338     15337     15340     15343
     15339     15337     15340     15341     15339     15337     15340     15342
     15339     15337     15340     15343     15340     15343     15346     15347
     15340     15343     15346     15348     15340     15343     15346     15349
     15341     15340     15343     15344     15341     15340     15343     15345
     15341     15340     15343     15346     15342     15340     15343     15344
     15342     15340     15343     15345     15342     15340     15343     15346
     15343     15346     15349     15350     15343     15346     15349     15351
     15343     15346     15349     15352     15344     15343     15346     15347
     15344     15343     15346     15348     15344     15343     15346     15349
     15345     15343     15346     15347     15345     15343     15346     15348
     15345     15343     15346     15349     15346     15349     15352     15353
     15346     15349     15352     15354     15346     15349     15352     15355
     15347     15346     15349     15350     15347     15346     15349     15351
     15347     15346     15349     15352     15348     15346     15349     15350
     15348     15346     15349     15351     15348     15346     15349     15352
     15349     15352     15355     15356     15349     15352     15355     15357
     15350     15349     15352     15353     15350     15349     15352     15354
     15350     15349     15352     15355     15351     15349     15352     15353
     15351     15349     15352     15354     15351     15349     15352     15355
     15352     15355     15357     15358     15352     15355     15357     15359
     15353     15352     15355     15356     15353     15352     15355     15357
     15354     15352     15355     15356     15354     15352     15355     15357
     15355     15357     15359     15360     15355     15357     15359     15361
     15355     15357     15359     15362     15356     15355     15357     15358
     15356     15355     15357     15359     15357     15359     15362     15363
     15357     15359     15362     15364     15357     15359     15362     15365
     15358     15357     15359     15360     15358     15357     15359     15361
     15358     15357     15359     15362     15359     15362     15365     15366
     15359     15362     15365     15367     15359     15362     15365     15368
     15360     15359     15362     15363     15360     15359     15362     15364
     15360     15359     15362     15365     15361     15359     15362     15363
     15361     15359     15362     15364     15361     15359     15362     15365
     15362     15365     15368     15369     15362     15365     15368     15370
     15362     15365     15368     15371     15363     15362     15365     15366
     15363     15362     15365     15367     15363     15362     15365     15368
     15364     15362     15365     15366     15364     15362     15365     15367
     15364     15362     15365     15368     15365     15368     15371     15372
     15365     15368     15371     15373     15365     15368     15371     15374
     15366     15365     15368     15369     15366     15365     15368     15370
     15366     15365     15368     15371     15367     15365     15368     15369
     15367     15365     15368     15370     15367     15365     15368     15371
     15368     15371     15374     15375     15368     15371     15374     15376
     15368     15371     15374     15377     15369     15368     15371     15372
     15369     15368     15371     15373     15369     15368     15371     15374
     15370     15368     15371     15372     15370     15368     15371     15373
     15370     15368     15371     15374     15371     15374     15377     15378
     15371     15374     15377     15379     15371     15374     15377     15380
     15372     15371     15374     15375     15372     15371     15374     15376
     15372     15371     15374     15377     15373     15371     15374     15375
     15373     15371     15374     15376     15373     15371     15374     15377
     15374     15377     15380     15381     15374     15377     15380     15382
     15374     15377     15380     15383     15375     15374     15377     15378
     15375     15374     15377     15379     15375     15374     15377     15380
     15376     15374     15377     15378     15376     15374     15377     15379
     15376     15374     15377     15380     15378     15377     15380     15381
     15378     15377     15380     15382     15378     15377     15380     15383
     15379     15377     15380     15381     15379     15377     15380     15382
     15379     15377     15380     15383     15384     15387     15390     15391
     15384     15387     15390     15392     15384     15387     15390     15393
     15385     15384     15387     15388     15385     15384     15387     15389
     15385     15384     15387     15390     15386     15384     15387     15388
     15386     15384     15387     15389     15386     15384     15387     15390
     15387     15390     15393     15394     15387     15390     15393     15395
     15387     15390     15393     15396     15388     15387     15390     15391
     15388     15387     15390     15392     15388     15387     15390     15393
     15389     15387     15390     15391     15389     15387     15390     15392
     15389     15387     15390     15393     15390     15393     15396     15397
     15390     15393     15396     15398     15390     15393     15396     15399
     15391     15390     15393     15394     15391     15390     15393     15395
     15391     15390     15393     15396     15392     15390     15393     15394
     15392     15390     15393     15395     15392     15390     15393     15396
     15393     15396     15399     15400     15393     15396     15399     15401
     15393     15396     15399     15402     15394     15393     15396     15397
     15394     15393     15396     15398     15394     15393     15396     15399
     15395     15393     15396     15397     15395     15393     15396     15398
     15395     15393     15396     15399     15396     15399     15402     15403
     15396     15399     15402     15404     15396     15399     15402     15405
     15397     15396     15399     15400     15397     15396     15399     15401
     15397     15396     15399     15402     15398     15396     15399     15400
     15398     15396     15399     15401     15398     15396     15399     15402
     15399     15402     15405     15406     15399     15402     15405     15407
     15399     15402     15405     15408     15400     15399     15402     15403
     15400     15399     15402     15404     15400     15399     15402     15405
     15401     15399     15402     15403     15401     15399     15402     15404
     15401     15399     15402     15405     15402     15405     15408     15409
     15402     15405     15408     15410     15402     15405     15408     15411
     15403     15402     15405     15406     15403     15402     15405     15407
     15403     15402     15405     15408     15404     15402     15405     15406
     15404     15402     15405     15407     15404     15402     15405     15408
     15405     15408     15411     15412     15405     15408     15411     15413
     15405     15408     15411     15414     15406     15405     15408     15409
     15406     15405     15408     15410     15406     15405     15408     15411
     15407     15405     15408     15409     15407     15405     15408     15410
     15407     15405     15408     15411     15408     15411     15414     15415
     15408     15411     15414     15416     15408     15411     15414     15417
     15409     15408     15411     15412     15409     15408     15411     15413
     15409     15408     15411     15414     15410     15408     15411     15412
     15410     15408     15411     15413     15410     15408     15411     15414
     15411     15414     15417     15418     15411     15414     15417     15419
     15411     15414     15417     15420     15412     15411     15414     15415
     15412     15411     15414     15416     15412     15411     15414     15417
     15413     15411     15414     15415     15413     15411     15414     15416
     15413     15411     15414     15417     15414     15417     15420     15421
     15414     15417     15420     15422     15414     15417     15420     15423
     15415     15414     15417     15418     15415     15414     15417     15419
     15415     15414     15417     15420     15416     15414     15417     15418
     15416     15414     15417     15419     15416     15414     15417     15420
     15417     15420     15423     15424     15417     15420     15423     15425
     15417     15420     15423     15426     15418     15417     15420     15421
     15418     15417     15420     15422     15418     15417     15420     15423
     15419     15417     15420     15421     15419     15417     15420     15422
     15419     15417     15420     15423     15421     15420     15423     15424
     15421     15420     15423     15425     15421     15420     15423     15426
     15422     15420     15423     15424     15422     15420     15423     15425
     15422     15420     15423     15426     15427     15428     15443     15444
     15427     15428     15443     15445     15427     15428     15443     15449
     15428     15427     15431     15432     15428     15427     15431     15433
     15428     15427     15431     15434     15428     15427     15435     15436
     15428     15427     15435     15437     15428     15427     15435     15438
     15428     15427     15439     15440     15428     15427     15439     15441
     15428     15427     15439     15442     15428     15443     15449     15446
     15429     15428     15427     15431     15429     15428     15427     15435
     15429     15428     15427     15439     15429     15428     15443     15444
     15429     15428     15443     15445     15429     15428     15443     15449
     15430     15428     15427     15431     15430     15428     15427     15435
     15430     15428     15427     15439     15430     15428     15443     15444
     15430     15428     15443     15445     15430     15428     15443     15449
     15431     15427     15428     15443     15431     15427     15435     15436
     15431     15427     15435     15437     15431     15427     15435     15438
     15431     15427     15439     15440     15431     15427     15439     15441
     15431     15427     15439     15442     15432     15431     15427     15435
     15432     15431     15427     15439     15433     15431     15427     15435
     15433     15431     15427     15439     15434     15431     15427     15435
     15434     15431     15427     15439     15435     15427     15428     15443
     15435     15427     15439     15440     15435     15427     15439     15441
     15435     15427     15439     15442     15436     15435     15427     15439
     15437     15435     15427     15439     15438     15435     15427     15439
     15439     15427     15428     15443     15443     15449     15446     15447
     15443     15449     15446     15448     15443     15449     15446     15450
     15444     15443     15449     15446     15445     15443     15449     15446
     15446     15450     15451     15452     15446     15450     15451     15453
     15446     15450     15451     15454     15447     15446     15450     15451
     15448     15446     15450     15451     15449     15446     15450     15451
     15450     15451     15454     15455     15450     15451     15454     15456
     15450     15451     15454     15462     15451     15454     15456     15457
     15451     15454     15462     15463     15451     15454     15462     15464
     15451     15454     15462     15465     15452     15451     15454     15455
     15452     15451     15454     15456     15452     15451     15454     15462
     15453     15451     15454     15455     15453     15451     15454     15456
     15453     15451     15454     15462     15454     15456     15457     15458
     15454     15456     15457     15459     15454     15462     15465     15466
     15455     15454     15456     15457     15455     15454     15462     15463
     15455     15454     15462     15464     15455     15454     15462     15465
     15456     15454     15462     15463     15456     15454     15462     15464
     15456     15454     15462     15465     15456     15457     15459     15460
     15456     15457     15459     15461     15456     15457     15459     15471
     15457     15456     15454     15462     15457     15459     15471     15472
     15457     15459     15471     15473     15457     15459     15471     15474
     15458     15457     15459     15460     15458     15457     15459     15461
     15458     15457     15459     15471     15459     15471     15474     15475
     15459     15471     15474     15476     15459     15471     15474     15477
     15460     15459     15471     15472     15460     15459     15471     15473
     15460     15459     15471     15474     15461     15459     15471     15472
     15461     15459     15471     15473     15461     15459     15471     15474
     15462     15465     15466     15467     15462     15465     15466     15468
     15463     15462     15465     15466     15464     15462     15465     15466
     15465     15466     15468     15469     15465     15466     15468     15470
     15465     15466     15468     15518     15466     15468     15518     15519
     15466     15468     15518     15520     15466     15468     15518     15521
     15467     15466     15468     15469     15467     15466     15468     15470
     15467     15466     15468     15518     15468     15518     15521     15522
     15468     15518     15521     15523     15468     15518     15521     15524
     15469     15468     15518     15519     15469     15468     15518     15520
     15469     15468     15518     15521     15470     15468     15518     15519
     15470     15468     15518     15520     15470     15468     15518     15521
     15471     15474     15477     15478     15471     15474     15477     15479
     15471     15474     15477     15480     15472     15471     15474     15475
     15472     15471     15474     15476     15472     15471     15474     15477
     15473     15471     15474     15475     15473     15471     15474     15476
     15473     15471     15474     15477     15474     15477     15480     15481
     15474     15477     15480     15482     15474     15477     15480     15483
     15475     15474     15477     15478     15475     15474     15477     15479
     15475     15474     15477     15480     15476     15474     15477     15478
     15476     15474     15477     15479     15476     15474     15477     15480
     15477     15480     15483     15484     15477     15480     15483     15485
     15477     15480     15483     15486     15478     15477     15480     15481
     15478     15477     15480     15482     15478     15477     15480     15483
     15479     15477     15480     15481     15479     15477     15480     15482
     15479     15477     15480     15483     15480     15483     15486     15487
     15480     15483     15486     15488     15480     15483     15486     15489
     15481     15480     15483     15484     15481     15480     15483     15485
     15481     15480     15483     15486     15482     15480     15483     15484
     15482     15480     15483     15485     15482     15480     15483     15486
     15483     15486     15489     15490     15483     15486     15489     15491
     15484     15483     15486     15487     15484     15483     15486     15488
     15484     15483     15486     15489     15485     15483     15486     15487
     15485     15483     15486     15488     15485     15483     15486     15489
     15486     15489     15491     15492     15486     15489     15491     15493
     15487     15486     15489     15490     15487     15486     15489     15491
     15488     15486     15489     15490     15488     15486     15489     15491
     15489     15491     15493     15494     15489     15491     15493     15495
     15489     15491     15493     15496     15490     15489     15491     15492
     15490     15489     15491     15493     15491     15493     15496     15497
     15491     15493     15496     15498     15491     15493     15496     15499
     15492     15491     15493     15494     15492     15491     15493     15495
     15492     15491     15493     15496     15493     15496     15499     15500
     15493     15496     15499     15501     15493     15496     15499     15502
     15494     15493     15496     15497     15494     15493     15496     15498
     15494     15493     15496     15499     15495     15493     15496     15497
     15495     15493     15496     15498     15495     15493     15496     15499
     15496     15499     15502     15503     15496     15499     15502     15504
     15496     15499     15502     15505     15497     15496     15499     15500
     15497     15496     15499     15501     15497     15496     15499     15502
     15498     15496     15499     15500     15498     15496     15499     15501
     15498     15496     15499     15502     15499     15502     15505     15506
     15499     15502     15505     15507     15499     15502     15505     15508
     15500     15499     15502     15503     15500     15499     15502     15504
     15500     15499     15502     15505     15501     15499     15502     15503
     15501     15499     15502     15504     15501     15499     15502     15505
     15502     15505     15508     15509     15502     15505     15508     15510
     15502     15505     15508     15511     15503     15502     15505     15506
     15503     15502     15505     15507     15503     15502     15505     15508
     15504     15502     15505     15506     15504     15502     15505     15507
     15504     15502     15505     15508     15505     15508     15511     15512
     15505     15508     15511     15513     15505     15508     15511     15514
     15506     15505     15508     15509     15506     15505     15508     15510
     15506     15505     15508     15511     15507     15505     15508     15509
     15507     15505     15508     15510     15507     15505     15508     15511
     15508     15511     15514     15515     15508     15511     15514     15516
     15508     15511     15514     15517     15509     15508     15511     15512
     15509     15508     15511     15513     15509     15508     15511     15514
     15510     15508     15511     15512     15510     15508     15511     15513
     15510     15508     15511     15514     15512     15511     15514     15515
     15512     15511     15514     15516     15512     15511     15514     15517
     15513     15511     15514     15515     15513     15511     15514     15516
     15513     15511     15514     15517     15518     15521     15524     15525
     15518     15521     15524     15526     15518     15521     15524     15527
     15519     15518     15521     15522     15519     15518     15521     15523
     15519     15518     15521     15524     15520     15518     15521     15522
     15520     15518     15521     15523     15520     15518     15521     15524
     15521     15524     15527     15528     15521     15524     15527     15529
     15521     15524     15527     15530     15522     15521     15524     15525
     15522     15521     15524     15526     15522     15521     15524     15527
     15523     15521     15524     15525     15523     15521     15524     15526
     15523     15521     15524     15527     15524     15527     15530     15531
     15524     15527     15530     15532     15524     15527     15530     15533
     15525     15524     15527     15528     15525     15524     15527     15529
     15525     15524     15527     15530     15526     15524     15527     15528
     15526     15524     15527     15529     15526     15524     15527     15530
     15527     15530     15533     15534     15527     15530     15533     15535
     15527     15530     15533     15536     15528     15527     15530     15531
     15528     15527     15530     15532     15528     15527     15530     15533
     15529     15527     15530     15531     15529     15527     15530     15532
     15529     15527     15530     15533     15530     15533     15536     15537
     15530     15533     15536     15538     15530     15533     15536     15539
     15531     15530     15533     15534     15531     15530     15533     15535
     15531     15530     15533     15536     15532     15530     15533     15534
     15532     15530     15533     15535     15532     15530     15533     15536
     15533     15536     15539     15540     15533     15536     15539     15541
     15533     15536     15539     15542     15534     15533     15536     15537
     15534     15533     15536     15538     15534     15533     15536     15539
     15535     15533     15536     15537     15535     15533     15536     15538
     15535     15533     15536     15539     15536     15539     15542     15543
     15536     15539     15542     15544     15536     15539     15542     15545
     15537     15536     15539     15540     15537     15536     15539     15541
     15537     15536     15539     15542     15538     15536     15539     15540
     15538     15536     15539     15541     15538     15536     15539     15542
     15539     15542     15545     15546     15539     15542     15545     15547
     15539     15542     15545     15548     15540     15539     15542     15543
     15540     15539     15542     15544     15540     15539     15542     15545
     15541     15539     15542     15543     15541     15539     15542     15544
     15541     15539     15542     15545     15542     15545     15548     15549
     15542     15545     15548     15550     15542     15545     15548     15551
     15543     15542     15545     15546     15543     15542     15545     15547
     15543     15542     15545     15548     15544     15542     15545     15546
     15544     15542     15545     15547     15544     15542     15545     15548
     15545     15548     15551     15552     15545     15548     15551     15553
     15545     15548     15551     15554     15546     15545     15548     15549
     15546     15545     15548     15550     15546     15545     15548     15551
     15547     15545     15548     15549     15547     15545     15548     15550
     15547     15545     15548     15551     15548     15551     15554     15555
     15548     15551     15554     15556     15548     15551     15554     15557
     15549     15548     15551     15552     15549     15548     15551     15553
     15549     15548     15551     15554     15550     15548     15551     15552
     15550     15548     15551     15553     15550     15548     15551     15554
     15551     15554     15557     15558     15551     15554     15557     15559
     15551     15554     15557     15560     15552     15551     15554     15555
     15552     15551     15554     15556     15552     15551     15554     15557
     15553     15551     15554     15555     15553     15551     15554     15556
     15553     15551     15554     15557     15555     15554     15557     15558
     15555     15554     15557     15559     15555     15554     15557     15560
     15556     15554     15557     15558     15556     15554     15557     15559
     15556     15554     15557     15560     15561     15562     15577     15578
     15561     15562     15577     15579     15561     15562     15577     15583
     15562     15561     15565     15566     15562     15561     15565     15567
     15562     15561     15565     15568     15562     15561     15569     15570
     15562     15561     15569     15571     15562     15561     15569     15572
     15562     15561     15573     15574     15562     15561     15573     15575
     15562     15561     15573     15576     15562     15577     15583     15580
     15563     15562     15561     15565     15563     15562     15561     15569
     15563     15562     15561     15573     15563     15562     15577     15578
     15563     15562     15577     15579     15563     15562     15577     15583
     15564     15562     15561     15565     15564     15562     15561     15569
     15564     15562     15561     15573     15564     15562     15577     15578
     15564     15562     15577     15579     15564     15562     15577     15583
     15565     15561     15562     15577     15565     15561     15569     15570
     15565     15561     15569     15571     15565     15561     15569     15572
     15565     15561     15573     15574     15565     15561     15573     15575
     15565     15561     15573     15576     15566     15565     15561     15569
     15566     15565     15561     15573     15567     15565     15561     15569
     15567     15565     15561     15573     15568     15565     15561     15569
     15568     15565     15561     15573     15569     15561     15562     15577
     15569     15561     15573     15574     15569     15561     15573     15575
     15569     15561     15573     15576     15570     15569     15561     15573
     15571     15569     15561     15573     15572     15569     15561     15573
     15573     15561     15562     15577     15577     15583     15580     15581
     15577     15583     15580     15582     15577     15583     15580     15584
     15578     15577     15583     15580     15579     15577     15583     15580
     15580     15584     15585     15586     15580     15584     15585     15587
     15580     15584     15585     15588     15581     15580     15584     15585
     15582     15580     15584     15585     15583     15580     15584     15585
     15584     15585     15588     15589     15584     15585     15588     15590
     15584     15585     15588     15596     15585     15588     15590     15591
     15585     15588     15596     15597     15585     15588     15596     15598
     15585     15588     15596     15599     15586     15585     15588     15589
     15586     15585     15588     15590     15586     15585     15588     15596
     15587     15585     15588     15589     15587     15585     15588     15590
     15587     15585     15588     15596     15588     15590     15591     15592
     15588     15590     15591     15593     15588     15596     15599     15600
     15589     15588     15590     15591     15589     15588     15596     15597
     15589     15588     15596     15598     15589     15588     15596     15599
     15590     15588     15596     15597     15590     15588     15596     15598
     15590     15588     15596     15599     15590     15591     15593     15594
     15590     15591     15593     15595     15590     15591     15593     15605
     15591     15590     15588     15596     15591     15593     15605     15606
     15591     15593     15605     15607     15591     15593     15605     15608
     15592     15591     15593     15594     15592     15591     15593     15595
     15592     15591     15593     15605     15593     15605     15608     15609
     15593     15605     15608     15610     15593     15605     15608     15611
     15594     15593     15605     15606     15594     15593     15605     15607
     15594     15593     15605     15608     15595     15593     15605     15606
     15595     15593     15605     15607     15595     15593     15605     15608
     15596     15599     15600     15601     15596     15599     15600     15602
     15597     15596     15599     15600     15598     15596     15599     15600
     15599     15600     15602     15603     15599     15600     15602     15604
     15599     15600     15602     15652     15600     15602     15652     15653
     15600     15602     15652     15654     15600     15602     15652     15655
     15601     15600     15602     15603     15601     15600     15602     15604
     15601     15600     15602     15652     15602     15652     15655     15656
     15602     15652     15655     15657     15602     15652     15655     15658
     15603     15602     15652     15653     15603     15602     15652     15654
     15603     15602     15652     15655     15604     15602     15652     15653
     15604     15602     15652     15654     15604     15602     15652     15655
     15605     15608     15611     15612     15605     15608     15611     15613
     15605     15608     15611     15614     15606     15605     15608     15609
     15606     15605     15608     15610     15606     15605     15608     15611
     15607     15605     15608     15609     15607     15605     15608     15610
     15607     15605     15608     15611     15608     15611     15614     15615
     15608     15611     15614     15616     15608     15611     15614     15617
     15609     15608     15611     15612     15609     15608     15611     15613
     15609     15608     15611     15614     15610     15608     15611     15612
     15610     15608     15611     15613     15610     15608     15611     15614
     15611     15614     15617     15618     15611     15614     15617     15619
     15611     15614     15617     15620     15612     15611     15614     15615
     15612     15611     15614     15616     15612     15611     15614     15617
     15613     15611     15614     15615     15613     15611     15614     15616
     15613     15611     15614     15617     15614     15617     15620     15621
     15614     15617     15620     15622     15614     15617     15620     15623
     15615     15614     15617     15618     15615     15614     15617     15619
     15615     15614     15617     15620     15616     15614     15617     15618
     15616     15614     15617     15619     15616     15614     15617     15620
     15617     15620     15623     15624     15617     15620     15623     15625
     15618     15617     15620     15621     15618     15617     15620     15622
     15618     15617     15620     15623     15619     15617     15620     15621
     15619     15617     15620     15622     15619     15617     15620     15623
     15620     15623     15625     15626     15620     15623     15625     15627
     15621     15620     15623     15624     15621     15620     15623     15625
     15622     15620     15623     15624     15622     15620     15623     15625
     15623     15625     15627     15628     15623     15625     15627     15629
     15623     15625     15627     15630     15624     15623     15625     15626
     15624     15623     15625     15627     15625     15627     15630     15631
     15625     15627     15630     15632     15625     15627     15630     15633
     15626     15625     15627     15628     15626     15625     15627     15629
     15626     15625     15627     15630     15627     15630     15633     15634
     15627     15630     15633     15635     15627     15630     15633     15636
     15628     15627     15630     15631     15628     15627     15630     15632
     15628     15627     15630     15633     15629     15627     15630     15631
     15629     15627     15630     15632     15629     15627     15630     15633
     15630     15633     15636     15637     15630     15633     15636     15638
     15630     15633     15636     15639     15631     15630     15633     15634
     15631     15630     15633     15635     15631     15630     15633     15636
     15632     15630     15633     15634     15632     15630     15633     15635
     15632     15630     15633     15636     15633     15636     15639     15640
     15633     15636     15639     15641     15633     15636     15639     15642
     15634     15633     15636     15637     15634     15633     15636     15638
     15634     15633     15636     15639     15635     15633     15636     15637
     15635     15633     15636     15638     15635     15633     15636     15639
     15636     15639     15642     15643     15636     15639     15642     15644
     15636     15639     15642     15645     15637     15636     15639     15640
     15637     15636     15639     15641     15637     15636     15639     15642
     15638     15636     15639     15640     15638     15636     15639     15641
     15638     15636     15639     15642     15639     15642     15645     15646
     15639     15642     15645     15647     15639     15642     15645     15648
     15640     15639     15642     15643     15640     15639     15642     15644
     15640     15639     15642     15645     15641     15639     15642     15643
     15641     15639     15642     15644     15641     15639     15642     15645
     15642     15645     15648     15649     15642     15645     15648     15650
     15642     15645     15648     15651     15643     15642     15645     15646
     15643     15642     15645     15647     15643     15642     15645     15648
     15644     15642     15645     15646     15644     15642     15645     15647
     15644     15642     15645     15648     15646     15645     15648     15649
     15646     15645     15648     15650     15646     15645     15648     15651
     15647     15645     15648     15649     15647     15645     15648     15650
     15647     15645     15648     15651     15652     15655     15658     15659
     15652     15655     15658     15660     15652     15655     15658     15661
     15653     15652     15655     15656     15653     15652     15655     15657
     15653     15652     15655     15658     15654     15652     15655     15656
     15654     15652     15655     15657     15654     15652     15655     15658
     15655     15658     15661     15662     15655     15658     15661     15663
     15655     15658     15661     15664     15656     15655     15658     15659
     15656     15655     15658     15660     15656     15655     15658     15661
     15657     15655     15658     15659     15657     15655     15658     15660
     15657     15655     15658     15661     15658     15661     15664     15665
     15658     15661     15664     15666     15658     15661     15664     15667
     15659     15658     15661     15662     15659     15658     15661     15663
     15659     15658     15661     15664     15660     15658     15661     15662
     15660     15658     15661     15663     15660     15658     15661     15664
     15661     15664     15667     15668     15661     15664     15667     15669
     15661     15664     15667     15670     15662     15661     15664     15665
     15662     15661     15664     15666     15662     15661     15664     15667
     15663     15661     15664     15665     15663     15661     15664     15666
     15663     15661     15664     15667     15664     15667     15670     15671
     15664     15667     15670     15672     15664     15667     15670     15673
     15665     15664     15667     15668     15665     15664     15667     15669
     15665     15664     15667     15670     15666     15664     15667     15668
     15666     15664     15667     15669     15666     15664     15667     15670
     15667     15670     15673     15674     15667     15670     15673     15675
     15667     15670     15673     15676     15668     15667     15670     15671
     15668     15667     15670     15672     15668     15667     15670     15673
     15669     15667     15670     15671     15669     15667     15670     15672
     15669     15667     15670     15673     15670     15673     15676     15677
     15670     15673     15676     15678     15670     15673     15676     15679
     15671     15670     15673     15674     15671     15670     15673     15675
     15671     15670     15673     15676     15672     15670     15673     15674
     15672     15670     15673     15675     15672     15670     15673     15676
     15673     15676     15679     15680     15673     15676     15679     15681
     15673     15676     15679     15682     15674     15673     15676     15677
     15674     15673     15676     15678     15674     15673     15676     15679
     15675     15673     15676     15677     15675     15673     15676     15678
     15675     15673     15676     15679     15676     15679     15682     15683
     15676     15679     15682     15684     15676     15679     15682     15685
     15677     15676     15679     15680     15677     15676     15679     15681
     15677     15676     15679     15682     15678     15676     15679     15680
     15678     15676     15679     15681     15678     15676     15679     15682
     15679     15682     15685     15686     15679     15682     15685     15687
     15679     15682     15685     15688     15680     15679     15682     15683
     15680     15679     15682     15684     15680     15679     15682     15685
     15681     15679     15682     15683     15681     15679     15682     15684
     15681     15679     15682     15685     15682     15685     15688     15689
     15682     15685     15688     15690     15682     15685     15688     15691
     15683     15682     15685     15686     15683     15682     15685     15687
     15683     15682     15685     15688     15684     15682     15685     15686
     15684     15682     15685     15687     15684     15682     15685     15688
     15685     15688     15691     15692     15685     15688     15691     15693
     15685     15688     15691     15694     15686     15685     15688     15689
     15686     15685     15688     15690     15686     15685     15688     15691
     15687     15685     15688     15689     15687     15685     15688     15690
     15687     15685     15688     15691     15689     15688     15691     15692
     15689     15688     15691     15693     15689     15688     15691     15694
     15690     15688     15691     15692     15690     15688     15691     15693
     15690     15688     15691     15694     15695     15696     15711     15712
     15695     15696     15711     15713     15695     15696     15711     15717
     15696     15695     15699     15700     15696     15695     15699     15701
     15696     15695     15699     15702     15696     15695     15703     15704
     15696     15695     15703     15705     15696     15695     15703     15706
     15696     15695     15707     15708     15696     15695     15707     15709
     15696     15695     15707     15710     15696     15711     15717     15714
     15697     15696     15695     15699     15697     15696     15695     15703
     15697     15696     15695     15707     15697     15696     15711     15712
     15697     15696     15711     15713     15697     15696     15711     15717
     15698     15696     15695     15699     15698     15696     15695     15703
     15698     15696     15695     15707     15698     15696     15711     15712
     15698     15696     15711     15713     15698     15696     15711     15717
     15699     15695     15696     15711     15699     15695     15703     15704
     15699     15695     15703     15705     15699     15695     15703     15706
     15699     15695     15707     15708     15699     15695     15707     15709
     15699     15695     15707     15710     15700     15699     15695     15703
     15700     15699     15695     15707     15701     15699     15695     15703
     15701     15699     15695     15707     15702     15699     15695     15703
     15702     15699     15695     15707     15703     15695     15696     15711
     15703     15695     15707     15708     15703     15695     15707     15709
     15703     15695     15707     15710     15704     15703     15695     15707
     15705     15703     15695     15707     15706     15703     15695     15707
     15707     15695     15696     15711     15711     15717     15714     15715
     15711     15717     15714     15716     15711     15717     15714     15718
     15712     15711     15717     15714     15713     15711     15717     15714
     15714     15718     15719     15720     15714     15718     15719     15721
     15714     15718     15719     15722     15715     15714     15718     15719
     15716     15714     15718     15719     15717     15714     15718     15719
     15718     15719     15722     15723     15718     15719     15722     15724
     15718     15719     15722     15730     15719     15722     15724     15725
     15719     15722     15730     15731     15719     15722     15730     15732
     15719     15722     15730     15733     15720     15719     15722     15723
     15720     15719     15722     15724     15720     15719     15722     15730
     15721     15719     15722     15723     15721     15719     15722     15724
     15721     15719     15722     15730     15722     15724     15725     15726
     15722     15724     15725     15727     15722     15730     15733     15734
     15723     15722     15724     15725     15723     15722     15730     15731
     15723     15722     15730     15732     15723     15722     15730     15733
     15724     15722     15730     15731     15724     15722     15730     15732
     15724     15722     15730     15733     15724     15725     15727     15728
     15724     15725     15727     15729     15724     15725     15727     15739
     15725     15724     15722     15730     15725     15727     15739     15740
     15725     15727     15739     15741     15725     15727     15739     15742
     15726     15725     15727     15728     15726     15725     15727     15729
     15726     15725     15727     15739     15727     15739     15742     15743
     15727     15739     15742     15744     15727     15739     15742     15745
     15728     15727     15739     15740     15728     15727     15739     15741
     15728     15727     15739     15742     15729     15727     15739     15740
     15729     15727     15739     15741     15729     15727     15739     15742
     15730     15733     15734     15735     15730     15733     15734     15736
     15731     15730     15733     15734     15732     15730     15733     15734
     15733     15734     15736     15737     15733     15734     15736     15738
     15733     15734     15736     15786     15734     15736     15786     15787
     15734     15736     15786     15788     15734     15736     15786     15789
     15735     15734     15736     15737     15735     15734     15736     15738
     15735     15734     15736     15786     15736     15786     15789     15790
     15736     15786     15789     15791     15736     15786     15789     15792
     15737     15736     15786     15787     15737     15736     15786     15788
     15737     15736     15786     15789     15738     15736     15786     15787
     15738     15736     15786     15788     15738     15736     15786     15789
     15739     15742     15745     15746     15739     15742     15745     15747
     15739     15742     15745     15748     15740     15739     15742     15743
     15740     15739     15742     15744     15740     15739     15742     15745
     15741     15739     15742     15743     15741     15739     15742     15744
     15741     15739     15742     15745     15742     15745     15748     15749
     15742     15745     15748     15750     15742     15745     15748     15751
     15743     15742     15745     15746     15743     15742     15745     15747
     15743     15742     15745     15748     15744     15742     15745     15746
     15744     15742     15745     15747     15744     15742     15745     15748
     15745     15748     15751     15752     15745     15748     15751     15753
     15745     15748     15751     15754     15746     15745     15748     15749
     15746     15745     15748     15750     15746     15745     15748     15751
     15747     15745     15748     15749     15747     15745     15748     15750
     15747     15745     15748     15751     15748     15751     15754     15755
     15748     15751     15754     15756     15748     15751     15754     15757
     15749     15748     15751     15752     15749     15748     15751     15753
     15749     15748     15751     15754     15750     15748     15751     15752
     15750     15748     15751     15753     15750     15748     15751     15754
     15751     15754     15757     15758     15751     15754     15757     15759
     15752     15751     15754     15755     15752     15751     15754     15756
     15752     15751     15754     15757     15753     15751     15754     15755
     15753     15751     15754     15756     15753     15751     15754     15757
     15754     15757     15759     15760     15754     15757     15759     15761
     15755     15754     15757     15758     15755     15754     15757     15759
     15756     15754     15757     15758     15756     15754     15757     15759
     15757     15759     15761     15762     15757     15759     15761     15763
     15757     15759     15761     15764     15758     15757     15759     15760
     15758     15757     15759     15761     15759     15761     15764     15765
     15759     15761     15764     15766     15759     15761     15764     15767
     15760     15759     15761     15762     15760     15759     15761     15763
     15760     15759     15761     15764     15761     15764     15767     15768
     15761     15764     15767     15769     15761     15764     15767     15770
     15762     15761     15764     15765     15762     15761     15764     15766
     15762     15761     15764     15767     15763     15761     15764     15765
     15763     15761     15764     15766     15763     15761     15764     15767
     15764     15767     15770     15771     15764     15767     15770     15772
     15764     15767     15770     15773     15765     15764     15767     15768
     15765     15764     15767     15769     15765     15764     15767     15770
     15766     15764     15767     15768     15766     15764     15767     15769
     15766     15764     15767     15770     15767     15770     15773     15774
     15767     15770     15773     15775     15767     15770     15773     15776
     15768     15767     15770     15771     15768     15767     15770     15772
     15768     15767     15770     15773     15769     15767     15770     15771
     15769     15767     15770     15772     15769     15767     15770     15773
     15770     15773     15776     15777     15770     15773     15776     15778
     15770     15773     15776     15779     15771     15770     15773     15774
     15771     15770     15773     15775     15771     15770     15773     15776
     15772     15770     15773     15774     15772     15770     15773     15775
     15772     15770     15773     15776     15773     15776     15779     15780
     15773     15776     15779     15781     15773     15776     15779     15782
     15774     15773     15776     15777     15774     15773     15776     15778
     15774     15773     15776     15779     15775     15773     15776     15777
     15775     15773     15776     15778     15775     15773     15776     15779
     15776     15779     15782     15783     15776     15779     15782     15784
     15776     15779     15782     15785     15777     15776     15779     15780
     15777     15776     15779     15781     15777     15776     15779     15782
     15778     15776     15779     15780     15778     15776     15779     15781
     15778     15776     15779     15782     15780     15779     15782     15783
     15780     15779     15782     15784     15780     15779     15782     15785
     15781     15779     15782     15783     15781     15779     15782     15784
     15781     15779     15782     15785     15786     15789     15792     15793
     15786     15789     15792     15794     15786     15789     15792     15795
     15787     15786     15789     15790     15787     15786     15789     15791
     15787     15786     15789     15792     15788     15786     15789     15790
     15788     15786     15789     15791     15788     15786     15789     15792
     15789     15792     15795     15796     15789     15792     15795     15797
     15789     15792     15795     15798     15790     15789     15792     15793
     15790     15789     15792     15794     15790     15789     15792     15795
     15791     15789     15792     15793     15791     15789     15792     15794
     15791     15789     15792     15795     15792     15795     15798     15799
     15792     15795     15798     15800     15792     15795     15798     15801
     15793     15792     15795     15796     15793     15792     15795     15797
     15793     15792     15795     15798     15794     15792     15795     15796
     15794     15792     15795     15797     15794     15792     15795     15798
     15795     15798     15801     15802     15795     15798     15801     15803
     15795     15798     15801     15804     15796     15795     15798     15799
     15796     15795     15798     15800     15796     15795     15798     15801
     15797     15795     15798     15799     15797     15795     15798     15800
     15797     15795     15798     15801     15798     15801     15804     15805
     15798     15801     15804     15806     15798     15801     15804     15807
     15799     15798     15801     15802     15799     15798     15801     15803
     15799     15798     15801     15804     15800     15798     15801     15802
     15800     15798     15801     15803     15800     15798     15801     15804
     15801     15804     15807     15808     15801     15804     15807     15809
     15801     15804     15807     15810     15802     15801     15804     15805
     15802     15801     15804     15806     15802     15801     15804     15807
     15803     15801     15804     15805     15803     15801     15804     15806
     15803     15801     15804     15807     15804     15807     15810     15811
     15804     15807     15810     15812     15804     15807     15810     15813
     15805     15804     15807     15808     15805     15804     15807     15809
     15805     15804     15807     15810     15806     15804     15807     15808
     15806     15804     15807     15809     15806     15804     15807     15810
     15807     15810     15813     15814     15807     15810     15813     15815
     15807     15810     15813     15816     15808     15807     15810     15811
     15808     15807     15810     15812     15808     15807     15810     15813
     15809     15807     15810     15811     15809     15807     15810     15812
     15809     15807     15810     15813     15810     15813     15816     15817
     15810     15813     15816     15818     15810     15813     15816     15819
     15811     15810     15813     15814     15811     15810     15813     15815
     15811     15810     15813     15816     15812     15810     15813     15814
     15812     15810     15813     15815     15812     15810     15813     15816
     15813     15816     15819     15820     15813     15816     15819     15821
     15813     15816     15819     15822     15814     15813     15816     15817
     15814     15813     15816     15818     15814     15813     15816     15819
     15815     15813     15816     15817     15815     15813     15816     15818
     15815     15813     15816     15819     15816     15819     15822     15823
     15816     15819     15822     15824     15816     15819     15822     15825
     15817     15816     15819     15820     15817     15816     15819     15821
     15817     15816     15819     15822     15818     15816     15819     15820
     15818     15816     15819     15821     15818     15816     15819     15822
     15819     15822     15825     15826     15819     15822     15825     15827
     15819     15822     15825     15828     15820     15819     15822     15823
     15820     15819     15822     15824     15820     15819     15822     15825
     15821     15819     15822     15823     15821     15819     15822     15824
     15821     15819     15822     15825     15823     15822     15825     15826
     15823     15822     15825     15827     15823     15822     15825     15828
     15824     15822     15825     15826     15824     15822     15825     15827
     15824     15822     15825     15828     15829     15830     15845     15846
     15829     15830     15845     15847     15829     15830     15845     15851
     15830     15829     15833     15834     15830     15829     15833     15835
     15830     15829     15833     15836     15830     15829     15837     15838
     15830     15829     15837     15839     15830     15829     15837     15840
     15830     15829     15841     15842     15830     15829     15841     15843
     15830     15829     15841     15844     15830     15845     15851     15848
     15831     15830     15829     15833     15831     15830     15829     15837
     15831     15830     15829     15841     15831     15830     15845     15846
     15831     15830     15845     15847     15831     15830     15845     15851
     15832     15830     15829     15833     15832     15830     15829     15837
     15832     15830     15829     15841     15832     15830     15845     15846
     15832     15830     15845     15847     15832     15830     15845     15851
     15833     15829     15830     15845     15833     15829     15837     15838
     15833     15829     15837     15839     15833     15829     15837     15840
     15833     15829     15841     15842     15833     15829     15841     15843
     15833     15829     15841     15844     15834     15833     15829     15837
     15834     15833     15829     15841     15835     15833     15829     15837
     15835     15833     15829     15841     15836     15833     15829     15837
     15836     15833     15829     15841     15837     15829     15830     15845
     15837     15829     15841     15842     15837     15829     15841     15843
     15837     15829     15841     15844     15838     15837     15829     15841
     15839     15837     15829     15841     15840     15837     15829     15841
     15841     15829     15830     15845     15845     15851     15848     15849
     15845     15851     15848     15850     15845     15851     15848     15852
     15846     15845     15851     15848     15847     15845     15851     15848
     15848     15852     15853     15854     15848     15852     15853     15855
     15848     15852     15853     15856     15849     15848     15852     15853
     15850     15848     15852     15853     15851     15848     15852     15853
     15852     15853     15856     15857     15852     15853     15856     15858
     15852     15853     15856     15864     15853     15856     15858     15859
     15853     15856     15864     15865     15853     15856     15864     15866
     15853     15856     15864     15867     15854     15853     15856     15857
     15854     15853     15856     15858     15854     15853     15856     15864
     15855     15853     15856     15857     15855     15853     15856     15858
     15855     15853     15856     15864     15856     15858     15859     15860
     15856     15858     15859     15861     15856     15864     15867     15868
     15857     15856     15858     15859     15857     15856     15864     15865
     15857     15856     15864     15866     15857     15856     15864     15867
     15858     15856     15864     15865     15858     15856     15864     15866
     15858     15856     15864     15867     15858     15859     15861     15862
     15858     15859     15861     15863     15858     15859     15861     15873
     15859     15858     15856     15864     15859     15861     15873     15874
     15859     15861     15873     15875     15859     15861     15873     15876
     15860     15859     15861     15862     15860     15859     15861     15863
     15860     15859     15861     15873     15861     15873     15876     15877
     15861     15873     15876     15878     15861     15873     15876     15879
     15862     15861     15873     15874     15862     15861     15873     15875
     15862     15861     15873     15876     15863     15861     15873     15874
     15863     15861     15873     15875     15863     15861     15873     15876
     15864     15867     15868     15869     15864     15867     15868     15870
     15865     15864     15867     15868     15866     15864     15867     15868
     15867     15868     15870     15871     15867     15868     15870     15872
     15867     15868     15870     15920     15868     15870     15920     15921
     15868     15870     15920     15922     15868     15870     15920     15923
     15869     15868     15870     15871     15869     15868     15870     15872
     15869     15868     15870     15920     15870     15920     15923     15924
     15870     15920     15923     15925     15870     15920     15923     15926
     15871     15870     15920     15921     15871     15870     15920     15922
     15871     15870     15920     15923     15872     15870     15920     15921
     15872     15870     15920     15922     15872     15870     15920     15923
     15873     15876     15879     15880     15873     15876     15879     15881
     15873     15876     15879     15882     15874     15873     15876     15877
     15874     15873     15876     15878     15874     15873     15876     15879
     15875     15873     15876     15877     15875     15873     15876     15878
     15875     15873     15876     15879     15876     15879     15882     15883
     15876     15879     15882     15884     15876     15879     15882     15885
     15877     15876     15879     15880     15877     15876     15879     15881
     15877     15876     15879     15882     15878     15876     15879     15880
     15878     15876     15879     15881     15878     15876     15879     15882
     15879     15882     15885     15886     15879     15882     15885     15887
     15879     15882     15885     15888     15880     15879     15882     15883
     15880     15879     15882     15884     15880     15879     15882     15885
     15881     15879     15882     15883     15881     15879     15882     15884
     15881     15879     15882     15885     15882     15885     15888     15889
     15882     15885     15888     15890     15882     15885     15888     15891
     15883     15882     15885     15886     15883     15882     15885     15887
     15883     15882     15885     15888     15884     15882     15885     15886
     15884     15882     15885     15887     15884     15882     15885     15888
     15885     15888     15891     15892     15885     15888     15891     15893
     15886     15885     15888     15889     15886     15885     15888     15890
     15886     15885     15888     15891     15887     15885     15888     15889
     15887     15885     15888     15890     15887     15885     15888     15891
     15888     15891     15893     15894     15888     15891     15893     15895
     15889     15888     15891     15892     15889     15888     15891     15893
     15890     15888     15891     15892     15890     15888     15891     15893
     15891     15893     15895     15896     15891     15893     15895     15897
     15891     15893     15895     15898     15892     15891     15893     15894
     15892     15891     15893     15895     15893     15895     15898     15899
     15893     15895     15898     15900     15893     15895     15898     15901
     15894     15893     15895     15896     15894     15893     15895     15897
     15894     15893     15895     15898     15895     15898     15901     15902
     15895     15898     15901     15903     15895     15898     15901     15904
     15896     15895     15898     15899     15896     15895     15898     15900
     15896     15895     15898     15901     15897     15895     15898     15899
     15897     15895     15898     15900     15897     15895     15898     15901
     15898     15901     15904     15905     15898     15901     15904     15906
     15898     15901     15904     15907     15899     15898     15901     15902
     15899     15898     15901     15903     15899     15898     15901     15904
     15900     15898     15901     15902     15900     15898     15901     15903
     15900     15898     15901     15904     15901     15904     15907     15908
     15901     15904     15907     15909     15901     15904     15907     15910
     15902     15901     15904     15905     15902     15901     15904     15906
     15902     15901     15904     15907     15903     15901     15904     15905
     15903     15901     15904     15906     15903     15901     15904     15907
     15904     15907     15910     15911     15904     15907     15910     15912
     15904     15907     15910     15913     15905     15904     15907     15908
     15905     15904     15907     15909     15905     15904     15907     15910
     15906     15904     15907     15908     15906     15904     15907     15909
     15906     15904     15907     15910     15907     15910     15913     15914
     15907     15910     15913     15915     15907     15910     15913     15916
     15908     15907     15910     15911     15908     15907     15910     15912
     15908     15907     15910     15913     15909     15907     15910     15911
     15909     15907     15910     15912     15909     15907     15910     15913
     15910     15913     15916     15917     15910     15913     15916     15918
     15910     15913     15916     15919     15911     15910     15913     15914
     15911     15910     15913     15915     15911     15910     15913     15916
     15912     15910     15913     15914     15912     15910     15913     15915
     15912     15910     15913     15916     15914     15913     15916     15917
     15914     15913     15916     15918     15914     15913     15916     15919
     15915     15913     15916     15917     15915     15913     15916     15918
     15915     15913     15916     15919     15920     15923     15926     15927
     15920     15923     15926     15928     15920     15923     15926     15929
     15921     15920     15923     15924     15921     15920     15923     15925
     15921     15920     15923     15926     15922     15920     15923     15924
     15922     15920     15923     15925     15922     15920     15923     15926
     15923     15926     15929     15930     15923     15926     15929     15931
     15923     15926     15929     15932     15924     15923     15926     15927
     15924     15923     15926     15928     15924     15923     15926     15929
     15925     15923     15926     15927     15925     15923     15926     15928
     15925     15923     15926     15929     15926     15929     15932     15933
     15926     15929     15932     15934     15926     15929     15932     15935
     15927     15926     15929     15930     15927     15926     15929     15931
     15927     15926     15929     15932     15928     15926     15929     15930
     15928     15926     15929     15931     15928     15926     15929     15932
     15929     15932     15935     15936     15929     15932     15935     15937
     15929     15932     15935     15938     15930     15929     15932     15933
     15930     15929     15932     15934     15930     15929     15932     15935
     15931     15929     15932     15933     15931     15929     15932     15934
     15931     15929     15932     15935     15932     15935     15938     15939
     15932     15935     15938     15940     15932     15935     15938     15941
     15933     15932     15935     15936     15933     15932     15935     15937
     15933     15932     15935     15938     15934     15932     15935     15936
     15934     15932     15935     15937     15934     15932     15935     15938
     15935     15938     15941     15942     15935     15938     15941     15943
     15935     15938     15941     15944     15936     15935     15938     15939
     15936     15935     15938     15940     15936     15935     15938     15941
     15937     15935     15938     15939     15937     15935     15938     15940
     15937     15935     15938     15941     15938     15941     15944     15945
     15938     15941     15944     15946     15938     15941     15944     15947
     15939     15938     15941     15942     15939     15938     15941     15943
     15939     15938     15941     15944     15940     15938     15941     15942
     15940     15938     15941     15943     15940     15938     15941     15944
     15941     15944     15947     15948     15941     15944     15947     15949
     15941     15944     15947     15950     15942     15941     15944     15945
     15942     15941     15944     15946     15942     15941     15944     15947
     15943     15941     15944     15945     15943     15941     15944     15946
     15943     15941     15944     15947     15944     15947     15950     15951
     15944     15947     15950     15952     15944     15947     15950     15953
     15945     15944     15947     15948     15945     15944     15947     15949
     15945     15944     15947     15950     15946     15944     15947     15948
     15946     15944     15947     15949     15946     15944     15947     15950
     15947     15950     15953     15954     15947     15950     15953     15955
     15947     15950     15953     15956     15948     15947     15950     15951
     15948     15947     15950     15952     15948     15947     15950     15953
     15949     15947     15950     15951     15949     15947     15950     15952
     15949     15947     15950     15953     15950     15953     15956     15957
     15950     15953     15956     15958     15950     15953     15956     15959
     15951     15950     15953     15954     15951     15950     15953     15955
     15951     15950     15953     15956     15952     15950     15953     15954
     15952     15950     15953     15955     15952     15950     15953     15956
     15953     15956     15959     15960     15953     15956     15959     15961
     15953     15956     15959     15962     15954     15953     15956     15957
     15954     15953     15956     15958     15954     15953     15956     15959
     15955     15953     15956     15957     15955     15953     15956     15958
     15955     15953     15956     15959     15957     15956     15959     15960
     15957     15956     15959     15961     15957     15956     15959     15962
     15958     15956     15959     15960     15958     15956     15959     15961
     15958     15956     15959     15962     15963     15964     15979     15980
     15963     15964     15979     15981     15963     15964     15979     15985
     15964     15963     15967     15968     15964     15963     15967     15969
     15964     15963     15967     15970     15964     15963     15971     15972
     15964     15963     15971     15973     15964     15963     15971     15974
     15964     15963     15975     15976     15964     15963     15975     15977
     15964     15963     15975     15978     15964     15979     15985     15982
     15965     15964     15963     15967     15965     15964     15963     15971
     15965     15964     15963     15975     15965     15964     15979     15980
     15965     15964     15979     15981     15965     15964     15979     15985
     15966     15964     15963     15967     15966     15964     15963     15971
     15966     15964     15963     15975     15966     15964     15979     15980
     15966     15964     15979     15981     15966     15964     15979     15985
     15967     15963     15964     15979     15967     15963     15971     15972
     15967     15963     15971     15973     15967     15963     15971     15974
     15967     15963     15975     15976     15967     15963     15975     15977
     15967     15963     15975     15978     15968     15967     15963     15971
     15968     15967     15963     15975     15969     15967     15963     15971
     15969     15967     15963     15975     15970     15967     15963     15971
     15970     15967     15963     15975     15971     15963     15964     15979
     15971     15963     15975     15976     15971     15963     15975     15977
     15971     15963     15975     15978     15972     15971     15963     15975
     15973     15971     15963     15975     15974     15971     15963     15975
     15975     15963     15964     15979     15979     15985     15982     15983
     15979     15985     15982     15984     15979     15985     15982     15986
     15980     15979     15985     15982     15981     15979     15985     15982
     15982     15986     15987     15988     15982     15986     15987     15989
     15982     15986     15987     15990     15983     15982     15986     15987
     15984     15982     15986     15987     15985     15982     15986     15987
     15986     15987     15990     15991     15986     15987     15990     15992
     15986     15987     15990     15998     15987     15990     15992     15993
     15987     15990     15998     15999     15987     15990     15998     16000
     15987     15990     15998     16001     15988     15987     15990     15991
     15988     15987     15990     15992     15988     15987     15990     15998
     15989     15987     15990     15991     15989     15987     15990     15992
     15989     15987     15990     15998     15990     15992     15993     15994
     15990     15992     15993     15995     15990     15998     16001     16002
     15991     15990     15992     15993     15991     15990     15998     15999
     15991     15990     15998     16000     15991     15990     15998     16001
     15992     15990     15998     15999     15992     15990     15998     16000
     15992     15990     15998     16001     15992     15993     15995     15996
     15992     15993     15995     15997     15992     15993     15995     16007
     15993     15992     15990     15998     15993     15995     16007     16008
     15993     15995     16007     16009     15993     15995     16007     16010
     15994     15993     15995     15996     15994     15993     15995     15997
     15994     15993     15995     16007     15995     16007     16010     16011
     15995     16007     16010     16012     15995     16007     16010     16013
     15996     15995     16007     16008     15996     15995     16007     16009
     15996     15995     16007     16010     15997     15995     16007     16008
     15997     15995     16007     16009     15997     15995     16007     16010
     15998     16001     16002     16003     15998     16001     16002     16004
     15999     15998     16001     16002     16000     15998     16001     16002
     16001     16002     16004     16005     16001     16002     16004     16006
     16001     16002     16004     16054     16002     16004     16054     16055
     16002     16004     16054     16056     16002     16004     16054     16057
     16003     16002     16004     16005     16003     16002     16004     16006
     16003     16002     16004     16054     16004     16054     16057     16058
     16004     16054     16057     16059     16004     16054     16057     16060
     16005     16004     16054     16055     16005     16004     16054     16056
     16005     16004     16054     16057     16006     16004     16054     16055
     16006     16004     16054     16056     16006     16004     16054     16057
     16007     16010     16013     16014     16007     16010     16013     16015
     16007     16010     16013     16016     16008     16007     16010     16011
     16008     16007     16010     16012     16008     16007     16010     16013
     16009     16007     16010     16011     16009     16007     16010     16012
     16009     16007     16010     16013     16010     16013     16016     16017
     16010     16013     16016     16018     16010     16013     16016     16019
     16011     16010     16013     16014     16011     16010     16013     16015
     16011     16010     16013     16016     16012     16010     16013     16014
     16012     16010     16013     16015     16012     16010     16013     16016
     16013     16016     16019     16020     16013     16016     16019     16021
     16013     16016     16019     16022     16014     16013     16016     16017
     16014     16013     16016     16018     16014     16013     16016     16019
     16015     16013     16016     16017     16015     16013     16016     16018
     16015     16013     16016     16019     16016     16019     16022     16023
     16016     16019     16022     16024     16016     16019     16022     16025
     16017     16016     16019     16020     16017     16016     16019     16021
     16017     16016     16019     16022     16018     16016     16019     16020
     16018     16016     16019     16021     16018     16016     16019     16022
     16019     16022     16025     16026     16019     16022     16025     16027
     16020     16019     16022     16023     16020     16019     16022     16024
     16020     16019     16022     16025     16021     16019     16022     16023
     16021     16019     16022     16024     16021     16019     16022     16025
     16022     16025     16027     16028     16022     16025     16027     16029
     16023     16022     16025     16026     16023     16022     16025     16027
     16024     16022     16025     16026     16024     16022     16025     16027
     16025     16027     16029     16030     16025     16027     16029     16031
     16025     16027     16029     16032     16026     16025     16027     16028
     16026     16025     16027     16029     16027     16029     16032     16033
     16027     16029     16032     16034     16027     16029     16032     16035
     16028     16027     16029     16030     16028     16027     16029     16031
     16028     16027     16029     16032     16029     16032     16035     16036
     16029     16032     16035     16037     16029     16032     16035     16038
     16030     16029     16032     16033     16030     16029     16032     16034
     16030     16029     16032     16035     16031     16029     16032     16033
     16031     16029     16032     16034     16031     16029     16032     16035
     16032     16035     16038     16039     16032     16035     16038     16040
     16032     16035     16038     16041     16033     16032     16035     16036
     16033     16032     16035     16037     16033     16032     16035     16038
     16034     16032     16035     16036     16034     16032     16035     16037
     16034     16032     16035     16038     16035     16038     16041     16042
     16035     16038     16041     16043     16035     16038     16041     16044
     16036     16035     16038     16039     16036     16035     16038     16040
     16036     16035     16038     16041     16037     16035     16038     16039
     16037     16035     16038     16040     16037     16035     16038     16041
     16038     16041     16044     16045     16038     16041     16044     16046
     16038     16041     16044     16047     16039     16038     16041     16042
     16039     16038     16041     16043     16039     16038     16041     16044
     16040     16038     16041     16042     16040     16038     16041     16043
     16040     16038     16041     16044     16041     16044     16047     16048
     16041     16044     16047     16049     16041     16044     16047     16050
     16042     16041     16044     16045     16042     16041     16044     16046
     16042     16041     16044     16047     16043     16041     16044     16045
     16043     16041     16044     16046     16043     16041     16044     16047
     16044     16047     16050     16051     16044     16047     16050     16052
     16044     16047     16050     16053     16045     16044     16047     16048
     16045     16044     16047     16049     16045     16044     16047     16050
     16046     16044     16047     16048     16046     16044     16047     16049
     16046     16044     16047     16050     16048     16047     16050     16051
     16048     16047     16050     16052     16048     16047     16050     16053
     16049     16047     16050     16051     16049     16047     16050     16052
     16049     16047     16050     16053     16054     16057     16060     16061
     16054     16057     16060     16062     16054     16057     16060     16063
     16055     16054     16057     16058     16055     16054     16057     16059
     16055     16054     16057     16060     16056     16054     16057     16058
     16056     16054     16057     16059     16056     16054     16057     16060
     16057     16060     16063     16064     16057     16060     16063     16065
     16057     16060     16063     16066     16058     16057     16060     16061
     16058     16057     16060     16062     16058     16057     16060     16063
     16059     16057     16060     16061     16059     16057     16060     16062
     16059     16057     16060     16063     16060     16063     16066     16067
     16060     16063     16066     16068     16060     16063     16066     16069
     16061     16060     16063     16064     16061     16060     16063     16065
     16061     16060     16063     16066     16062     16060     16063     16064
     16062     16060     16063     16065     16062     16060     16063     16066
     16063     16066     16069     16070     16063     16066     16069     16071
     16063     16066     16069     16072     16064     16063     16066     16067
     16064     16063     16066     16068     16064     16063     16066     16069
     16065     16063     16066     16067     16065     16063     16066     16068
     16065     16063     16066     16069     16066     16069     16072     16073
     16066     16069     16072     16074     16066     16069     16072     16075
     16067     16066     16069     16070     16067     16066     16069     16071
     16067     16066     16069     16072     16068     16066     16069     16070
     16068     16066     16069     16071     16068     16066     16069     16072
     16069     16072     16075     16076     16069     16072     16075     16077
     16069     16072     16075     16078     16070     16069     16072     16073
     16070     16069     16072     16074     16070     16069     16072     16075
     16071     16069     16072     16073     16071     16069     16072     16074
     16071     16069     16072     16075     16072     16075     16078     16079
     16072     16075     16078     16080     16072     16075     16078     16081
     16073     16072     16075     16076     16073     16072     16075     16077
     16073     16072     16075     16078     16074     16072     16075     16076
     16074     16072     16075     16077     16074     16072     16075     16078
     16075     16078     16081     16082     16075     16078     16081     16083
     16075     16078     16081     16084     16076     16075     16078     16079
     16076     16075     16078     16080     16076     16075     16078     16081
     16077     16075     16078     16079     16077     16075     16078     16080
     16077     16075     16078     16081     16078     16081     16084     16085
     16078     16081     16084     16086     16078     16081     16084     16087
     16079     16078     16081     16082     16079     16078     16081     16083
     16079     16078     16081     16084     16080     16078     16081     16082
     16080     16078     16081     16083     16080     16078     16081     16084
     16081     16084     16087     16088     16081     16084     16087     16089
     16081     16084     16087     16090     16082     16081     16084     16085
     16082     16081     16084     16086     16082     16081     16084     16087
     16083     16081     16084     16085     16083     16081     16084     16086
     16083     16081     16084     16087     16084     16087     16090     16091
     16084     16087     16090     16092     16084     16087     16090     16093
     16085     16084     16087     16088     16085     16084     16087     16089
     16085     16084     16087     16090     16086     16084     16087     16088
     16086     16084     16087     16089     16086     16084     16087     16090
     16087     16090     16093     16094     16087     16090     16093     16095
     16087     16090     16093     16096     16088     16087     16090     16091
     16088     16087     16090     16092     16088     16087     16090     16093
     16089     16087     16090     16091     16089     16087     16090     16092
     16089     16087     16090     16093     16091     16090     16093     16094
     16091     16090     16093     16095     16091     16090     16093     16096
     16092     16090     16093     16094     16092     16090     16093     16095
     16092     16090     16093     16096     16097     16098     16113     16114
     16097     16098     16113     16115     16097     16098     16113     16119
     16098     16097     16101     16102     16098     16097     16101     16103
     16098     16097     16101     16104     16098     16097     16105     16106
     16098     16097     16105     16107     16098     16097     16105     16108
     16098     16097     16109     16110     16098     16097     16109     16111
     16098     16097     16109     16112     16098     16113     16119     16116
     16099     16098     16097     16101     16099     16098     16097     16105
     16099     16098     16097     16109     16099     16098     16113     16114
     16099     16098     16113     16115     16099     16098     16113     16119
     16100     16098     16097     16101     16100     16098     16097     16105
     16100     16098     16097     16109     16100     16098     16113     16114
     16100     16098     16113     16115     16100     16098     16113     16119
     16101     16097     16098     16113     16101     16097     16105     16106
     16101     16097     16105     16107     16101     16097     16105     16108
     16101     16097     16109     16110     16101     16097     16109     16111
     16101     16097     16109     16112     16102     16101     16097     16105
     16102     16101     16097     16109     16103     16101     16097     16105
     16103     16101     16097     16109     16104     16101     16097     16105
     16104     16101     16097     16109     16105     16097     16098     16113
     16105     16097     16109     16110     16105     16097     16109     16111
     16105     16097     16109     16112     16106     16105     16097     16109
     16107     16105     16097     16109     16108     16105     16097     16109
     16109     16097     16098     16113     16113     16119     16116     16117
     16113     16119     16116     16118     16113     16119     16116     16120
     16114     16113     16119     16116     16115     16113     16119     16116
     16116     16120     16121     16122     16116     16120     16121     16123
     16116     16120     16121     16124     16117     16116     16120     16121
     16118     16116     16120     16121     16119     16116     16120     16121
     16120     16121     16124     16125     16120     16121     16124     16126
     16120     16121     16124     16132     16121     16124     16126     16127
     16121     16124     16132     16133     16121     16124     16132     16134
     16121     16124     16132     16135     16122     16121     16124     16125
     16122     16121     16124     16126     16122     16121     16124     16132
     16123     16121     16124     16125     16123     16121     16124     16126
     16123     16121     16124     16132     16124     16126     16127     16128
     16124     16126     16127     16129     16124     16132     16135     16136
     16125     16124     16126     16127     16125     16124     16132     16133
     16125     16124     16132     16134     16125     16124     16132     16135
     16126     16124     16132     16133     16126     16124     16132     16134
     16126     16124     16132     16135     16126     16127     16129     16130
     16126     16127     16129     16131     16126     16127     16129     16141
     16127     16126     16124     16132     16127     16129     16141     16142
     16127     16129     16141     16143     16127     16129     16141     16144
     16128     16127     16129     16130     16128     16127     16129     16131
     16128     16127     16129     16141     16129     16141     16144     16145
     16129     16141     16144     16146     16129     16141     16144     16147
     16130     16129     16141     16142     16130     16129     16141     16143
     16130     16129     16141     16144     16131     16129     16141     16142
     16131     16129     16141     16143     16131     16129     16141     16144
     16132     16135     16136     16137     16132     16135     16136     16138
     16133     16132     16135     16136     16134     16132     16135     16136
     16135     16136     16138     16139     16135     16136     16138     16140
     16135     16136     16138     16188     16136     16138     16188     16189
     16136     16138     16188     16190     16136     16138     16188     16191
     16137     16136     16138     16139     16137     16136     16138     16140
     16137     16136     16138     16188     16138     16188     16191     16192
     16138     16188     16191     16193     16138     16188     16191     16194
     16139     16138     16188     16189     16139     16138     16188     16190
     16139     16138     16188     16191     16140     16138     16188     16189
     16140     16138     16188     16190     16140     16138     16188     16191
     16141     16144     16147     16148     16141     16144     16147     16149
     16141     16144     16147     16150     16142     16141     16144     16145
     16142     16141     16144     16146     16142     16141     16144     16147
     16143     16141     16144     16145     16143     16141     16144     16146
     16143     16141     16144     16147     16144     16147     16150     16151
     16144     16147     16150     16152     16144     16147     16150     16153
     16145     16144     16147     16148     16145     16144     16147     16149
     16145     16144     16147     16150     16146     16144     16147     16148
     16146     16144     16147     16149     16146     16144     16147     16150
     16147     16150     16153     16154     16147     16150     16153     16155
     16147     16150     16153     16156     16148     16147     16150     16151
     16148     16147     16150     16152     16148     16147     16150     16153
     16149     16147     16150     16151     16149     16147     16150     16152
     16149     16147     16150     16153     16150     16153     16156     16157
     16150     16153     16156     16158     16150     16153     16156     16159
     16151     16150     16153     16154     16151     16150     16153     16155
     16151     16150     16153     16156     16152     16150     16153     16154
     16152     16150     16153     16155     16152     16150     16153     16156
     16153     16156     16159     16160     16153     16156     16159     16161
     16154     16153     16156     16157     16154     16153     16156     16158
     16154     16153     16156     16159     16155     16153     16156     16157
     16155     16153     16156     16158     16155     16153     16156     16159
     16156     16159     16161     16162     16156     16159     16161     16163
     16157     16156     16159     16160     16157     16156     16159     16161
     16158     16156     16159     16160     16158     16156     16159     16161
     16159     16161     16163     16164     16159     16161     16163     16165
     16159     16161     16163     16166     16160     16159     16161     16162
     16160     16159     16161     16163     16161     16163     16166     16167
     16161     16163     16166     16168     16161     16163     16166     16169
     16162     16161     16163     16164     16162     16161     16163     16165
     16162     16161     16163     16166     16163     16166     16169     16170
     16163     16166     16169     16171     16163     16166     16169     16172
     16164     16163     16166     16167     16164     16163     16166     16168
     16164     16163     16166     16169     16165     16163     16166     16167
     16165     16163     16166     16168     16165     16163     16166     16169
     16166     16169     16172     16173     16166     16169     16172     16174
     16166     16169     16172     16175     16167     16166     16169     16170
     16167     16166     16169     16171     16167     16166     16169     16172
     16168     16166     16169     16170     16168     16166     16169     16171
     16168     16166     16169     16172     16169     16172     16175     16176
     16169     16172     16175     16177     16169     16172     16175     16178
     16170     16169     16172     16173     16170     16169     16172     16174
     16170     16169     16172     16175     16171     16169     16172     16173
     16171     16169     16172     16174     16171     16169     16172     16175
     16172     16175     16178     16179     16172     16175     16178     16180
     16172     16175     16178     16181     16173     16172     16175     16176
     16173     16172     16175     16177     16173     16172     16175     16178
     16174     16172     16175     16176     16174     16172     16175     16177
     16174     16172     16175     16178     16175     16178     16181     16182
     16175     16178     16181     16183     16175     16178     16181     16184
     16176     16175     16178     16179     16176     16175     16178     16180
     16176     16175     16178     16181     16177     16175     16178     16179
     16177     16175     16178     16180     16177     16175     16178     16181
     16178     16181     16184     16185     16178     16181     16184     16186
     16178     16181     16184     16187     16179     16178     16181     16182
     16179     16178     16181     16183     16179     16178     16181     16184
     16180     16178     16181     16182     16180     16178     16181     16183
     16180     16178     16181     16184     16182     16181     16184     16185
     16182     16181     16184     16186     16182     16181     16184     16187
     16183     16181     16184     16185     16183     16181     16184     16186
     16183     16181     16184     16187     16188     16191     16194     16195
     16188     16191     16194     16196     16188     16191     16194     16197
     16189     16188     16191     16192     16189     16188     16191     16193
     16189     16188     16191     16194     16190     16188     16191     16192
     16190     16188     16191     16193     16190     16188     16191     16194
     16191     16194     16197     16198     16191     16194     16197     16199
     16191     16194     16197     16200     16192     16191     16194     16195
     16192     16191     16194     16196     16192     16191     16194     16197
     16193     16191     16194     16195     16193     16191     16194     16196
     16193     16191     16194     16197     16194     16197     16200     16201
     16194     16197     16200     16202     16194     16197     16200     16203
     16195     16194     16197     16198     16195     16194     16197     16199
     16195     16194     16197     16200     16196     16194     16197     16198
     16196     16194     16197     16199     16196     16194     16197     16200
     16197     16200     16203     16204     16197     16200     16203     16205
     16197     16200     16203     16206     16198     16197     16200     16201
     16198     16197     16200     16202     16198     16197     16200     16203
     16199     16197     16200     16201     16199     16197     16200     16202
     16199     16197     16200     16203     16200     16203     16206     16207
     16200     16203     16206     16208     16200     16203     16206     16209
     16201     16200     16203     16204     16201     16200     16203     16205
     16201     16200     16203     16206     16202     16200     16203     16204
     16202     16200     16203     16205     16202     16200     16203     16206
     16203     16206     16209     16210     16203     16206     16209     16211
     16203     16206     16209     16212     16204     16203     16206     16207
     16204     16203     16206     16208     16204     16203     16206     16209
     16205     16203     16206     16207     16205     16203     16206     16208
     16205     16203     16206     16209     16206     16209     16212     16213
     16206     16209     16212     16214     16206     16209     16212     16215
     16207     16206     16209     16210     16207     16206     16209     16211
     16207     16206     16209     16212     16208     16206     16209     16210
     16208     16206     16209     16211     16208     16206     16209     16212
     16209     16212     16215     16216     16209     16212     16215     16217
     16209     16212     16215     16218     16210     16209     16212     16213
     16210     16209     16212     16214     16210     16209     16212     16215
     16211     16209     16212     16213     16211     16209     16212     16214
     16211     16209     16212     16215     16212     16215     16218     16219
     16212     16215     16218     16220     16212     16215     16218     16221
     16213     16212     16215     16216     16213     16212     16215     16217
     16213     16212     16215     16218     16214     16212     16215     16216
     16214     16212     16215     16217     16214     16212     16215     16218
     16215     16218     16221     16222     16215     16218     16221     16223
     16215     16218     16221     16224     16216     16215     16218     16219
     16216     16215     16218     16220     16216     16215     16218     16221
     16217     16215     16218     16219     16217     16215     16218     16220
     16217     16215     16218     16221     16218     16221     16224     16225
     16218     16221     16224     16226     16218     16221     16224     16227
     16219     16218     16221     16222     16219     16218     16221     16223
     16219     16218     16221     16224     16220     16218     16221     16222
     16220     16218     16221     16223     16220     16218     16221     16224
     16221     16224     16227     16228     16221     16224     16227     16229
     16221     16224     16227     16230     16222     16221     16224     16225
     16222     16221     16224     16226     16222     16221     16224     16227
     16223     16221     16224     16225     16223     16221     16224     16226
     16223     16221     16224     16227     16225     16224     16227     16228
     16225     16224     16227     16229     16225     16224     16227     16230
     16226     16224     16227     16228     16226     16224     16227     16229
     16226     16224     16227     16230     16231     16232     16247     16248
     16231     16232     16247     16249     16231     16232     16247     16253
     16232     16231     16235     16236     16232     16231     16235     16237
     16232     16231     16235     16238     16232     16231     16239     16240
     16232     16231     16239     16241     16232     16231     16239     16242
     16232     16231     16243     16244     16232     16231     16243     16245
     16232     16231     16243     16246     16232     16247     16253     16250
     16233     16232     16231     16235     16233     16232     16231     16239
     16233     16232     16231     16243     16233     16232     16247     16248
     16233     16232     16247     16249     16233     16232     16247     16253
     16234     16232     16231     16235     16234     16232     16231     16239
     16234     16232     16231     16243     16234     16232     16247     16248
     16234     16232     16247     16249     16234     16232     16247     16253
     16235     16231     16232     16247     16235     16231     16239     16240
     16235     16231     16239     16241     16235     16231     16239     16242
     16235     16231     16243     16244     16235     16231     16243     16245
     16235     16231     16243     16246     16236     16235     16231     16239
     16236     16235     16231     16243     16237     16235     16231     16239
     16237     16235     16231     16243     16238     16235     16231     16239
     16238     16235     16231     16243     16239     16231     16232     16247
     16239     16231     16243     16244     16239     16231     16243     16245
     16239     16231     16243     16246     16240     16239     16231     16243
     16241     16239     16231     16243     16242     16239     16231     16243
     16243     16231     16232     16247     16247     16253     16250     16251
     16247     16253     16250     16252     16247     16253     16250     16254
     16248     16247     16253     16250     16249     16247     16253     16250
     16250     16254     16255     16256     16250     16254     16255     16257
     16250     16254     16255     16258     16251     16250     16254     16255
     16252     16250     16254     16255     16253     16250     16254     16255
     16254     16255     16258     16259     16254     16255     16258     16260
     16254     16255     16258     16266     16255     16258     16260     16261
     16255     16258     16266     16267     16255     16258     16266     16268
     16255     16258     16266     16269     16256     16255     16258     16259
     16256     16255     16258     16260     16256     16255     16258     16266
     16257     16255     16258     16259     16257     16255     16258     16260
     16257     16255     16258     16266     16258     16260     16261     16262
     16258     16260     16261     16263     16258     16266     16269     16270
     16259     16258     16260     16261     16259     16258     16266     16267
     16259     16258     16266     16268     16259     16258     16266     16269
     16260     16258     16266     16267     16260     16258     16266     16268
     16260     16258     16266     16269     16260     16261     16263     16264
     16260     16261     16263     16265     16260     16261     16263     16275
     16261     16260     16258     16266     16261     16263     16275     16276
     16261     16263     16275     16277     16261     16263     16275     16278
     16262     16261     16263     16264     16262     16261     16263     16265
     16262     16261     16263     16275     16263     16275     16278     16279
     16263     16275     16278     16280     16263     16275     16278     16281
     16264     16263     16275     16276     16264     16263     16275     16277
     16264     16263     16275     16278     16265     16263     16275     16276
     16265     16263     16275     16277     16265     16263     16275     16278
     16266     16269     16270     16271     16266     16269     16270     16272
     16267     16266     16269     16270     16268     16266     16269     16270
     16269     16270     16272     16273     16269     16270     16272     16274
     16269     16270     16272     16322     16270     16272     16322     16323
     16270     16272     16322     16324     16270     16272     16322     16325
     16271     16270     16272     16273     16271     16270     16272     16274
     16271     16270     16272     16322     16272     16322     16325     16326
     16272     16322     16325     16327     16272     16322     16325     16328
     16273     16272     16322     16323     16273     16272     16322     16324
     16273     16272     16322     16325     16274     16272     16322     16323
     16274     16272     16322     16324     16274     16272     16322     16325
     16275     16278     16281     16282     16275     16278     16281     16283
     16275     16278     16281     16284     16276     16275     16278     16279
     16276     16275     16278     16280     16276     16275     16278     16281
     16277     16275     16278     16279     16277     16275     16278     16280
     16277     16275     16278     16281     16278     16281     16284     16285
     16278     16281     16284     16286     16278     16281     16284     16287
     16279     16278     16281     16282     16279     16278     16281     16283
     16279     16278     16281     16284     16280     16278     16281     16282
     16280     16278     16281     16283     16280     16278     16281     16284
     16281     16284     16287     16288     16281     16284     16287     16289
     16281     16284     16287     16290     16282     16281     16284     16285
     16282     16281     16284     16286     16282     16281     16284     16287
     16283     16281     16284     16285     16283     16281     16284     16286
     16283     16281     16284     16287     16284     16287     16290     16291
     16284     16287     16290     16292     16284     16287     16290     16293
     16285     16284     16287     16288     16285     16284     16287     16289
     16285     16284     16287     16290     16286     16284     16287     16288
     16286     16284     16287     16289     16286     16284     16287     16290
     16287     16290     16293     16294     16287     16290     16293     16295
     16288     16287     16290     16291     16288     16287     16290     16292
     16288     16287     16290     16293     16289     16287     16290     16291
     16289     16287     16290     16292     16289     16287     16290     16293
     16290     16293     16295     16296     16290     16293     16295     16297
     16291     16290     16293     16294     16291     16290     16293     16295
     16292     16290     16293     16294     16292     16290     16293     16295
     16293     16295     16297     16298     16293     16295     16297     16299
     16293     16295     16297     16300     16294     16293     16295     16296
     16294     16293     16295     16297     16295     16297     16300     16301
     16295     16297     16300     16302     16295     16297     16300     16303
     16296     16295     16297     16298     16296     16295     16297     16299
     16296     16295     16297     16300     16297     16300     16303     16304
     16297     16300     16303     16305     16297     16300     16303     16306
     16298     16297     16300     16301     16298     16297     16300     16302
     16298     16297     16300     16303     16299     16297     16300     16301
     16299     16297     16300     16302     16299     16297     16300     16303
     16300     16303     16306     16307     16300     16303     16306     16308
     16300     16303     16306     16309     16301     16300     16303     16304
     16301     16300     16303     16305     16301     16300     16303     16306
     16302     16300     16303     16304     16302     16300     16303     16305
     16302     16300     16303     16306     16303     16306     16309     16310
     16303     16306     16309     16311     16303     16306     16309     16312
     16304     16303     16306     16307     16304     16303     16306     16308
     16304     16303     16306     16309     16305     16303     16306     16307
     16305     16303     16306     16308     16305     16303     16306     16309
     16306     16309     16312     16313     16306     16309     16312     16314
     16306     16309     16312     16315     16307     16306     16309     16310
     16307     16306     16309     16311     16307     16306     16309     16312
     16308     16306     16309     16310     16308     16306     16309     16311
     16308     16306     16309     16312     16309     16312     16315     16316
     16309     16312     16315     16317     16309     16312     16315     16318
     16310     16309     16312     16313     16310     16309     16312     16314
     16310     16309     16312     16315     16311     16309     16312     16313
     16311     16309     16312     16314     16311     16309     16312     16315
     16312     16315     16318     16319     16312     16315     16318     16320
     16312     16315     16318     16321     16313     16312     16315     16316
     16313     16312     16315     16317     16313     16312     16315     16318
     16314     16312     16315     16316     16314     16312     16315     16317
     16314     16312     16315     16318     16316     16315     16318     16319
     16316     16315     16318     16320     16316     16315     16318     16321
     16317     16315     16318     16319     16317     16315     16318     16320
     16317     16315     16318     16321     16322     16325     16328     16329
     16322     16325     16328     16330     16322     16325     16328     16331
     16323     16322     16325     16326     16323     16322     16325     16327
     16323     16322     16325     16328     16324     16322     16325     16326
     16324     16322     16325     16327     16324     16322     16325     16328
     16325     16328     16331     16332     16325     16328     16331     16333
     16325     16328     16331     16334     16326     16325     16328     16329
     16326     16325     16328     16330     16326     16325     16328     16331
     16327     16325     16328     16329     16327     16325     16328     16330
     16327     16325     16328     16331     16328     16331     16334     16335
     16328     16331     16334     16336     16328     16331     16334     16337
     16329     16328     16331     16332     16329     16328     16331     16333
     16329     16328     16331     16334     16330     16328     16331     16332
     16330     16328     16331     16333     16330     16328     16331     16334
     16331     16334     16337     16338     16331     16334     16337     16339
     16331     16334     16337     16340     16332     16331     16334     16335
     16332     16331     16334     16336     16332     16331     16334     16337
     16333     16331     16334     16335     16333     16331     16334     16336
     16333     16331     16334     16337     16334     16337     16340     16341
     16334     16337     16340     16342     16334     16337     16340     16343
     16335     16334     16337     16338     16335     16334     16337     16339
     16335     16334     16337     16340     16336     16334     16337     16338
     16336     16334     16337     16339     16336     16334     16337     16340
     16337     16340     16343     16344     16337     16340     16343     16345
     16337     16340     16343     16346     16338     16337     16340     16341
     16338     16337     16340     16342     16338     16337     16340     16343
     16339     16337     16340     16341     16339     16337     16340     16342
     16339     16337     16340     16343     16340     16343     16346     16347
     16340     16343     16346     16348     16340     16343     16346     16349
     16341     16340     16343     16344     16341     16340     16343     16345
     16341     16340     16343     16346     16342     16340     16343     16344
     16342     16340     16343     16345     16342     16340     16343     16346
     16343     16346     16349     16350     16343     16346     16349     16351
     16343     16346     16349     16352     16344     16343     16346     16347
     16344     16343     16346     16348     16344     16343     16346     16349
     16345     16343     16346     16347     16345     16343     16346     16348
     16345     16343     16346     16349     16346     16349     16352     16353
     16346     16349     16352     16354     16346     16349     16352     16355
     16347     16346     16349     16350     16347     16346     16349     16351
     16347     16346     16349     16352     16348     16346     16349     16350
     16348     16346     16349     16351     16348     16346     16349     16352
     16349     16352     16355     16356     16349     16352     16355     16357
     16349     16352     16355     16358     16350     16349     16352     16353
     16350     16349     16352     16354     16350     16349     16352     16355
     16351     16349     16352     16353     16351     16349     16352     16354
     16351     16349     16352     16355     16352     16355     16358     16359
     16352     16355     16358     16360     16352     16355     16358     16361
     16353     16352     16355     16356     16353     16352     16355     16357
     16353     16352     16355     16358     16354     16352     16355     16356
     16354     16352     16355     16357     16354     16352     16355     16358
     16355     16358     16361     16362     16355     16358     16361     16363
     16355     16358     16361     16364     16356     16355     16358     16359
     16356     16355     16358     16360     16356     16355     16358     16361
     16357     16355     16358     16359     16357     16355     16358     16360
     16357     16355     16358     16361     16359     16358     16361     16362
     16359     16358     16361     16363     16359     16358     16361     16364
     16360     16358     16361     16362     16360     16358     16361     16363
     16360     16358     16361     16364     16365     16366     16381     16382
     16365     16366     16381     16383     16365     16366     16381     16387
     16366     16365     16369     16370     16366     16365     16369     16371
     16366     16365     16369     16372     16366     16365     16373     16374
     16366     16365     16373     16375     16366     16365     16373     16376
     16366     16365     16377     16378     16366     16365     16377     16379
     16366     16365     16377     16380     16366     16381     16387     16384
     16367     16366     16365     16369     16367     16366     16365     16373
     16367     16366     16365     16377     16367     16366     16381     16382
     16367     16366     16381     16383     16367     16366     16381     16387
     16368     16366     16365     16369     16368     16366     16365     16373
     16368     16366     16365     16377     16368     16366     16381     16382
     16368     16366     16381     16383     16368     16366     16381     16387
     16369     16365     16366     16381     16369     16365     16373     16374
     16369     16365     16373     16375     16369     16365     16373     16376
     16369     16365     16377     16378     16369     16365     16377     16379
     16369     16365     16377     16380     16370     16369     16365     16373
     16370     16369     16365     16377     16371     16369     16365     16373
     16371     16369     16365     16377     16372     16369     16365     16373
     16372     16369     16365     16377     16373     16365     16366     16381
     16373     16365     16377     16378     16373     16365     16377     16379
     16373     16365     16377     16380     16374     16373     16365     16377
     16375     16373     16365     16377     16376     16373     16365     16377
     16377     16365     16366     16381     16381     16387     16384     16385
     16381     16387     16384     16386     16381     16387     16384     16388
     16382     16381     16387     16384     16383     16381     16387     16384
     16384     16388     16389     16390     16384     16388     16389     16391
     16384     16388     16389     16392     16385     16384     16388     16389
     16386     16384     16388     16389     16387     16384     16388     16389
     16388     16389     16392     16393     16388     16389     16392     16394
     16388     16389     16392     16400     16389     16392     16394     16395
     16389     16392     16400     16401     16389     16392     16400     16402
     16389     16392     16400     16403     16390     16389     16392     16393
     16390     16389     16392     16394     16390     16389     16392     16400
     16391     16389     16392     16393     16391     16389     16392     16394
     16391     16389     16392     16400     16392     16394     16395     16396
     16392     16394     16395     16397     16392     16400     16403     16404
     16393     16392     16394     16395     16393     16392     16400     16401
     16393     16392     16400     16402     16393     16392     16400     16403
     16394     16392     16400     16401     16394     16392     16400     16402
     16394     16392     16400     16403     16394     16395     16397     16398
     16394     16395     16397     16399     16394     16395     16397     16409
     16395     16394     16392     16400     16395     16397     16409     16410
     16395     16397     16409     16411     16395     16397     16409     16412
     16396     16395     16397     16398     16396     16395     16397     16399
     16396     16395     16397     16409     16397     16409     16412     16413
     16397     16409     16412     16414     16397     16409     16412     16415
     16398     16397     16409     16410     16398     16397     16409     16411
     16398     16397     16409     16412     16399     16397     16409     16410
     16399     16397     16409     16411     16399     16397     16409     16412
     16400     16403     16404     16405     16400     16403     16404     16406
     16401     16400     16403     16404     16402     16400     16403     16404
     16403     16404     16406     16407     16403     16404     16406     16408
     16403     16404     16406     16456     16404     16406     16456     16457
     16404     16406     16456     16458     16404     16406     16456     16459
     16405     16404     16406     16407     16405     16404     16406     16408
     16405     16404     16406     16456     16406     16456     16459     16460
     16406     16456     16459     16461     16406     16456     16459     16462
     16407     16406     16456     16457     16407     16406     16456     16458
     16407     16406     16456     16459     16408     16406     16456     16457
     16408     16406     16456     16458     16408     16406     16456     16459
     16409     16412     16415     16416     16409     16412     16415     16417
     16409     16412     16415     16418     16410     16409     16412     16413
     16410     16409     16412     16414     16410     16409     16412     16415
     16411     16409     16412     16413     16411     16409     16412     16414
     16411     16409     16412     16415     16412     16415     16418     16419
     16412     16415     16418     16420     16412     16415     16418     16421
     16413     16412     16415     16416     16413     16412     16415     16417
     16413     16412     16415     16418     16414     16412     16415     16416
     16414     16412     16415     16417     16414     16412     16415     16418
     16415     16418     16421     16422     16415     16418     16421     16423
     16415     16418     16421     16424     16416     16415     16418     16419
     16416     16415     16418     16420     16416     16415     16418     16421
     16417     16415     16418     16419     16417     16415     16418     16420
     16417     16415     16418     16421     16418     16421     16424     16425
     16418     16421     16424     16426     16418     16421     16424     16427
     16419     16418     16421     16422     16419     16418     16421     16423
     16419     16418     16421     16424     16420     16418     16421     16422
     16420     16418     16421     16423     16420     16418     16421     16424
     16421     16424     16427     16428     16421     16424     16427     16429
     16422     16421     16424     16425     16422     16421     16424     16426
     16422     16421     16424     16427     16423     16421     16424     16425
     16423     16421     16424     16426     16423     16421     16424     16427
     16424     16427     16429     16430     16424     16427     16429     16431
     16425     16424     16427     16428     16425     16424     16427     16429
     16426     16424     16427     16428     16426     16424     16427     16429
     16427     16429     16431     16432     16427     16429     16431     16433
     16427     16429     16431     16434     16428     16427     16429     16430
     16428     16427     16429     16431     16429     16431     16434     16435
     16429     16431     16434     16436     16429     16431     16434     16437
     16430     16429     16431     16432     16430     16429     16431     16433
     16430     16429     16431     16434     16431     16434     16437     16438
     16431     16434     16437     16439     16431     16434     16437     16440
     16432     16431     16434     16435     16432     16431     16434     16436
     16432     16431     16434     16437     16433     16431     16434     16435
     16433     16431     16434     16436     16433     16431     16434     16437
     16434     16437     16440     16441     16434     16437     16440     16442
     16434     16437     16440     16443     16435     16434     16437     16438
     16435     16434     16437     16439     16435     16434     16437     16440
     16436     16434     16437     16438     16436     16434     16437     16439
     16436     16434     16437     16440     16437     16440     16443     16444
     16437     16440     16443     16445     16437     16440     16443     16446
     16438     16437     16440     16441     16438     16437     16440     16442
     16438     16437     16440     16443     16439     16437     16440     16441
     16439     16437     16440     16442     16439     16437     16440     16443
     16440     16443     16446     16447     16440     16443     16446     16448
     16440     16443     16446     16449     16441     16440     16443     16444
     16441     16440     16443     16445     16441     16440     16443     16446
     16442     16440     16443     16444     16442     16440     16443     16445
     16442     16440     16443     16446     16443     16446     16449     16450
     16443     16446     16449     16451     16443     16446     16449     16452
     16444     16443     16446     16447     16444     16443     16446     16448
     16444     16443     16446     16449     16445     16443     16446     16447
     16445     16443     16446     16448     16445     16443     16446     16449
     16446     16449     16452     16453     16446     16449     16452     16454
     16446     16449     16452     16455     16447     16446     16449     16450
     16447     16446     16449     16451     16447     16446     16449     16452
     16448     16446     16449     16450     16448     16446     16449     16451
     16448     16446     16449     16452     16450     16449     16452     16453
     16450     16449     16452     16454     16450     16449     16452     16455
     16451     16449     16452     16453     16451     16449     16452     16454
     16451     16449     16452     16455     16456     16459     16462     16463
     16456     16459     16462     16464     16456     16459     16462     16465
     16457     16456     16459     16460     16457     16456     16459     16461
     16457     16456     16459     16462     16458     16456     16459     16460
     16458     16456     16459     16461     16458     16456     16459     16462
     16459     16462     16465     16466     16459     16462     16465     16467
     16459     16462     16465     16468     16460     16459     16462     16463
     16460     16459     16462     16464     16460     16459     16462     16465
     16461     16459     16462     16463     16461     16459     16462     16464
     16461     16459     16462     16465     16462     16465     16468     16469
     16462     16465     16468     16470     16462     16465     16468     16471
     16463     16462     16465     16466     16463     16462     16465     16467
     16463     16462     16465     16468     16464     16462     16465     16466
     16464     16462     16465     16467     16464     16462     16465     16468
     16465     16468     16471     16472     16465     16468     16471     16473
     16465     16468     16471     16474     16466     16465     16468     16469
     16466     16465     16468     16470     16466     16465     16468     16471
     16467     16465     16468     16469     16467     16465     16468     16470
     16467     16465     16468     16471     16468     16471     16474     16475
     16468     16471     16474     16476     16468     16471     16474     16477
     16469     16468     16471     16472     16469     16468     16471     16473
     16469     16468     16471     16474     16470     16468     16471     16472
     16470     16468     16471     16473     16470     16468     16471     16474
     16471     16474     16477     16478     16471     16474     16477     16479
     16471     16474     16477     16480     16472     16471     16474     16475
     16472     16471     16474     16476     16472     16471     16474     16477
     16473     16471     16474     16475     16473     16471     16474     16476
     16473     16471     16474     16477     16474     16477     16480     16481
     16474     16477     16480     16482     16474     16477     16480     16483
     16475     16474     16477     16478     16475     16474     16477     16479
     16475     16474     16477     16480     16476     16474     16477     16478
     16476     16474     16477     16479     16476     16474     16477     16480
     16477     16480     16483     16484     16477     16480     16483     16485
     16477     16480     16483     16486     16478     16477     16480     16481
     16478     16477     16480     16482     16478     16477     16480     16483
     16479     16477     16480     16481     16479     16477     16480     16482
     16479     16477     16480     16483     16480     16483     16486     16487
     16480     16483     16486     16488     16480     16483     16486     16489
     16481     16480     16483     16484     16481     16480     16483     16485
     16481     16480     16483     16486     16482     16480     16483     16484
     16482     16480     16483     16485     16482     16480     16483     16486
     16483     16486     16489     16490     16483     16486     16489     16491
     16483     16486     16489     16492     16484     16483     16486     16487
     16484     16483     16486     16488     16484     16483     16486     16489
     16485     16483     16486     16487     16485     16483     16486     16488
     16485     16483     16486     16489     16486     16489     16492     16493
     16486     16489     16492     16494     16486     16489     16492     16495
     16487     16486     16489     16490     16487     16486     16489     16491
     16487     16486     16489     16492     16488     16486     16489     16490
     16488     16486     16489     16491     16488     16486     16489     16492
     16489     16492     16495     16496     16489     16492     16495     16497
     16489     16492     16495     16498     16490     16489     16492     16493
     16490     16489     16492     16494     16490     16489     16492     16495
     16491     16489     16492     16493     16491     16489     16492     16494
     16491     16489     16492     16495     16493     16492     16495     16496
     16493     16492     16495     16497     16493     16492     16495     16498
     16494     16492     16495     16496     16494     16492     16495     16497
     16494     16492     16495     16498     16499     16500     16515     16516
     16499     16500     16515     16517     16499     16500     16515     16521
     16500     16499     16503     16504     16500     16499     16503     16505
     16500     16499     16503     16506     16500     16499     16507     16508
     16500     16499     16507     16509     16500     16499     16507     16510
     16500     16499     16511     16512     16500     16499     16511     16513
     16500     16499     16511     16514     16500     16515     16521     16518
     16501     16500     16499     16503     16501     16500     16499     16507
     16501     16500     16499     16511     16501     16500     16515     16516
     16501     16500     16515     16517     16501     16500     16515     16521
     16502     16500     16499     16503     16502     16500     16499     16507
     16502     16500     16499     16511     16502     16500     16515     16516
     16502     16500     16515     16517     16502     16500     16515     16521
     16503     16499     16500     16515     16503     16499     16507     16508
     16503     16499     16507     16509     16503     16499     16507     16510
     16503     16499     16511     16512     16503     16499     16511     16513
     16503     16499     16511     16514     16504     16503     16499     16507
     16504     16503     16499     16511     16505     16503     16499     16507
     16505     16503     16499     16511     16506     16503     16499     16507
     16506     16503     16499     16511     16507     16499     16500     16515
     16507     16499     16511     16512     16507     16499     16511     16513
     16507     16499     16511     16514     16508     16507     16499     16511
     16509     16507     16499     16511     16510     16507     16499     16511
     16511     16499     16500     16515     16515     16521     16518     16519
     16515     16521     16518     16520     16515     16521     16518     16522
     16516     16515     16521     16518     16517     16515     16521     16518
     16518     16522     16523     16524     16518     16522     16523     16525
     16518     16522     16523     16526     16519     16518     16522     16523
     16520     16518     16522     16523     16521     16518     16522     16523
     16522     16523     16526     16527     16522     16523     16526     16528
     16522     16523     16526     16534     16523     16526     16528     16529
     16523     16526     16534     16535     16523     16526     16534     16536
     16523     16526     16534     16537     16524     16523     16526     16527
     16524     16523     16526     16528     16524     16523     16526     16534
     16525     16523     16526     16527     16525     16523     16526     16528
     16525     16523     16526     16534     16526     16528     16529     16530
     16526     16528     16529     16531     16526     16534     16537     16538
     16527     16526     16528     16529     16527     16526     16534     16535
     16527     16526     16534     16536     16527     16526     16534     16537
     16528     16526     16534     16535     16528     16526     16534     16536
     16528     16526     16534     16537     16528     16529     16531     16532
     16528     16529     16531     16533     16528     16529     16531     16543
     16529     16528     16526     16534     16529     16531     16543     16544
     16529     16531     16543     16545     16529     16531     16543     16546
     16530     16529     16531     16532     16530     16529     16531     16533
     16530     16529     16531     16543     16531     16543     16546     16547
     16531     16543     16546     16548     16531     16543     16546     16549
     16532     16531     16543     16544     16532     16531     16543     16545
     16532     16531     16543     16546     16533     16531     16543     16544
     16533     16531     16543     16545     16533     16531     16543     16546
     16534     16537     16538     16539     16534     16537     16538     16540
     16535     16534     16537     16538     16536     16534     16537     16538
     16537     16538     16540     16541     16537     16538     16540     16542
     16537     16538     16540     16590     16538     16540     16590     16591
     16538     16540     16590     16592     16538     16540     16590     16593
     16539     16538     16540     16541     16539     16538     16540     16542
     16539     16538     16540     16590     16540     16590     16593     16594
     16540     16590     16593     16595     16540     16590     16593     16596
     16541     16540     16590     16591     16541     16540     16590     16592
     16541     16540     16590     16593     16542     16540     16590     16591
     16542     16540     16590     16592     16542     16540     16590     16593
     16543     16546     16549     16550     16543     16546     16549     16551
     16543     16546     16549     16552     16544     16543     16546     16547
     16544     16543     16546     16548     16544     16543     16546     16549
     16545     16543     16546     16547     16545     16543     16546     16548
     16545     16543     16546     16549     16546     16549     16552     16553
     16546     16549     16552     16554     16546     16549     16552     16555
     16547     16546     16549     16550     16547     16546     16549     16551
     16547     16546     16549     16552     16548     16546     16549     16550
     16548     16546     16549     16551     16548     16546     16549     16552
     16549     16552     16555     16556     16549     16552     16555     16557
     16549     16552     16555     16558     16550     16549     16552     16553
     16550     16549     16552     16554     16550     16549     16552     16555
     16551     16549     16552     16553     16551     16549     16552     16554
     16551     16549     16552     16555     16552     16555     16558     16559
     16552     16555     16558     16560     16552     16555     16558     16561
     16553     16552     16555     16556     16553     16552     16555     16557
     16553     16552     16555     16558     16554     16552     16555     16556
     16554     16552     16555     16557     16554     16552     16555     16558
     16555     16558     16561     16562     16555     16558     16561     16563
     16556     16555     16558     16559     16556     16555     16558     16560
     16556     16555     16558     16561     16557     16555     16558     16559
     16557     16555     16558     16560     16557     16555     16558     16561
     16558     16561     16563     16564     16558     16561     16563     16565
     16559     16558     16561     16562     16559     16558     16561     16563
     16560     16558     16561     16562     16560     16558     16561     16563
     16561     16563     16565     16566     16561     16563     16565     16567
     16561     16563     16565     16568     16562     16561     16563     16564
     16562     16561     16563     16565     16563     16565     16568     16569
     16563     16565     16568     16570     16563     16565     16568     16571
     16564     16563     16565     16566     16564     16563     16565     16567
     16564     16563     16565     16568     16565     16568     16571     16572
     16565     16568     16571     16573     16565     16568     16571     16574
     16566     16565     16568     16569     16566     16565     16568     16570
     16566     16565     16568     16571     16567     16565     16568     16569
     16567     16565     16568     16570     16567     16565     16568     16571
     16568     16571     16574     16575     16568     16571     16574     16576
     16568     16571     16574     16577     16569     16568     16571     16572
     16569     16568     16571     16573     16569     16568     16571     16574
     16570     16568     16571     16572     16570     16568     16571     16573
     16570     16568     16571     16574     16571     16574     16577     16578
     16571     16574     16577     16579     16571     16574     16577     16580
     16572     16571     16574     16575     16572     16571     16574     16576
     16572     16571     16574     16577     16573     16571     16574     16575
     16573     16571     16574     16576     16573     16571     16574     16577
     16574     16577     16580     16581     16574     16577     16580     16582
     16574     16577     16580     16583     16575     16574     16577     16578
     16575     16574     16577     16579     16575     16574     16577     16580
     16576     16574     16577     16578     16576     16574     16577     16579
     16576     16574     16577     16580     16577     16580     16583     16584
     16577     16580     16583     16585     16577     16580     16583     16586
     16578     16577     16580     16581     16578     16577     16580     16582
     16578     16577     16580     16583     16579     16577     16580     16581
     16579     16577     16580     16582     16579     16577     16580     16583
     16580     16583     16586     16587     16580     16583     16586     16588
     16580     16583     16586     16589     16581     16580     16583     16584
     16581     16580     16583     16585     16581     16580     16583     16586
     16582     16580     16583     16584     16582     16580     16583     16585
     16582     16580     16583     16586     16584     16583     16586     16587
     16584     16583     16586     16588     16584     16583     16586     16589
     16585     16583     16586     16587     16585     16583     16586     16588
     16585     16583     16586     16589     16590     16593     16596     16597
     16590     16593     16596     16598     16590     16593     16596     16599
     16591     16590     16593     16594     16591     16590     16593     16595
     16591     16590     16593     16596     16592     16590     16593     16594
     16592     16590     16593     16595     16592     16590     16593     16596
     16593     16596     16599     16600     16593     16596     16599     16601
     16593     16596     16599     16602     16594     16593     16596     16597
     16594     16593     16596     16598     16594     16593     16596     16599
     16595     16593     16596     16597     16595     16593     16596     16598
     16595     16593     16596     16599     16596     16599     16602     16603
     16596     16599     16602     16604     16596     16599     16602     16605
     16597     16596     16599     16600     16597     16596     16599     16601
     16597     16596     16599     16602     16598     16596     16599     16600
     16598     16596     16599     16601     16598     16596     16599     16602
     16599     16602     16605     16606     16599     16602     16605     16607
     16599     16602     16605     16608     16600     16599     16602     16603
     16600     16599     16602     16604     16600     16599     16602     16605
     16601     16599     16602     16603     16601     16599     16602     16604
     16601     16599     16602     16605     16602     16605     16608     16609
     16602     16605     16608     16610     16602     16605     16608     16611
     16603     16602     16605     16606     16603     16602     16605     16607
     16603     16602     16605     16608     16604     16602     16605     16606
     16604     16602     16605     16607     16604     16602     16605     16608
     16605     16608     16611     16612     16605     16608     16611     16613
     16605     16608     16611     16614     16606     16605     16608     16609
     16606     16605     16608     16610     16606     16605     16608     16611
     16607     16605     16608     16609     16607     16605     16608     16610
     16607     16605     16608     16611     16608     16611     16614     16615
     16608     16611     16614     16616     16608     16611     16614     16617
     16609     16608     16611     16612     16609     16608     16611     16613
     16609     16608     16611     16614     16610     16608     16611     16612
     16610     16608     16611     16613     16610     16608     16611     16614
     16611     16614     16617     16618     16611     16614     16617     16619
     16611     16614     16617     16620     16612     16611     16614     16615
     16612     16611     16614     16616     16612     16611     16614     16617
     16613     16611     16614     16615     16613     16611     16614     16616
     16613     16611     16614     16617     16614     16617     16620     16621
     16614     16617     16620     16622     16614     16617     16620     16623
     16615     16614     16617     16618     16615     16614     16617     16619
     16615     16614     16617     16620     16616     16614     16617     16618
     16616     16614     16617     16619     16616     16614     16617     16620
     16617     16620     16623     16624     16617     16620     16623     16625
     16617     16620     16623     16626     16618     16617     16620     16621
     16618     16617     16620     16622     16618     16617     16620     16623
     16619     16617     16620     16621     16619     16617     16620     16622
     16619     16617     16620     16623     16620     16623     16626     16627
     16620     16623     16626     16628     16620     16623     16626     16629
     16621     16620     16623     16624     16621     16620     16623     16625
     16621     16620     16623     16626     16622     16620     16623     16624
     16622     16620     16623     16625     16622     16620     16623     16626
     16623     16626     16629     16630     16623     16626     16629     16631
     16623     16626     16629     16632     16624     16623     16626     16627
     16624     16623     16626     16628     16624     16623     16626     16629
     16625     16623     16626     16627     16625     16623     16626     16628
     16625     16623     16626     16629     16627     16626     16629     16630
     16627     16626     16629     16631     16627     16626     16629     16632
     16628     16626     16629     16630     16628     16626     16629     16631
     16628     16626     16629     16632     16633     16634     16649     16650
     16633     16634     16649     16651     16633     16634     16649     16655
     16634     16633     16637     16638     16634     16633     16637     16639
     16634     16633     16637     16640     16634     16633     16641     16642
     16634     16633     16641     16643     16634     16633     16641     16644
     16634     16633     16645     16646     16634     16633     16645     16647
     16634     16633     16645     16648     16634     16649     16655     16652
     16635     16634     16633     16637     16635     16634     16633     16641
     16635     16634     16633     16645     16635     16634     16649     16650
     16635     16634     16649     16651     16635     16634     16649     16655
     16636     16634     16633     16637     16636     16634     16633     16641
     16636     16634     16633     16645     16636     16634     16649     16650
     16636     16634     16649     16651     16636     16634     16649     16655
     16637     16633     16634     16649     16637     16633     16641     16642
     16637     16633     16641     16643     16637     16633     16641     16644
     16637     16633     16645     16646     16637     16633     16645     16647
     16637     16633     16645     16648     16638     16637     16633     16641
     16638     16637     16633     16645     16639     16637     16633     16641
     16639     16637     16633     16645     16640     16637     16633     16641
     16640     16637     16633     16645     16641     16633     16634     16649
     16641     16633     16645     16646     16641     16633     16645     16647
     16641     16633     16645     16648     16642     16641     16633     16645
     16643     16641     16633     16645     16644     16641     16633     16645
     16645     16633     16634     16649     16649     16655     16652     16653
     16649     16655     16652     16654     16649     16655     16652     16656
     16650     16649     16655     16652     16651     16649     16655     16652
     16652     16656     16657     16658     16652     16656     16657     16659
     16652     16656     16657     16660     16653     16652     16656     16657
     16654     16652     16656     16657     16655     16652     16656     16657
     16656     16657     16660     16661     16656     16657     16660     16662
     16656     16657     16660     16668     16657     16660     16662     16663
     16657     16660     16668     16669     16657     16660     16668     16670
     16657     16660     16668     16671     16658     16657     16660     16661
     16658     16657     16660     16662     16658     16657     16660     16668
     16659     16657     16660     16661     16659     16657     16660     16662
     16659     16657     16660     16668     16660     16662     16663     16664
     16660     16662     16663     16665     16660     16668     16671     16672
     16661     16660     16662     16663     16661     16660     16668     16669
     16661     16660     16668     16670     16661     16660     16668     16671
     16662     16660     16668     16669     16662     16660     16668     16670
     16662     16660     16668     16671     16662     16663     16665     16666
     16662     16663     16665     16667     16662     16663     16665     16677
     16663     16662     16660     16668     16663     16665     16677     16678
     16663     16665     16677     16679     16663     16665     16677     16680
     16664     16663     16665     16666     16664     16663     16665     16667
     16664     16663     16665     16677     16665     16677     16680     16681
     16665     16677     16680     16682     16665     16677     16680     16683
     16666     16665     16677     16678     16666     16665     16677     16679
     16666     16665     16677     16680     16667     16665     16677     16678
     16667     16665     16677     16679     16667     16665     16677     16680
     16668     16671     16672     16673     16668     16671     16672     16674
     16669     16668     16671     16672     16670     16668     16671     16672
     16671     16672     16674     16675     16671     16672     16674     16676
     16671     16672     16674     16724     16672     16674     16724     16725
     16672     16674     16724     16726     16672     16674     16724     16727
     16673     16672     16674     16675     16673     16672     16674     16676
     16673     16672     16674     16724     16674     16724     16727     16728
     16674     16724     16727     16729     16674     16724     16727     16730
     16675     16674     16724     16725     16675     16674     16724     16726
     16675     16674     16724     16727     16676     16674     16724     16725
     16676     16674     16724     16726     16676     16674     16724     16727
     16677     16680     16683     16684     16677     16680     16683     16685
     16677     16680     16683     16686     16678     16677     16680     16681
     16678     16677     16680     16682     16678     16677     16680     16683
     16679     16677     16680     16681     16679     16677     16680     16682
     16679     16677     16680     16683     16680     16683     16686     16687
     16680     16683     16686     16688     16680     16683     16686     16689
     16681     16680     16683     16684     16681     16680     16683     16685
     16681     16680     16683     16686     16682     16680     16683     16684
     16682     16680     16683     16685     16682     16680     16683     16686
     16683     16686     16689     16690     16683     16686     16689     16691
     16683     16686     16689     16692     16684     16683     16686     16687
     16684     16683     16686     16688     16684     16683     16686     16689
     16685     16683     16686     16687     16685     16683     16686     16688
     16685     16683     16686     16689     16686     16689     16692     16693
     16686     16689     16692     16694     16686     16689     16692     16695
     16687     16686     16689     16690     16687     16686     16689     16691
     16687     16686     16689     16692     16688     16686     16689     16690
     16688     16686     16689     16691     16688     16686     16689     16692
     16689     16692     16695     16696     16689     16692     16695     16697
     16690     16689     16692     16693     16690     16689     16692     16694
     16690     16689     16692     16695     16691     16689     16692     16693
     16691     16689     16692     16694     16691     16689     16692     16695
     16692     16695     16697     16698     16692     16695     16697     16699
     16693     16692     16695     16696     16693     16692     16695     16697
     16694     16692     16695     16696     16694     16692     16695     16697
     16695     16697     16699     16700     16695     16697     16699     16701
     16695     16697     16699     16702     16696     16695     16697     16698
     16696     16695     16697     16699     16697     16699     16702     16703
     16697     16699     16702     16704     16697     16699     16702     16705
     16698     16697     16699     16700     16698     16697     16699     16701
     16698     16697     16699     16702     16699     16702     16705     16706
     16699     16702     16705     16707     16699     16702     16705     16708
     16700     16699     16702     16703     16700     16699     16702     16704
     16700     16699     16702     16705     16701     16699     16702     16703
     16701     16699     16702     16704     16701     16699     16702     16705
     16702     16705     16708     16709     16702     16705     16708     16710
     16702     16705     16708     16711     16703     16702     16705     16706
     16703     16702     16705     16707     16703     16702     16705     16708
     16704     16702     16705     16706     16704     16702     16705     16707
     16704     16702     16705     16708     16705     16708     16711     16712
     16705     16708     16711     16713     16705     16708     16711     16714
     16706     16705     16708     16709     16706     16705     16708     16710
     16706     16705     16708     16711     16707     16705     16708     16709
     16707     16705     16708     16710     16707     16705     16708     16711
     16708     16711     16714     16715     16708     16711     16714     16716
     16708     16711     16714     16717     16709     16708     16711     16712
     16709     16708     16711     16713     16709     16708     16711     16714
     16710     16708     16711     16712     16710     16708     16711     16713
     16710     16708     16711     16714     16711     16714     16717     16718
     16711     16714     16717     16719     16711     16714     16717     16720
     16712     16711     16714     16715     16712     16711     16714     16716
     16712     16711     16714     16717     16713     16711     16714     16715
     16713     16711     16714     16716     16713     16711     16714     16717
     16714     16717     16720     16721     16714     16717     16720     16722
     16714     16717     16720     16723     16715     16714     16717     16718
     16715     16714     16717     16719     16715     16714     16717     16720
     16716     16714     16717     16718     16716     16714     16717     16719
     16716     16714     16717     16720     16718     16717     16720     16721
     16718     16717     16720     16722     16718     16717     16720     16723
     16719     16717     16720     16721     16719     16717     16720     16722
     16719     16717     16720     16723     16724     16727     16730     16731
     16724     16727     16730     16732     16724     16727     16730     16733
     16725     16724     16727     16728     16725     16724     16727     16729
     16725     16724     16727     16730     16726     16724     16727     16728
     16726     16724     16727     16729     16726     16724     16727     16730
     16727     16730     16733     16734     16727     16730     16733     16735
     16727     16730     16733     16736     16728     16727     16730     16731
     16728     16727     16730     16732     16728     16727     16730     16733
     16729     16727     16730     16731     16729     16727     16730     16732
     16729     16727     16730     16733     16730     16733     16736     16737
     16730     16733     16736     16738     16730     16733     16736     16739
     16731     16730     16733     16734     16731     16730     16733     16735
     16731     16730     16733     16736     16732     16730     16733     16734
     16732     16730     16733     16735     16732     16730     16733     16736
     16733     16736     16739     16740     16733     16736     16739     16741
     16733     16736     16739     16742     16734     16733     16736     16737
     16734     16733     16736     16738     16734     16733     16736     16739
     16735     16733     16736     16737     16735     16733     16736     16738
     16735     16733     16736     16739     16736     16739     16742     16743
     16736     16739     16742     16744     16736     16739     16742     16745
     16737     16736     16739     16740     16737     16736     16739     16741
     16737     16736     16739     16742     16738     16736     16739     16740
     16738     16736     16739     16741     16738     16736     16739     16742
     16739     16742     16745     16746     16739     16742     16745     16747
     16739     16742     16745     16748     16740     16739     16742     16743
     16740     16739     16742     16744     16740     16739     16742     16745
     16741     16739     16742     16743     16741     16739     16742     16744
     16741     16739     16742     16745     16742     16745     16748     16749
     16742     16745     16748     16750     16742     16745     16748     16751
     16743     16742     16745     16746     16743     16742     16745     16747
     16743     16742     16745     16748     16744     16742     16745     16746
     16744     16742     16745     16747     16744     16742     16745     16748
     16745     16748     16751     16752     16745     16748     16751     16753
     16745     16748     16751     16754     16746     16745     16748     16749
     16746     16745     16748     16750     16746     16745     16748     16751
     16747     16745     16748     16749     16747     16745     16748     16750
     16747     16745     16748     16751     16748     16751     16754     16755
     16748     16751     16754     16756     16748     16751     16754     16757
     16749     16748     16751     16752     16749     16748     16751     16753
     16749     16748     16751     16754     16750     16748     16751     16752
     16750     16748     16751     16753     16750     16748     16751     16754
     16751     16754     16757     16758     16751     16754     16757     16759
     16751     16754     16757     16760     16752     16751     16754     16755
     16752     16751     16754     16756     16752     16751     16754     16757
     16753     16751     16754     16755     16753     16751     16754     16756
     16753     16751     16754     16757     16754     16757     16760     16761
     16754     16757     16760     16762     16754     16757     16760     16763
     16755     16754     16757     16758     16755     16754     16757     16759
     16755     16754     16757     16760     16756     16754     16757     16758
     16756     16754     16757     16759     16756     16754     16757     16760
     16757     16760     16763     16764     16757     16760     16763     16765
     16757     16760     16763     16766     16758     16757     16760     16761
     16758     16757     16760     16762     16758     16757     16760     16763
     16759     16757     16760     16761     16759     16757     16760     16762
     16759     16757     16760     16763     16761     16760     16763     16764
     16761     16760     16763     16765     16761     16760     16763     16766
     16762     16760     16763     16764     16762     16760     16763     16765
     16762     16760     16763     16766     16767     16768     16783     16784
     16767     16768     16783     16785     16767     16768     16783     16789
     16768     16767     16771     16772     16768     16767     16771     16773
     16768     16767     16771     16774     16768     16767     16775     16776
     16768     16767     16775     16777     16768     16767     16775     16778
     16768     16767     16779     16780     16768     16767     16779     16781
     16768     16767     16779     16782     16768     16783     16789     16786
     16769     16768     16767     16771     16769     16768     16767     16775
     16769     16768     16767     16779     16769     16768     16783     16784
     16769     16768     16783     16785     16769     16768     16783     16789
     16770     16768     16767     16771     16770     16768     16767     16775
     16770     16768     16767     16779     16770     16768     16783     16784
     16770     16768     16783     16785     16770     16768     16783     16789
     16771     16767     16768     16783     16771     16767     16775     16776
     16771     16767     16775     16777     16771     16767     16775     16778
     16771     16767     16779     16780     16771     16767     16779     16781
     16771     16767     16779     16782     16772     16771     16767     16775
     16772     16771     16767     16779     16773     16771     16767     16775
     16773     16771     16767     16779     16774     16771     16767     16775
     16774     16771     16767     16779     16775     16767     16768     16783
     16775     16767     16779     16780     16775     16767     16779     16781
     16775     16767     16779     16782     16776     16775     16767     16779
     16777     16775     16767     16779     16778     16775     16767     16779
     16779     16767     16768     16783     16783     16789     16786     16787
     16783     16789     16786     16788     16783     16789     16786     16790
     16784     16783     16789     16786     16785     16783     16789     16786
     16786     16790     16791     16792     16786     16790     16791     16793
     16786     16790     16791     16794     16787     16786     16790     16791
     16788     16786     16790     16791     16789     16786     16790     16791
     16790     16791     16794     16795     16790     16791     16794     16796
     16790     16791     16794     16802     16791     16794     16796     16797
     16791     16794     16802     16803     16791     16794     16802     16804
     16791     16794     16802     16805     16792     16791     16794     16795
     16792     16791     16794     16796     16792     16791     16794     16802
     16793     16791     16794     16795     16793     16791     16794     16796
     16793     16791     16794     16802     16794     16796     16797     16798
     16794     16796     16797     16799     16794     16802     16805     16806
     16795     16794     16796     16797     16795     16794     16802     16803
     16795     16794     16802     16804     16795     16794     16802     16805
     16796     16794     16802     16803     16796     16794     16802     16804
     16796     16794     16802     16805     16796     16797     16799     16800
     16796     16797     16799     16801     16796     16797     16799     16811
     16797     16796     16794     16802     16797     16799     16811     16812
     16797     16799     16811     16813     16797     16799     16811     16814
     16798     16797     16799     16800     16798     16797     16799     16801
     16798     16797     16799     16811     16799     16811     16814     16815
     16799     16811     16814     16816     16799     16811     16814     16817
     16800     16799     16811     16812     16800     16799     16811     16813
     16800     16799     16811     16814     16801     16799     16811     16812
     16801     16799     16811     16813     16801     16799     16811     16814
     16802     16805     16806     16807     16802     16805     16806     16808
     16803     16802     16805     16806     16804     16802     16805     16806
     16805     16806     16808     16809     16805     16806     16808     16810
     16805     16806     16808     16858     16806     16808     16858     16859
     16806     16808     16858     16860     16806     16808     16858     16861
     16807     16806     16808     16809     16807     16806     16808     16810
     16807     16806     16808     16858     16808     16858     16861     16862
     16808     16858     16861     16863     16808     16858     16861     16864
     16809     16808     16858     16859     16809     16808     16858     16860
     16809     16808     16858     16861     16810     16808     16858     16859
     16810     16808     16858     16860     16810     16808     16858     16861
     16811     16814     16817     16818     16811     16814     16817     16819
     16811     16814     16817     16820     16812     16811     16814     16815
     16812     16811     16814     16816     16812     16811     16814     16817
     16813     16811     16814     16815     16813     16811     16814     16816
     16813     16811     16814     16817     16814     16817     16820     16821
     16814     16817     16820     16822     16814     16817     16820     16823
     16815     16814     16817     16818     16815     16814     16817     16819
     16815     16814     16817     16820     16816     16814     16817     16818
     16816     16814     16817     16819     16816     16814     16817     16820
     16817     16820     16823     16824     16817     16820     16823     16825
     16817     16820     16823     16826     16818     16817     16820     16821
     16818     16817     16820     16822     16818     16817     16820     16823
     16819     16817     16820     16821     16819     16817     16820     16822
     16819     16817     16820     16823     16820     16823     16826     16827
     16820     16823     16826     16828     16820     16823     16826     16829
     16821     16820     16823     16824     16821     16820     16823     16825
     16821     16820     16823     16826     16822     16820     16823     16824
     16822     16820     16823     16825     16822     16820     16823     16826
     16823     16826     16829     16830     16823     16826     16829     16831
     16824     16823     16826     16827     16824     16823     16826     16828
     16824     16823     16826     16829     16825     16823     16826     16827
     16825     16823     16826     16828     16825     16823     16826     16829
     16826     16829     16831     16832     16826     16829     16831     16833
     16827     16826     16829     16830     16827     16826     16829     16831
     16828     16826     16829     16830     16828     16826     16829     16831
     16829     16831     16833     16834     16829     16831     16833     16835
     16829     16831     16833     16836     16830     16829     16831     16832
     16830     16829     16831     16833     16831     16833     16836     16837
     16831     16833     16836     16838     16831     16833     16836     16839
     16832     16831     16833     16834     16832     16831     16833     16835
     16832     16831     16833     16836     16833     16836     16839     16840
     16833     16836     16839     16841     16833     16836     16839     16842
     16834     16833     16836     16837     16834     16833     16836     16838
     16834     16833     16836     16839     16835     16833     16836     16837
     16835     16833     16836     16838     16835     16833     16836     16839
     16836     16839     16842     16843     16836     16839     16842     16844
     16836     16839     16842     16845     16837     16836     16839     16840
     16837     16836     16839     16841     16837     16836     16839     16842
     16838     16836     16839     16840     16838     16836     16839     16841
     16838     16836     16839     16842     16839     16842     16845     16846
     16839     16842     16845     16847     16839     16842     16845     16848
     16840     16839     16842     16843     16840     16839     16842     16844
     16840     16839     16842     16845     16841     16839     16842     16843
     16841     16839     16842     16844     16841     16839     16842     16845
     16842     16845     16848     16849     16842     16845     16848     16850
     16842     16845     16848     16851     16843     16842     16845     16846
     16843     16842     16845     16847     16843     16842     16845     16848
     16844     16842     16845     16846     16844     16842     16845     16847
     16844     16842     16845     16848     16845     16848     16851     16852
     16845     16848     16851     16853     16845     16848     16851     16854
     16846     16845     16848     16849     16846     16845     16848     16850
     16846     16845     16848     16851     16847     16845     16848     16849
     16847     16845     16848     16850     16847     16845     16848     16851
     16848     16851     16854     16855     16848     16851     16854     16856
     16848     16851     16854     16857     16849     16848     16851     16852
     16849     16848     16851     16853     16849     16848     16851     16854
     16850     16848     16851     16852     16850     16848     16851     16853
     16850     16848     16851     16854     16852     16851     16854     16855
     16852     16851     16854     16856     16852     16851     16854     16857
     16853     16851     16854     16855     16853     16851     16854     16856
     16853     16851     16854     16857     16858     16861     16864     16865
     16858     16861     16864     16866     16858     16861     16864     16867
     16859     16858     16861     16862     16859     16858     16861     16863
     16859     16858     16861     16864     16860     16858     16861     16862
     16860     16858     16861     16863     16860     16858     16861     16864
     16861     16864     16867     16868     16861     16864     16867     16869
     16861     16864     16867     16870     16862     16861     16864     16865
     16862     16861     16864     16866     16862     16861     16864     16867
     16863     16861     16864     16865     16863     16861     16864     16866
     16863     16861     16864     16867     16864     16867     16870     16871
     16864     16867     16870     16872     16864     16867     16870     16873
     16865     16864     16867     16868     16865     16864     16867     16869
     16865     16864     16867     16870     16866     16864     16867     16868
     16866     16864     16867     16869     16866     16864     16867     16870
     16867     16870     16873     16874     16867     16870     16873     16875
     16867     16870     16873     16876     16868     16867     16870     16871
     16868     16867     16870     16872     16868     16867     16870     16873
     16869     16867     16870     16871     16869     16867     16870     16872
     16869     16867     16870     16873     16870     16873     16876     16877
     16870     16873     16876     16878     16870     16873     16876     16879
     16871     16870     16873     16874     16871     16870     16873     16875
     16871     16870     16873     16876     16872     16870     16873     16874
     16872     16870     16873     16875     16872     16870     16873     16876
     16873     16876     16879     16880     16873     16876     16879     16881
     16873     16876     16879     16882     16874     16873     16876     16877
     16874     16873     16876     16878     16874     16873     16876     16879
     16875     16873     16876     16877     16875     16873     16876     16878
     16875     16873     16876     16879     16876     16879     16882     16883
     16876     16879     16882     16884     16876     16879     16882     16885
     16877     16876     16879     16880     16877     16876     16879     16881
     16877     16876     16879     16882     16878     16876     16879     16880
     16878     16876     16879     16881     16878     16876     16879     16882
     16879     16882     16885     16886     16879     16882     16885     16887
     16879     16882     16885     16888     16880     16879     16882     16883
     16880     16879     16882     16884     16880     16879     16882     16885
     16881     16879     16882     16883     16881     16879     16882     16884
     16881     16879     16882     16885     16882     16885     16888     16889
     16882     16885     16888     16890     16882     16885     16888     16891
     16883     16882     16885     16886     16883     16882     16885     16887
     16883     16882     16885     16888     16884     16882     16885     16886
     16884     16882     16885     16887     16884     16882     16885     16888
     16885     16888     16891     16892     16885     16888     16891     16893
     16885     16888     16891     16894     16886     16885     16888     16889
     16886     16885     16888     16890     16886     16885     16888     16891
     16887     16885     16888     16889     16887     16885     16888     16890
     16887     16885     16888     16891     16888     16891     16894     16895
     16888     16891     16894     16896     16888     16891     16894     16897
     16889     16888     16891     16892     16889     16888     16891     16893
     16889     16888     16891     16894     16890     16888     16891     16892
     16890     16888     16891     16893     16890     16888     16891     16894
     16891     16894     16897     16898     16891     16894     16897     16899
     16891     16894     16897     16900     16892     16891     16894     16895
     16892     16891     16894     16896     16892     16891     16894     16897
     16893     16891     16894     16895     16893     16891     16894     16896
     16893     16891     16894     16897     16895     16894     16897     16898
     16895     16894     16897     16899     16895     16894     16897     16900
     16896     16894     16897     16898     16896     16894     16897     16899
     16896     16894     16897     16900     16901     16902     16917     16918
     16901     16902     16917     16919     16901     16902     16917     16923
     16902     16901     16905     16906     16902     16901     16905     16907
     16902     16901     16905     16908     16902     16901     16909     16910
     16902     16901     16909     16911     16902     16901     16909     16912
     16902     16901     16913     16914     16902     16901     16913     16915
     16902     16901     16913     16916     16902     16917     16923     16920
     16903     16902     16901     16905     16903     16902     16901     16909
     16903     16902     16901     16913     16903     16902     16917     16918
     16903     16902     16917     16919     16903     16902     16917     16923
     16904     16902     16901     16905     16904     16902     16901     16909
     16904     16902     16901     16913     16904     16902     16917     16918
     16904     16902     16917     16919     16904     16902     16917     16923
     16905     16901     16902     16917     16905     16901     16909     16910
     16905     16901     16909     16911     16905     16901     16909     16912
     16905     16901     16913     16914     16905     16901     16913     16915
     16905     16901     16913     16916     16906     16905     16901     16909
     16906     16905     16901     16913     16907     16905     16901     16909
     16907     16905     16901     16913     16908     16905     16901     16909
     16908     16905     16901     16913     16909     16901     16902     16917
     16909     16901     16913     16914     16909     16901     16913     16915
     16909     16901     16913     16916     16910     16909     16901     16913
     16911     16909     16901     16913     16912     16909     16901     16913
     16913     16901     16902     16917     16917     16923     16920     16921
     16917     16923     16920     16922     16917     16923     16920     16924
     16918     16917     16923     16920     16919     16917     16923     16920
     16920     16924     16925     16926     16920     16924     16925     16927
     16920     16924     16925     16928     16921     16920     16924     16925
     16922     16920     16924     16925     16923     16920     16924     16925
     16924     16925     16928     16929     16924     16925     16928     16930
     16924     16925     16928     16936     16925     16928     16930     16931
     16925     16928     16936     16937     16925     16928     16936     16938
     16925     16928     16936     16939     16926     16925     16928     16929
     16926     16925     16928     16930     16926     16925     16928     16936
     16927     16925     16928     16929     16927     16925     16928     16930
     16927     16925     16928     16936     16928     16930     16931     16932
     16928     16930     16931     16933     16928     16936     16939     16940
     16929     16928     16930     16931     16929     16928     16936     16937
     16929     16928     16936     16938     16929     16928     16936     16939
     16930     16928     16936     16937     16930     16928     16936     16938
     16930     16928     16936     16939     16930     16931     16933     16934
     16930     16931     16933     16935     16930     16931     16933     16945
     16931     16930     16928     16936     16931     16933     16945     16946
     16931     16933     16945     16947     16931     16933     16945     16948
     16932     16931     16933     16934     16932     16931     16933     16935
     16932     16931     16933     16945     16933     16945     16948     16949
     16933     16945     16948     16950     16933     16945     16948     16951
     16934     16933     16945     16946     16934     16933     16945     16947
     16934     16933     16945     16948     16935     16933     16945     16946
     16935     16933     16945     16947     16935     16933     16945     16948
     16936     16939     16940     16941     16936     16939     16940     16942
     16937     16936     16939     16940     16938     16936     16939     16940
     16939     16940     16942     16943     16939     16940     16942     16944
     16939     16940     16942     16992     16940     16942     16992     16993
     16940     16942     16992     16994     16940     16942     16992     16995
     16941     16940     16942     16943     16941     16940     16942     16944
     16941     16940     16942     16992     16942     16992     16995     16996
     16942     16992     16995     16997     16942     16992     16995     16998
     16943     16942     16992     16993     16943     16942     16992     16994
     16943     16942     16992     16995     16944     16942     16992     16993
     16944     16942     16992     16994     16944     16942     16992     16995
     16945     16948     16951     16952     16945     16948     16951     16953
     16945     16948     16951     16954     16946     16945     16948     16949
     16946     16945     16948     16950     16946     16945     16948     16951
     16947     16945     16948     16949     16947     16945     16948     16950
     16947     16945     16948     16951     16948     16951     16954     16955
     16948     16951     16954     16956     16948     16951     16954     16957
     16949     16948     16951     16952     16949     16948     16951     16953
     16949     16948     16951     16954     16950     16948     16951     16952
     16950     16948     16951     16953     16950     16948     16951     16954
     16951     16954     16957     16958     16951     16954     16957     16959
     16951     16954     16957     16960     16952     16951     16954     16955
     16952     16951     16954     16956     16952     16951     16954     16957
     16953     16951     16954     16955     16953     16951     16954     16956
     16953     16951     16954     16957     16954     16957     16960     16961
     16954     16957     16960     16962     16954     16957     16960     16963
     16955     16954     16957     16958     16955     16954     16957     16959
     16955     16954     16957     16960     16956     16954     16957     16958
     16956     16954     16957     16959     16956     16954     16957     16960
     16957     16960     16963     16964     16957     16960     16963     16965
     16958     16957     16960     16961     16958     16957     16960     16962
     16958     16957     16960     16963     16959     16957     16960     16961
     16959     16957     16960     16962     16959     16957     16960     16963
     16960     16963     16965     16966     16960     16963     16965     16967
     16961     16960     16963     16964     16961     16960     16963     16965
     16962     16960     16963     16964     16962     16960     16963     16965
     16963     16965     16967     16968     16963     16965     16967     16969
     16963     16965     16967     16970     16964     16963     16965     16966
     16964     16963     16965     16967     16965     16967     16970     16971
     16965     16967     16970     16972     16965     16967     16970     16973
     16966     16965     16967     16968     16966     16965     16967     16969
     16966     16965     16967     16970     16967     16970     16973     16974
     16967     16970     16973     16975     16967     16970     16973     16976
     16968     16967     16970     16971     16968     16967     16970     16972
     16968     16967     16970     16973     16969     16967     16970     16971
     16969     16967     16970     16972     16969     16967     16970     16973
     16970     16973     16976     16977     16970     16973     16976     16978
     16970     16973     16976     16979     16971     16970     16973     16974
     16971     16970     16973     16975     16971     16970     16973     16976
     16972     16970     16973     16974     16972     16970     16973     16975
     16972     16970     16973     16976     16973     16976     16979     16980
     16973     16976     16979     16981     16973     16976     16979     16982
     16974     16973     16976     16977     16974     16973     16976     16978
     16974     16973     16976     16979     16975     16973     16976     16977
     16975     16973     16976     16978     16975     16973     16976     16979
     16976     16979     16982     16983     16976     16979     16982     16984
     16976     16979     16982     16985     16977     16976     16979     16980
     16977     16976     16979     16981     16977     16976     16979     16982
     16978     16976     16979     16980     16978     16976     16979     16981
     16978     16976     16979     16982     16979     16982     16985     16986
     16979     16982     16985     16987     16979     16982     16985     16988
     16980     16979     16982     16983     16980     16979     16982     16984
     16980     16979     16982     16985     16981     16979     16982     16983
     16981     16979     16982     16984     16981     16979     16982     16985
     16982     16985     16988     16989     16982     16985     16988     16990
     16982     16985     16988     16991     16983     16982     16985     16986
     16983     16982     16985     16987     16983     16982     16985     16988
     16984     16982     16985     16986     16984     16982     16985     16987
     16984     16982     16985     16988     16986     16985     16988     16989
     16986     16985     16988     16990     16986     16985     16988     16991
     16987     16985     16988     16989     16987     16985     16988     16990
     16987     16985     16988     16991     16992     16995     16998     16999
     16992     16995     16998     17000     16992     16995     16998     17001
     16993     16992     16995     16996     16993     16992     16995     16997
     16993     16992     16995     16998     16994     16992     16995     16996
     16994     16992     16995     16997     16994     16992     16995     16998
     16995     16998     17001     17002     16995     16998     17001     17003
     16995     16998     17001     17004     16996     16995     16998     16999
     16996     16995     16998     17000     16996     16995     16998     17001
     16997     16995     16998     16999     16997     16995     16998     17000
     16997     16995     16998     17001     16998     17001     17004     17005
     16998     17001     17004     17006     16998     17001     17004     17007
     16999     16998     17001     17002     16999     16998     17001     17003
     16999     16998     17001     17004     17000     16998     17001     17002
     17000     16998     17001     17003     17000     16998     17001     17004
     17001     17004     17007     17008     17001     17004     17007     17009
     17001     17004     17007     17010     17002     17001     17004     17005
     17002     17001     17004     17006     17002     17001     17004     17007
     17003     17001     17004     17005     17003     17001     17004     17006
     17003     17001     17004     17007     17004     17007     17010     17011
     17004     17007     17010     17012     17004     17007     17010     17013
     17005     17004     17007     17008     17005     17004     17007     17009
     17005     17004     17007     17010     17006     17004     17007     17008
     17006     17004     17007     17009     17006     17004     17007     17010
     17007     17010     17013     17014     17007     17010     17013     17015
     17007     17010     17013     17016     17008     17007     17010     17011
     17008     17007     17010     17012     17008     17007     17010     17013
     17009     17007     17010     17011     17009     17007     17010     17012
     17009     17007     17010     17013     17010     17013     17016     17017
     17010     17013     17016     17018     17010     17013     17016     17019
     17011     17010     17013     17014     17011     17010     17013     17015
     17011     17010     17013     17016     17012     17010     17013     17014
     17012     17010     17013     17015     17012     17010     17013     17016
     17013     17016     17019     17020     17013     17016     17019     17021
     17013     17016     17019     17022     17014     17013     17016     17017
     17014     17013     17016     17018     17014     17013     17016     17019
     17015     17013     17016     17017     17015     17013     17016     17018
     17015     17013     17016     17019     17016     17019     17022     17023
     17016     17019     17022     17024     17016     17019     17022     17025
     17017     17016     17019     17020     17017     17016     17019     17021
     17017     17016     17019     17022     17018     17016     17019     17020
     17018     17016     17019     17021     17018     17016     17019     17022
     17019     17022     17025     17026     17019     17022     17025     17027
     17019     17022     17025     17028     17020     17019     17022     17023
     17020     17019     17022     17024     17020     17019     17022     17025
     17021     17019     17022     17023     17021     17019     17022     17024
     17021     17019     17022     17025     17022     17025     17028     17029
     17022     17025     17028     17030     17022     17025     17028     17031
     17023     17022     17025     17026     17023     17022     17025     17027
     17023     17022     17025     17028     17024     17022     17025     17026
     17024     17022     17025     17027     17024     17022     17025     17028
     17025     17028     17031     17032     17025     17028     17031     17033
     17025     17028     17031     17034     17026     17025     17028     17029
     17026     17025     17028     17030     17026     17025     17028     17031
     17027     17025     17028     17029     17027     17025     17028     17030
     17027     17025     17028     17031     17029     17028     17031     17032
     17029     17028     17031     17033     17029     17028     17031     17034
     17030     17028     17031     17032     17030     17028     17031     17033
     17030     17028     17031     17034     17035     17036     17051     17052
     17035     17036     17051     17053     17035     17036     17051     17057
     17036     17035     17039     17040     17036     17035     17039     17041
     17036     17035     17039     17042     17036     17035     17043     17044
     17036     17035     17043     17045     17036     17035     17043     17046
     17036     17035     17047     17048     17036     17035     17047     17049
     17036     17035     17047     17050     17036     17051     17057     17054
     17037     17036     17035     17039     17037     17036     17035     17043
     17037     17036     17035     17047     17037     17036     17051     17052
     17037     17036     17051     17053     17037     17036     17051     17057
     17038     17036     17035     17039     17038     17036     17035     17043
     17038     17036     17035     17047     17038     17036     17051     17052
     17038     17036     17051     17053     17038     17036     17051     17057
     17039     17035     17036     17051     17039     17035     17043     17044
     17039     17035     17043     17045     17039     17035     17043     17046
     17039     17035     17047     17048     17039     17035     17047     17049
     17039     17035     17047     17050     17040     17039     17035     17043
     17040     17039     17035     17047     17041     17039     17035     17043
     17041     17039     17035     17047     17042     17039     17035     17043
     17042     17039     17035     17047     17043     17035     17036     17051
     17043     17035     17047     17048     17043     17035     17047     17049
     17043     17035     17047     17050     17044     17043     17035     17047
     17045     17043     17035     17047     17046     17043     17035     17047
     17047     17035     17036     17051     17051     17057     17054     17055
     17051     17057     17054     17056     17051     17057     17054     17058
     17052     17051     17057     17054     17053     17051     17057     17054
     17054     17058     17059     17060     17054     17058     17059     17061
     17054     17058     17059     17062     17055     17054     17058     17059
     17056     17054     17058     17059     17057     17054     17058     17059
     17058     17059     17062     17063     17058     17059     17062     17064
     17058     17059     17062     17070     17059     17062     17064     17065
     17059     17062     17070     17071     17059     17062     17070     17072
     17059     17062     17070     17073     17060     17059     17062     17063
     17060     17059     17062     17064     17060     17059     17062     17070
     17061     17059     17062     17063     17061     17059     17062     17064
     17061     17059     17062     17070     17062     17064     17065     17066
     17062     17064     17065     17067     17062     17070     17073     17074
     17063     17062     17064     17065     17063     17062     17070     17071
     17063     17062     17070     17072     17063     17062     17070     17073
     17064     17062     17070     17071     17064     17062     17070     17072
     17064     17062     17070     17073     17064     17065     17067     17068
     17064     17065     17067     17069     17064     17065     17067     17079
     17065     17064     17062     17070     17065     17067     17079     17080
     17065     17067     17079     17081     17065     17067     17079     17082
     17066     17065     17067     17068     17066     17065     17067     17069
     17066     17065     17067     17079     17067     17079     17082     17083
     17067     17079     17082     17084     17067     17079     17082     17085
     17068     17067     17079     17080     17068     17067     17079     17081
     17068     17067     17079     17082     17069     17067     17079     17080
     17069     17067     17079     17081     17069     17067     17079     17082
     17070     17073     17074     17075     17070     17073     17074     17076
     17071     17070     17073     17074     17072     17070     17073     17074
     17073     17074     17076     17077     17073     17074     17076     17078
     17073     17074     17076     17126     17074     17076     17126     17127
     17074     17076     17126     17128     17074     17076     17126     17129
     17075     17074     17076     17077     17075     17074     17076     17078
     17075     17074     17076     17126     17076     17126     17129     17130
     17076     17126     17129     17131     17076     17126     17129     17132
     17077     17076     17126     17127     17077     17076     17126     17128
     17077     17076     17126     17129     17078     17076     17126     17127
     17078     17076     17126     17128     17078     17076     17126     17129
     17079     17082     17085     17086     17079     17082     17085     17087
     17079     17082     17085     17088     17080     17079     17082     17083
     17080     17079     17082     17084     17080     17079     17082     17085
     17081     17079     17082     17083     17081     17079     17082     17084
     17081     17079     17082     17085     17082     17085     17088     17089
     17082     17085     17088     17090     17082     17085     17088     17091
     17083     17082     17085     17086     17083     17082     17085     17087
     17083     17082     17085     17088     17084     17082     17085     17086
     17084     17082     17085     17087     17084     17082     17085     17088
     17085     17088     17091     17092     17085     17088     17091     17093
     17085     17088     17091     17094     17086     17085     17088     17089
     17086     17085     17088     17090     17086     17085     17088     17091
     17087     17085     17088     17089     17087     17085     17088     17090
     17087     17085     17088     17091     17088     17091     17094     17095
     17088     17091     17094     17096     17088     17091     17094     17097
     17089     17088     17091     17092     17089     17088     17091     17093
     17089     17088     17091     17094     17090     17088     17091     17092
     17090     17088     17091     17093     17090     17088     17091     17094
     17091     17094     17097     17098     17091     17094     17097     17099
     17092     17091     17094     17095     17092     17091     17094     17096
     17092     17091     17094     17097     17093     17091     17094     17095
     17093     17091     17094     17096     17093     17091     17094     17097
     17094     17097     17099     17100     17094     17097     17099     17101
     17095     17094     17097     17098     17095     17094     17097     17099
     17096     17094     17097     17098     17096     17094     17097     17099
     17097     17099     17101     17102     17097     17099     17101     17103
     17097     17099     17101     17104     17098     17097     17099     17100
     17098     17097     17099     17101     17099     17101     17104     17105
     17099     17101     17104     17106     17099     17101     17104     17107
     17100     17099     17101     17102     17100     17099     17101     17103
     17100     17099     17101     17104     17101     17104     17107     17108
     17101     17104     17107     17109     17101     17104     17107     17110
     17102     17101     17104     17105     17102     17101     17104     17106
     17102     17101     17104     17107     17103     17101     17104     17105
     17103     17101     17104     17106     17103     17101     17104     17107
     17104     17107     17110     17111     17104     17107     17110     17112
     17104     17107     17110     17113     17105     17104     17107     17108
     17105     17104     17107     17109     17105     17104     17107     17110
     17106     17104     17107     17108     17106     17104     17107     17109
     17106     17104     17107     17110     17107     17110     17113     17114
     17107     17110     17113     17115     17107     17110     17113     17116
     17108     17107     17110     17111     17108     17107     17110     17112
     17108     17107     17110     17113     17109     17107     17110     17111
     17109     17107     17110     17112     17109     17107     17110     17113
     17110     17113     17116     17117     17110     17113     17116     17118
     17110     17113     17116     17119     17111     17110     17113     17114
     17111     17110     17113     17115     17111     17110     17113     17116
     17112     17110     17113     17114     17112     17110     17113     17115
     17112     17110     17113     17116     17113     17116     17119     17120
     17113     17116     17119     17121     17113     17116     17119     17122
     17114     17113     17116     17117     17114     17113     17116     17118
     17114     17113     17116     17119     17115     17113     17116     17117
     17115     17113     17116     17118     17115     17113     17116     17119
     17116     17119     17122     17123     17116     17119     17122     17124
     17116     17119     17122     17125     17117     17116     17119     17120
     17117     17116     17119     17121     17117     17116     17119     17122
     17118     17116     17119     17120     17118     17116     17119     17121
     17118     17116     17119     17122     17120     17119     17122     17123
     17120     17119     17122     17124     17120     17119     17122     17125
     17121     17119     17122     17123     17121     17119     17122     17124
     17121     17119     17122     17125     17126     17129     17132     17133
     17126     17129     17132     17134     17126     17129     17132     17135
     17127     17126     17129     17130     17127     17126     17129     17131
     17127     17126     17129     17132     17128     17126     17129     17130
     17128     17126     17129     17131     17128     17126     17129     17132
     17129     17132     17135     17136     17129     17132     17135     17137
     17129     17132     17135     17138     17130     17129     17132     17133
     17130     17129     17132     17134     17130     17129     17132     17135
     17131     17129     17132     17133     17131     17129     17132     17134
     17131     17129     17132     17135     17132     17135     17138     17139
     17132     17135     17138     17140     17132     17135     17138     17141
     17133     17132     17135     17136     17133     17132     17135     17137
     17133     17132     17135     17138     17134     17132     17135     17136
     17134     17132     17135     17137     17134     17132     17135     17138
     17135     17138     17141     17142     17135     17138     17141     17143
     17135     17138     17141     17144     17136     17135     17138     17139
     17136     17135     17138     17140     17136     17135     17138     17141
     17137     17135     17138     17139     17137     17135     17138     17140
     17137     17135     17138     17141     17138     17141     17144     17145
     17138     17141     17144     17146     17138     17141     17144     17147
     17139     17138     17141     17142     17139     17138     17141     17143
     17139     17138     17141     17144     17140     17138     17141     17142
     17140     17138     17141     17143     17140     17138     17141     17144
     17141     17144     17147     17148     17141     17144     17147     17149
     17141     17144     17147     17150     17142     17141     17144     17145
     17142     17141     17144     17146     17142     17141     17144     17147
     17143     17141     17144     17145     17143     17141     17144     17146
     17143     17141     17144     17147     17144     17147     17150     17151
     17144     17147     17150     17152     17144     17147     17150     17153
     17145     17144     17147     17148     17145     17144     17147     17149
     17145     17144     17147     17150     17146     17144     17147     17148
     17146     17144     17147     17149     17146     17144     17147     17150
     17147     17150     17153     17154     17147     17150     17153     17155
     17147     17150     17153     17156     17148     17147     17150     17151
     17148     17147     17150     17152     17148     17147     17150     17153
     17149     17147     17150     17151     17149     17147     17150     17152
     17149     17147     17150     17153     17150     17153     17156     17157
     17150     17153     17156     17158     17150     17153     17156     17159
     17151     17150     17153     17154     17151     17150     17153     17155
     17151     17150     17153     17156     17152     17150     17153     17154
     17152     17150     17153     17155     17152     17150     17153     17156
     17153     17156     17159     17160     17153     17156     17159     17161
     17153     17156     17159     17162     17154     17153     17156     17157
     17154     17153     17156     17158     17154     17153     17156     17159
     17155     17153     17156     17157     17155     17153     17156     17158
     17155     17153     17156     17159     17156     17159     17162     17163
     17156     17159     17162     17164     17156     17159     17162     17165
     17157     17156     17159     17160     17157     17156     17159     17161
     17157     17156     17159     17162     17158     17156     17159     17160
     17158     17156     17159     17161     17158     17156     17159     17162
     17159     17162     17165     17166     17159     17162     17165     17167
     17159     17162     17165     17168     17160     17159     17162     17163
     17160     17159     17162     17164     17160     17159     17162     17165
     17161     17159     17162     17163     17161     17159     17162     17164
     17161     17159     17162     17165     17163     17162     17165     17166
     17163     17162     17165     17167     17163     17162     17165     17168
     17164     17162     17165     17166     17164     17162     17165     17167
     17164     17162     17165     17168     17169     17170     17185     17186
     17169     17170     17185     17187     17169     17170     17185     17191
     17170     17169     17173     17174     17170     17169     17173     17175
     17170     17169     17173     17176     17170     17169     17177     17178
     17170     17169     17177     17179     17170     17169     17177     17180
     17170     17169     17181     17182     17170     17169     17181     17183
     17170     17169     17181     17184     17170     17185     17191     17188
     17171     17170     17169     17173     17171     17170     17169     17177
     17171     17170     17169     17181     17171     17170     17185     17186
     17171     17170     17185     17187     17171     17170     17185     17191
     17172     17170     17169     17173     17172     17170     17169     17177
     17172     17170     17169     17181     17172     17170     17185     17186
     17172     17170     17185     17187     17172     17170     17185     17191
     17173     17169     17170     17185     17173     17169     17177     17178
     17173     17169     17177     17179     17173     17169     17177     17180
     17173     17169     17181     17182     17173     17169     17181     17183
     17173     17169     17181     17184     17174     17173     17169     17177
     17174     17173     17169     17181     17175     17173     17169     17177
     17175     17173     17169     17181     17176     17173     17169     17177
     17176     17173     17169     17181     17177     17169     17170     17185
     17177     17169     17181     17182     17177     17169     17181     17183
     17177     17169     17181     17184     17178     17177     17169     17181
     17179     17177     17169     17181     17180     17177     17169     17181
     17181     17169     17170     17185     17185     17191     17188     17189
     17185     17191     17188     17190     17185     17191     17188     17192
     17186     17185     17191     17188     17187     17185     17191     17188
     17188     17192     17193     17194     17188     17192     17193     17195
     17188     17192     17193     17196     17189     17188     17192     17193
     17190     17188     17192     17193     17191     17188     17192     17193
     17192     17193     17196     17197     17192     17193     17196     17198
     17192     17193     17196     17204     17193     17196     17198     17199
     17193     17196     17204     17205     17193     17196     17204     17206
     17193     17196     17204     17207     17194     17193     17196     17197
     17194     17193     17196     17198     17194     17193     17196     17204
     17195     17193     17196     17197     17195     17193     17196     17198
     17195     17193     17196     17204     17196     17198     17199     17200
     17196     17198     17199     17201     17196     17204     17207     17208
     17197     17196     17198     17199     17197     17196     17204     17205
     17197     17196     17204     17206     17197     17196     17204     17207
     17198     17196     17204     17205     17198     17196     17204     17206
     17198     17196     17204     17207     17198     17199     17201     17202
     17198     17199     17201     17203     17198     17199     17201     17213
     17199     17198     17196     17204     17199     17201     17213     17214
     17199     17201     17213     17215     17199     17201     17213     17216
     17200     17199     17201     17202     17200     17199     17201     17203
     17200     17199     17201     17213     17201     17213     17216     17217
     17201     17213     17216     17218     17201     17213     17216     17219
     17202     17201     17213     17214     17202     17201     17213     17215
     17202     17201     17213     17216     17203     17201     17213     17214
     17203     17201     17213     17215     17203     17201     17213     17216
     17204     17207     17208     17209     17204     17207     17208     17210
     17205     17204     17207     17208     17206     17204     17207     17208
     17207     17208     17210     17211     17207     17208     17210     17212
     17207     17208     17210     17260     17208     17210     17260     17261
     17208     17210     17260     17262     17208     17210     17260     17263
     17209     17208     17210     17211     17209     17208     17210     17212
     17209     17208     17210     17260     17210     17260     17263     17264
     17210     17260     17263     17265     17210     17260     17263     17266
     17211     17210     17260     17261     17211     17210     17260     17262
     17211     17210     17260     17263     17212     17210     17260     17261
     17212     17210     17260     17262     17212     17210     17260     17263
     17213     17216     17219     17220     17213     17216     17219     17221
     17213     17216     17219     17222     17214     17213     17216     17217
     17214     17213     17216     17218     17214     17213     17216     17219
     17215     17213     17216     17217     17215     17213     17216     17218
     17215     17213     17216     17219     17216     17219     17222     17223
     17216     17219     17222     17224     17216     17219     17222     17225
     17217     17216     17219     17220     17217     17216     17219     17221
     17217     17216     17219     17222     17218     17216     17219     17220
     17218     17216     17219     17221     17218     17216     17219     17222
     17219     17222     17225     17226     17219     17222     17225     17227
     17219     17222     17225     17228     17220     17219     17222     17223
     17220     17219     17222     17224     17220     17219     17222     17225
     17221     17219     17222     17223     17221     17219     17222     17224
     17221     17219     17222     17225     17222     17225     17228     17229
     17222     17225     17228     17230     17222     17225     17228     17231
     17223     17222     17225     17226     17223     17222     17225     17227
     17223     17222     17225     17228     17224     17222     17225     17226
     17224     17222     17225     17227     17224     17222     17225     17228
     17225     17228     17231     17232     17225     17228     17231     17233
     17226     17225     17228     17229     17226     17225     17228     17230
     17226     17225     17228     17231     17227     17225     17228     17229
     17227     17225     17228     17230     17227     17225     17228     17231
     17228     17231     17233     17234     17228     17231     17233     17235
     17229     17228     17231     17232     17229     17228     17231     17233
     17230     17228     17231     17232     17230     17228     17231     17233
     17231     17233     17235     17236     17231     17233     17235     17237
     17231     17233     17235     17238     17232     17231     17233     17234
     17232     17231     17233     17235     17233     17235     17238     17239
     17233     17235     17238     17240     17233     17235     17238     17241
     17234     17233     17235     17236     17234     17233     17235     17237
     17234     17233     17235     17238     17235     17238     17241     17242
     17235     17238     17241     17243     17235     17238     17241     17244
     17236     17235     17238     17239     17236     17235     17238     17240
     17236     17235     17238     17241     17237     17235     17238     17239
     17237     17235     17238     17240     17237     17235     17238     17241
     17238     17241     17244     17245     17238     17241     17244     17246
     17238     17241     17244     17247     17239     17238     17241     17242
     17239     17238     17241     17243     17239     17238     17241     17244
     17240     17238     17241     17242     17240     17238     17241     17243
     17240     17238     17241     17244     17241     17244     17247     17248
     17241     17244     17247     17249     17241     17244     17247     17250
     17242     17241     17244     17245     17242     17241     17244     17246
     17242     17241     17244     17247     17243     17241     17244     17245
     17243     17241     17244     17246     17243     17241     17244     17247
     17244     17247     17250     17251     17244     17247     17250     17252
     17244     17247     17250     17253     17245     17244     17247     17248
     17245     17244     17247     17249     17245     17244     17247     17250
     17246     17244     17247     17248     17246     17244     17247     17249
     17246     17244     17247     17250     17247     17250     17253     17254
     17247     17250     17253     17255     17247     17250     17253     17256
     17248     17247     17250     17251     17248     17247     17250     17252
     17248     17247     17250     17253     17249     17247     17250     17251
     17249     17247     17250     17252     17249     17247     17250     17253
     17250     17253     17256     17257     17250     17253     17256     17258
     17250     17253     17256     17259     17251     17250     17253     17254
     17251     17250     17253     17255     17251     17250     17253     17256
     17252     17250     17253     17254     17252     17250     17253     17255
     17252     17250     17253     17256     17254     17253     17256     17257
     17254     17253     17256     17258     17254     17253     17256     17259
     17255     17253     17256     17257     17255     17253     17256     17258
     17255     17253     17256     17259     17260     17263     17266     17267
     17260     17263     17266     17268     17260     17263     17266     17269
     17261     17260     17263     17264     17261     17260     17263     17265
     17261     17260     17263     17266     17262     17260     17263     17264
     17262     17260     17263     17265     17262     17260     17263     17266
     17263     17266     17269     17270     17263     17266     17269     17271
     17263     17266     17269     17272     17264     17263     17266     17267
     17264     17263     17266     17268     17264     17263     17266     17269
     17265     17263     17266     17267     17265     17263     17266     17268
     17265     17263     17266     17269     17266     17269     17272     17273
     17266     17269     17272     17274     17266     17269     17272     17275
     17267     17266     17269     17270     17267     17266     17269     17271
     17267     17266     17269     17272     17268     17266     17269     17270
     17268     17266     17269     17271     17268     17266     17269     17272
     17269     17272     17275     17276     17269     17272     17275     17277
     17269     17272     17275     17278     17270     17269     17272     17273
     17270     17269     17272     17274     17270     17269     17272     17275
     17271     17269     17272     17273     17271     17269     17272     17274
     17271     17269     17272     17275     17272     17275     17278     17279
     17272     17275     17278     17280     17272     17275     17278     17281
     17273     17272     17275     17276     17273     17272     17275     17277
     17273     17272     17275     17278     17274     17272     17275     17276
     17274     17272     17275     17277     17274     17272     17275     17278
     17275     17278     17281     17282     17275     17278     17281     17283
     17275     17278     17281     17284     17276     17275     17278     17279
     17276     17275     17278     17280     17276     17275     17278     17281
     17277     17275     17278     17279     17277     17275     17278     17280
     17277     17275     17278     17281     17278     17281     17284     17285
     17278     17281     17284     17286     17278     17281     17284     17287
     17279     17278     17281     17282     17279     17278     17281     17283
     17279     17278     17281     17284     17280     17278     17281     17282
     17280     17278     17281     17283     17280     17278     17281     17284
     17281     17284     17287     17288     17281     17284     17287     17289
     17281     17284     17287     17290     17282     17281     17284     17285
     17282     17281     17284     17286     17282     17281     17284     17287
     17283     17281     17284     17285     17283     17281     17284     17286
     17283     17281     17284     17287     17284     17287     17290     17291
     17284     17287     17290     17292     17284     17287     17290     17293
     17285     17284     17287     17288     17285     17284     17287     17289
     17285     17284     17287     17290     17286     17284     17287     17288
     17286     17284     17287     17289     17286     17284     17287     17290
     17287     17290     17293     17294     17287     17290     17293     17295
     17287     17290     17293     17296     17288     17287     17290     17291
     17288     17287     17290     17292     17288     17287     17290     17293
     17289     17287     17290     17291     17289     17287     17290     17292
     17289     17287     17290     17293     17290     17293     17296     17297
     17290     17293     17296     17298     17290     17293     17296     17299
     17291     17290     17293     17294     17291     17290     17293     17295
     17291     17290     17293     17296     17292     17290     17293     17294
     17292     17290     17293     17295     17292     17290     17293     17296
     17293     17296     17299     17300     17293     17296     17299     17301
     17293     17296     17299     17302     17294     17293     17296     17297
     17294     17293     17296     17298     17294     17293     17296     17299
     17295     17293     17296     17297     17295     17293     17296     17298
     17295     17293     17296     17299     17297     17296     17299     17300
     17297     17296     17299     17301     17297     17296     17299     17302
     17298     17296     17299     17300     17298     17296     17299     17301
     17298     17296     17299     17302     17303     17304     17319     17320
     17303     17304     17319     17321     17303     17304     17319     17325
     17304     17303     17307     17308     17304     17303     17307     17309
     17304     17303     17307     17310     17304     17303     17311     17312
     17304     17303     17311     17313     17304     17303     17311     17314
     17304     17303     17315     17316     17304     17303     17315     17317
     17304     17303     17315     17318     17304     17319     17325     17322
     17305     17304     17303     17307     17305     17304     17303     17311
     17305     17304     17303     17315     17305     17304     17319     17320
     17305     17304     17319     17321     17305     17304     17319     17325
     17306     17304     17303     17307     17306     17304     17303     17311
     17306     17304     17303     17315     17306     17304     17319     17320
     17306     17304     17319     17321     17306     17304     17319     17325
     17307     17303     17304     17319     17307     17303     17311     17312
     17307     17303     17311     17313     17307     17303     17311     17314
     17307     17303     17315     17316     17307     17303     17315     17317
     17307     17303     17315     17318     17308     17307     17303     17311
     17308     17307     17303     17315     17309     17307     17303     17311
     17309     17307     17303     17315     17310     17307     17303     17311
     17310     17307     17303     17315     17311     17303     17304     17319
     17311     17303     17315     17316     17311     17303     17315     17317
     17311     17303     17315     17318     17312     17311     17303     17315
     17313     17311     17303     17315     17314     17311     17303     17315
     17315     17303     17304     17319     17319     17325     17322     17323
     17319     17325     17322     17324     17319     17325     17322     17326
     17320     17319     17325     17322     17321     17319     17325     17322
     17322     17326     17327     17328     17322     17326     17327     17329
     17322     17326     17327     17330     17323     17322     17326     17327
     17324     17322     17326     17327     17325     17322     17326     17327
     17326     17327     17330     17331     17326     17327     17330     17332
     17326     17327     17330     17338     17327     17330     17332     17333
     17327     17330     17338     17339     17327     17330     17338     17340
     17327     17330     17338     17341     17328     17327     17330     17331
     17328     17327     17330     17332     17328     17327     17330     17338
     17329     17327     17330     17331     17329     17327     17330     17332
     17329     17327     17330     17338     17330     17332     17333     17334
     17330     17332     17333     17335     17330     17338     17341     17342
     17331     17330     17332     17333     17331     17330     17338     17339
     17331     17330     17338     17340     17331     17330     17338     17341
     17332     17330     17338     17339     17332     17330     17338     17340
     17332     17330     17338     17341     17332     17333     17335     17336
     17332     17333     17335     17337     17332     17333     17335     17347
     17333     17332     17330     17338     17333     17335     17347     17348
     17333     17335     17347     17349     17333     17335     17347     17350
     17334     17333     17335     17336     17334     17333     17335     17337
     17334     17333     17335     17347     17335     17347     17350     17351
     17335     17347     17350     17352     17335     17347     17350     17353
     17336     17335     17347     17348     17336     17335     17347     17349
     17336     17335     17347     17350     17337     17335     17347     17348
     17337     17335     17347     17349     17337     17335     17347     17350
     17338     17341     17342     17343     17338     17341     17342     17344
     17339     17338     17341     17342     17340     17338     17341     17342
     17341     17342     17344     17345     17341     17342     17344     17346
     17341     17342     17344     17394     17342     17344     17394     17395
     17342     17344     17394     17396     17342     17344     17394     17397
     17343     17342     17344     17345     17343     17342     17344     17346
     17343     17342     17344     17394     17344     17394     17397     17398
     17344     17394     17397     17399     17344     17394     17397     17400
     17345     17344     17394     17395     17345     17344     17394     17396
     17345     17344     17394     17397     17346     17344     17394     17395
     17346     17344     17394     17396     17346     17344     17394     17397
     17347     17350     17353     17354     17347     17350     17353     17355
     17347     17350     17353     17356     17348     17347     17350     17351
     17348     17347     17350     17352     17348     17347     17350     17353
     17349     17347     17350     17351     17349     17347     17350     17352
     17349     17347     17350     17353     17350     17353     17356     17357
     17350     17353     17356     17358     17350     17353     17356     17359
     17351     17350     17353     17354     17351     17350     17353     17355
     17351     17350     17353     17356     17352     17350     17353     17354
     17352     17350     17353     17355     17352     17350     17353     17356
     17353     17356     17359     17360     17353     17356     17359     17361
     17353     17356     17359     17362     17354     17353     17356     17357
     17354     17353     17356     17358     17354     17353     17356     17359
     17355     17353     17356     17357     17355     17353     17356     17358
     17355     17353     17356     17359     17356     17359     17362     17363
     17356     17359     17362     17364     17356     17359     17362     17365
     17357     17356     17359     17360     17357     17356     17359     17361
     17357     17356     17359     17362     17358     17356     17359     17360
     17358     17356     17359     17361     17358     17356     17359     17362
     17359     17362     17365     17366     17359     17362     17365     17367
     17360     17359     17362     17363     17360     17359     17362     17364
     17360     17359     17362     17365     17361     17359     17362     17363
     17361     17359     17362     17364     17361     17359     17362     17365
     17362     17365     17367     17368     17362     17365     17367     17369
     17363     17362     17365     17366     17363     17362     17365     17367
     17364     17362     17365     17366     17364     17362     17365     17367
     17365     17367     17369     17370     17365     17367     17369     17371
     17365     17367     17369     17372     17366     17365     17367     17368
     17366     17365     17367     17369     17367     17369     17372     17373
     17367     17369     17372     17374     17367     17369     17372     17375
     17368     17367     17369     17370     17368     17367     17369     17371
     17368     17367     17369     17372     17369     17372     17375     17376
     17369     17372     17375     17377     17369     17372     17375     17378
     17370     17369     17372     17373     17370     17369     17372     17374
     17370     17369     17372     17375     17371     17369     17372     17373
     17371     17369     17372     17374     17371     17369     17372     17375
     17372     17375     17378     17379     17372     17375     17378     17380
     17372     17375     17378     17381     17373     17372     17375     17376
     17373     17372     17375     17377     17373     17372     17375     17378
     17374     17372     17375     17376     17374     17372     17375     17377
     17374     17372     17375     17378     17375     17378     17381     17382
     17375     17378     17381     17383     17375     17378     17381     17384
     17376     17375     17378     17379     17376     17375     17378     17380
     17376     17375     17378     17381     17377     17375     17378     17379
     17377     17375     17378     17380     17377     17375     17378     17381
     17378     17381     17384     17385     17378     17381     17384     17386
     17378     17381     17384     17387     17379     17378     17381     17382
     17379     17378     17381     17383     17379     17378     17381     17384
     17380     17378     17381     17382     17380     17378     17381     17383
     17380     17378     17381     17384     17381     17384     17387     17388
     17381     17384     17387     17389     17381     17384     17387     17390
     17382     17381     17384     17385     17382     17381     17384     17386
     17382     17381     17384     17387     17383     17381     17384     17385
     17383     17381     17384     17386     17383     17381     17384     17387
     17384     17387     17390     17391     17384     17387     17390     17392
     17384     17387     17390     17393     17385     17384     17387     17388
     17385     17384     17387     17389     17385     17384     17387     17390
     17386     17384     17387     17388     17386     17384     17387     17389
     17386     17384     17387     17390     17388     17387     17390     17391
     17388     17387     17390     17392     17388     17387     17390     17393
     17389     17387     17390     17391     17389     17387     17390     17392
     17389     17387     17390     17393     17394     17397     17400     17401
     17394     17397     17400     17402     17394     17397     17400     17403
     17395     17394     17397     17398     17395     17394     17397     17399
     17395     17394     17397     17400     17396     17394     17397     17398
     17396     17394     17397     17399     17396     17394     17397     17400
     17397     17400     17403     17404     17397     17400     17403     17405
     17397     17400     17403     17406     17398     17397     17400     17401
     17398     17397     17400     17402     17398     17397     17400     17403
     17399     17397     17400     17401     17399     17397     17400     17402
     17399     17397     17400     17403     17400     17403     17406     17407
     17400     17403     17406     17408     17400     17403     17406     17409
     17401     17400     17403     17404     17401     17400     17403     17405
     17401     17400     17403     17406     17402     17400     17403     17404
     17402     17400     17403     17405     17402     17400     17403     17406
     17403     17406     17409     17410     17403     17406     17409     17411
     17403     17406     17409     17412     17404     17403     17406     17407
     17404     17403     17406     17408     17404     17403     17406     17409
     17405     17403     17406     17407     17405     17403     17406     17408
     17405     17403     17406     17409     17406     17409     17412     17413
     17406     17409     17412     17414     17406     17409     17412     17415
     17407     17406     17409     17410     17407     17406     17409     17411
     17407     17406     17409     17412     17408     17406     17409     17410
     17408     17406     17409     17411     17408     17406     17409     17412
     17409     17412     17415     17416     17409     17412     17415     17417
     17409     17412     17415     17418     17410     17409     17412     17413
     17410     17409     17412     17414     17410     17409     17412     17415
     17411     17409     17412     17413     17411     17409     17412     17414
     17411     17409     17412     17415     17412     17415     17418     17419
     17412     17415     17418     17420     17412     17415     17418     17421
     17413     17412     17415     17416     17413     17412     17415     17417
     17413     17412     17415     17418     17414     17412     17415     17416
     17414     17412     17415     17417     17414     17412     17415     17418
     17415     17418     17421     17422     17415     17418     17421     17423
     17415     17418     17421     17424     17416     17415     17418     17419
     17416     17415     17418     17420     17416     17415     17418     17421
     17417     17415     17418     17419     17417     17415     17418     17420
     17417     17415     17418     17421     17418     17421     17424     17425
     17418     17421     17424     17426     17418     17421     17424     17427
     17419     17418     17421     17422     17419     17418     17421     17423
     17419     17418     17421     17424     17420     17418     17421     17422
     17420     17418     17421     17423     17420     17418     17421     17424
     17421     17424     17427     17428     17421     17424     17427     17429
     17421     17424     17427     17430     17422     17421     17424     17425
     17422     17421     17424     17426     17422     17421     17424     17427
     17423     17421     17424     17425     17423     17421     17424     17426
     17423     17421     17424     17427     17424     17427     17430     17431
     17424     17427     17430     17432     17424     17427     17430     17433
     17425     17424     17427     17428     17425     17424     17427     17429
     17425     17424     17427     17430     17426     17424     17427     17428
     17426     17424     17427     17429     17426     17424     17427     17430
     17427     17430     17433     17434     17427     17430     17433     17435
     17427     17430     17433     17436     17428     17427     17430     17431
     17428     17427     17430     17432     17428     17427     17430     17433
     17429     17427     17430     17431     17429     17427     17430     17432
     17429     17427     17430     17433     17431     17430     17433     17434
     17431     17430     17433     17435     17431     17430     17433     17436
     17432     17430     17433     17434     17432     17430     17433     17435
     17432     17430     17433     17436     17437     17438     17453     17454
     17437     17438     17453     17455     17437     17438     17453     17459
     17438     17437     17441     17442     17438     17437     17441     17443
     17438     17437     17441     17444     17438     17437     17445     17446
     17438     17437     17445     17447     17438     17437     17445     17448
     17438     17437     17449     17450     17438     17437     17449     17451
     17438     17437     17449     17452     17438     17453     17459     17456
     17439     17438     17437     17441     17439     17438     17437     17445
     17439     17438     17437     17449     17439     17438     17453     17454
     17439     17438     17453     17455     17439     17438     17453     17459
     17440     17438     17437     17441     17440     17438     17437     17445
     17440     17438     17437     17449     17440     17438     17453     17454
     17440     17438     17453     17455     17440     17438     17453     17459
     17441     17437     17438     17453     17441     17437     17445     17446
     17441     17437     17445     17447     17441     17437     17445     17448
     17441     17437     17449     17450     17441     17437     17449     17451
     17441     17437     17449     17452     17442     17441     17437     17445
     17442     17441     17437     17449     17443     17441     17437     17445
     17443     17441     17437     17449     17444     17441     17437     17445
     17444     17441     17437     17449     17445     17437     17438     17453
     17445     17437     17449     17450     17445     17437     17449     17451
     17445     17437     17449     17452     17446     17445     17437     17449
     17447     17445     17437     17449     17448     17445     17437     17449
     17449     17437     17438     17453     17453     17459     17456     17457
     17453     17459     17456     17458     17453     17459     17456     17460
     17454     17453     17459     17456     17455     17453     17459     17456
     17456     17460     17461     17462     17456     17460     17461     17463
     17456     17460     17461     17464     17457     17456     17460     17461
     17458     17456     17460     17461     17459     17456     17460     17461
     17460     17461     17464     17465     17460     17461     17464     17466
     17460     17461     17464     17472     17461     17464     17466     17467
     17461     17464     17472     17473     17461     17464     17472     17474
     17461     17464     17472     17475     17462     17461     17464     17465
     17462     17461     17464     17466     17462     17461     17464     17472
     17463     17461     17464     17465     17463     17461     17464     17466
     17463     17461     17464     17472     17464     17466     17467     17468
     17464     17466     17467     17469     17464     17472     17475     17476
     17465     17464     17466     17467     17465     17464     17472     17473
     17465     17464     17472     17474     17465     17464     17472     17475
     17466     17464     17472     17473     17466     17464     17472     17474
     17466     17464     17472     17475     17466     17467     17469     17470
     17466     17467     17469     17471     17466     17467     17469     17481
     17467     17466     17464     17472     17467     17469     17481     17482
     17467     17469     17481     17483     17467     17469     17481     17484
     17468     17467     17469     17470     17468     17467     17469     17471
     17468     17467     17469     17481     17469     17481     17484     17485
     17469     17481     17484     17486     17469     17481     17484     17487
     17470     17469     17481     17482     17470     17469     17481     17483
     17470     17469     17481     17484     17471     17469     17481     17482
     17471     17469     17481     17483     17471     17469     17481     17484
     17472     17475     17476     17477     17472     17475     17476     17478
     17473     17472     17475     17476     17474     17472     17475     17476
     17475     17476     17478     17479     17475     17476     17478     17480
     17475     17476     17478     17528     17476     17478     17528     17529
     17476     17478     17528     17530     17476     17478     17528     17531
     17477     17476     17478     17479     17477     17476     17478     17480
     17477     17476     17478     17528     17478     17528     17531     17532
     17478     17528     17531     17533     17478     17528     17531     17534
     17479     17478     17528     17529     17479     17478     17528     17530
     17479     17478     17528     17531     17480     17478     17528     17529
     17480     17478     17528     17530     17480     17478     17528     17531
     17481     17484     17487     17488     17481     17484     17487     17489
     17481     17484     17487     17490     17482     17481     17484     17485
     17482     17481     17484     17486     17482     17481     17484     17487
     17483     17481     17484     17485     17483     17481     17484     17486
     17483     17481     17484     17487     17484     17487     17490     17491
     17484     17487     17490     17492     17484     17487     17490     17493
     17485     17484     17487     17488     17485     17484     17487     17489
     17485     17484     17487     17490     17486     17484     17487     17488
     17486     17484     17487     17489     17486     17484     17487     17490
     17487     17490     17493     17494     17487     17490     17493     17495
     17487     17490     17493     17496     17488     17487     17490     17491
     17488     17487     17490     17492     17488     17487     17490     17493
     17489     17487     17490     17491     17489     17487     17490     17492
     17489     17487     17490     17493     17490     17493     17496     17497
     17490     17493     17496     17498     17490     17493     17496     17499
     17491     17490     17493     17494     17491     17490     17493     17495
     17491     17490     17493     17496     17492     17490     17493     17494
     17492     17490     17493     17495     17492     17490     17493     17496
     17493     17496     17499     17500     17493     17496     17499     17501
     17494     17493     17496     17497     17494     17493     17496     17498
     17494     17493     17496     17499     17495     17493     17496     17497
     17495     17493     17496     17498     17495     17493     17496     17499
     17496     17499     17501     17502     17496     17499     17501     17503
     17497     17496     17499     17500     17497     17496     17499     17501
     17498     17496     17499     17500     17498     17496     17499     17501
     17499     17501     17503     17504     17499     17501     17503     17505
     17499     17501     17503     17506     17500     17499     17501     17502
     17500     17499     17501     17503     17501     17503     17506     17507
     17501     17503     17506     17508     17501     17503     17506     17509
     17502     17501     17503     17504     17502     17501     17503     17505
     17502     17501     17503     17506     17503     17506     17509     17510
     17503     17506     17509     17511     17503     17506     17509     17512
     17504     17503     17506     17507     17504     17503     17506     17508
     17504     17503     17506     17509     17505     17503     17506     17507
     17505     17503     17506     17508     17505     17503     17506     17509
     17506     17509     17512     17513     17506     17509     17512     17514
     17506     17509     17512     17515     17507     17506     17509     17510
     17507     17506     17509     17511     17507     17506     17509     17512
     17508     17506     17509     17510     17508     17506     17509     17511
     17508     17506     17509     17512     17509     17512     17515     17516
     17509     17512     17515     17517     17509     17512     17515     17518
     17510     17509     17512     17513     17510     17509     17512     17514
     17510     17509     17512     17515     17511     17509     17512     17513
     17511     17509     17512     17514     17511     17509     17512     17515
     17512     17515     17518     17519     17512     17515     17518     17520
     17512     17515     17518     17521     17513     17512     17515     17516
     17513     17512     17515     17517     17513     17512     17515     17518
     17514     17512     17515     17516     17514     17512     17515     17517
     17514     17512     17515     17518     17515     17518     17521     17522
     17515     17518     17521     17523     17515     17518     17521     17524
     17516     17515     17518     17519     17516     17515     17518     17520
     17516     17515     17518     17521     17517     17515     17518     17519
     17517     17515     17518     17520     17517     17515     17518     17521
     17518     17521     17524     17525     17518     17521     17524     17526
     17518     17521     17524     17527     17519     17518     17521     17522
     17519     17518     17521     17523     17519     17518     17521     17524
     17520     17518     17521     17522     17520     17518     17521     17523
     17520     17518     17521     17524     17522     17521     17524     17525
     17522     17521     17524     17526     17522     17521     17524     17527
     17523     17521     17524     17525     17523     17521     17524     17526
     17523     17521     17524     17527     17528     17531     17534     17535
     17528     17531     17534     17536     17528     17531     17534     17537
     17529     17528     17531     17532     17529     17528     17531     17533
     17529     17528     17531     17534     17530     17528     17531     17532
     17530     17528     17531     17533     17530     17528     17531     17534
     17531     17534     17537     17538     17531     17534     17537     17539
     17531     17534     17537     17540     17532     17531     17534     17535
     17532     17531     17534     17536     17532     17531     17534     17537
     17533     17531     17534     17535     17533     17531     17534     17536
     17533     17531     17534     17537     17534     17537     17540     17541
     17534     17537     17540     17542     17534     17537     17540     17543
     17535     17534     17537     17538     17535     17534     17537     17539
     17535     17534     17537     17540     17536     17534     17537     17538
     17536     17534     17537     17539     17536     17534     17537     17540
     17537     17540     17543     17544     17537     17540     17543     17545
     17537     17540     17543     17546     17538     17537     17540     17541
     17538     17537     17540     17542     17538     17537     17540     17543
     17539     17537     17540     17541     17539     17537     17540     17542
     17539     17537     17540     17543     17540     17543     17546     17547
     17540     17543     17546     17548     17540     17543     17546     17549
     17541     17540     17543     17544     17541     17540     17543     17545
     17541     17540     17543     17546     17542     17540     17543     17544
     17542     17540     17543     17545     17542     17540     17543     17546
     17543     17546     17549     17550     17543     17546     17549     17551
     17543     17546     17549     17552     17544     17543     17546     17547
     17544     17543     17546     17548     17544     17543     17546     17549
     17545     17543     17546     17547     17545     17543     17546     17548
     17545     17543     17546     17549     17546     17549     17552     17553
     17546     17549     17552     17554     17546     17549     17552     17555
     17547     17546     17549     17550     17547     17546     17549     17551
     17547     17546     17549     17552     17548     17546     17549     17550
     17548     17546     17549     17551     17548     17546     17549     17552
     17549     17552     17555     17556     17549     17552     17555     17557
     17549     17552     17555     17558     17550     17549     17552     17553
     17550     17549     17552     17554     17550     17549     17552     17555
     17551     17549     17552     17553     17551     17549     17552     17554
     17551     17549     17552     17555     17552     17555     17558     17559
     17552     17555     17558     17560     17552     17555     17558     17561
     17553     17552     17555     17556     17553     17552     17555     17557
     17553     17552     17555     17558     17554     17552     17555     17556
     17554     17552     17555     17557     17554     17552     17555     17558
     17555     17558     17561     17562     17555     17558     17561     17563
     17555     17558     17561     17564     17556     17555     17558     17559
     17556     17555     17558     17560     17556     17555     17558     17561
     17557     17555     17558     17559     17557     17555     17558     17560
     17557     17555     17558     17561     17558     17561     17564     17565
     17558     17561     17564     17566     17558     17561     17564     17567
     17559     17558     17561     17562     17559     17558     17561     17563
     17559     17558     17561     17564     17560     17558     17561     17562
     17560     17558     17561     17563     17560     17558     17561     17564
     17561     17564     17567     17568     17561     17564     17567     17569
     17561     17564     17567     17570     17562     17561     17564     17565
     17562     17561     17564     17566     17562     17561     17564     17567
     17563     17561     17564     17565     17563     17561     17564     17566
     17563     17561     17564     17567     17565     17564     17567     17568
     17565     17564     17567     17569     17565     17564     17567     17570
     17566     17564     17567     17568     17566     17564     17567     17569
     17566     17564     17567     17570     17571     17572     17587     17588
     17571     17572     17587     17589     17571     17572     17587     17593
     17572     17571     17575     17576     17572     17571     17575     17577
     17572     17571     17575     17578     17572     17571     17579     17580
     17572     17571     17579     17581     17572     17571     17579     17582
     17572     17571     17583     17584     17572     17571     17583     17585
     17572     17571     17583     17586     17572     17587     17593     17590
     17573     17572     17571     17575     17573     17572     17571     17579
     17573     17572     17571     17583     17573     17572     17587     17588
     17573     17572     17587     17589     17573     17572     17587     17593
     17574     17572     17571     17575     17574     17572     17571     17579
     17574     17572     17571     17583     17574     17572     17587     17588
     17574     17572     17587     17589     17574     17572     17587     17593
     17575     17571     17572     17587     17575     17571     17579     17580
     17575     17571     17579     17581     17575     17571     17579     17582
     17575     17571     17583     17584     17575     17571     17583     17585
     17575     17571     17583     17586     17576     17575     17571     17579
     17576     17575     17571     17583     17577     17575     17571     17579
     17577     17575     17571     17583     17578     17575     17571     17579
     17578     17575     17571     17583     17579     17571     17572     17587
     17579     17571     17583     17584     17579     17571     17583     17585
     17579     17571     17583     17586     17580     17579     17571     17583
     17581     17579     17571     17583     17582     17579     17571     17583
     17583     17571     17572     17587     17587     17593     17590     17591
     17587     17593     17590     17592     17587     17593     17590     17594
     17588     17587     17593     17590     17589     17587     17593     17590
     17590     17594     17595     17596     17590     17594     17595     17597
     17590     17594     17595     17598     17591     17590     17594     17595
     17592     17590     17594     17595     17593     17590     17594     17595
     17594     17595     17598     17599     17594     17595     17598     17600
     17594     17595     17598     17606     17595     17598     17600     17601
     17595     17598     17606     17607     17595     17598     17606     17608
     17595     17598     17606     17609     17596     17595     17598     17599
     17596     17595     17598     17600     17596     17595     17598     17606
     17597     17595     17598     17599     17597     17595     17598     17600
     17597     17595     17598     17606     17598     17600     17601     17602
     17598     17600     17601     17603     17598     17606     17609     17610
     17599     17598     17600     17601     17599     17598     17606     17607
     17599     17598     17606     17608     17599     17598     17606     17609
     17600     17598     17606     17607     17600     17598     17606     17608
     17600     17598     17606     17609     17600     17601     17603     17604
     17600     17601     17603     17605     17600     17601     17603     17615
     17601     17600     17598     17606     17601     17603     17615     17616
     17601     17603     17615     17617     17601     17603     17615     17618
     17602     17601     17603     17604     17602     17601     17603     17605
     17602     17601     17603     17615     17603     17615     17618     17619
     17603     17615     17618     17620     17603     17615     17618     17621
     17604     17603     17615     17616     17604     17603     17615     17617
     17604     17603     17615     17618     17605     17603     17615     17616
     17605     17603     17615     17617     17605     17603     17615     17618
     17606     17609     17610     17611     17606     17609     17610     17612
     17607     17606     17609     17610     17608     17606     17609     17610
     17609     17610     17612     17613     17609     17610     17612     17614
     17609     17610     17612     17662     17610     17612     17662     17663
     17610     17612     17662     17664     17610     17612     17662     17665
     17611     17610     17612     17613     17611     17610     17612     17614
     17611     17610     17612     17662     17612     17662     17665     17666
     17612     17662     17665     17667     17612     17662     17665     17668
     17613     17612     17662     17663     17613     17612     17662     17664
     17613     17612     17662     17665     17614     17612     17662     17663
     17614     17612     17662     17664     17614     17612     17662     17665
     17615     17618     17621     17622     17615     17618     17621     17623
     17615     17618     17621     17624     17616     17615     17618     17619
     17616     17615     17618     17620     17616     17615     17618     17621
     17617     17615     17618     17619     17617     17615     17618     17620
     17617     17615     17618     17621     17618     17621     17624     17625
     17618     17621     17624     17626     17618     17621     17624     17627
     17619     17618     17621     17622     17619     17618     17621     17623
     17619     17618     17621     17624     17620     17618     17621     17622
     17620     17618     17621     17623     17620     17618     17621     17624
     17621     17624     17627     17628     17621     17624     17627     17629
     17621     17624     17627     17630     17622     17621     17624     17625
     17622     17621     17624     17626     17622     17621     17624     17627
     17623     17621     17624     17625     17623     17621     17624     17626
     17623     17621     17624     17627     17624     17627     17630     17631
     17624     17627     17630     17632     17624     17627     17630     17633
     17625     17624     17627     17628     17625     17624     17627     17629
     17625     17624     17627     17630     17626     17624     17627     17628
     17626     17624     17627     17629     17626     17624     17627     17630
     17627     17630     17633     17634     17627     17630     17633     17635
     17628     17627     17630     17631     17628     17627     17630     17632
     17628     17627     17630     17633     17629     17627     17630     17631
     17629     17627     17630     17632     17629     17627     17630     17633
     17630     17633     17635     17636     17630     17633     17635     17637
     17631     17630     17633     17634     17631     17630     17633     17635
     17632     17630     17633     17634     17632     17630     17633     17635
     17633     17635     17637     17638     17633     17635     17637     17639
     17633     17635     17637     17640     17634     17633     17635     17636
     17634     17633     17635     17637     17635     17637     17640     17641
     17635     17637     17640     17642     17635     17637     17640     17643
     17636     17635     17637     17638     17636     17635     17637     17639
     17636     17635     17637     17640     17637     17640     17643     17644
     17637     17640     17643     17645     17637     17640     17643     17646
     17638     17637     17640     17641     17638     17637     17640     17642
     17638     17637     17640     17643     17639     17637     17640     17641
     17639     17637     17640     17642     17639     17637     17640     17643
     17640     17643     17646     17647     17640     17643     17646     17648
     17640     17643     17646     17649     17641     17640     17643     17644
     17641     17640     17643     17645     17641     17640     17643     17646
     17642     17640     17643     17644     17642     17640     17643     17645
     17642     17640     17643     17646     17643     17646     17649     17650
     17643     17646     17649     17651     17643     17646     17649     17652
     17644     17643     17646     17647     17644     17643     17646     17648
     17644     17643     17646     17649     17645     17643     17646     17647
     17645     17643     17646     17648     17645     17643     17646     17649
     17646     17649     17652     17653     17646     17649     17652     17654
     17646     17649     17652     17655     17647     17646     17649     17650
     17647     17646     17649     17651     17647     17646     17649     17652
     17648     17646     17649     17650     17648     17646     17649     17651
     17648     17646     17649     17652     17649     17652     17655     17656
     17649     17652     17655     17657     17649     17652     17655     17658
     17650     17649     17652     17653     17650     17649     17652     17654
     17650     17649     17652     17655     17651     17649     17652     17653
     17651     17649     17652     17654     17651     17649     17652     17655
     17652     17655     17658     17659     17652     17655     17658     17660
     17652     17655     17658     17661     17653     17652     17655     17656
     17653     17652     17655     17657     17653     17652     17655     17658
     17654     17652     17655     17656     17654     17652     17655     17657
     17654     17652     17655     17658     17656     17655     17658     17659
     17656     17655     17658     17660     17656     17655     17658     17661
     17657     17655     17658     17659     17657     17655     17658     17660
     17657     17655     17658     17661     17662     17665     17668     17669
     17662     17665     17668     17670     17662     17665     17668     17671
     17663     17662     17665     17666     17663     17662     17665     17667
     17663     17662     17665     17668     17664     17662     17665     17666
     17664     17662     17665     17667     17664     17662     17665     17668
     17665     17668     17671     17672     17665     17668     17671     17673
     17665     17668     17671     17674     17666     17665     17668     17669
     17666     17665     17668     17670     17666     17665     17668     17671
     17667     17665     17668     17669     17667     17665     17668     17670
     17667     17665     17668     17671     17668     17671     17674     17675
     17668     17671     17674     17676     17668     17671     17674     17677
     17669     17668     17671     17672     17669     17668     17671     17673
     17669     17668     17671     17674     17670     17668     17671     17672
     17670     17668     17671     17673     17670     17668     17671     17674
     17671     17674     17677     17678     17671     17674     17677     17679
     17671     17674     17677     17680     17672     17671     17674     17675
     17672     17671     17674     17676     17672     17671     17674     17677
     17673     17671     17674     17675     17673     17671     17674     17676
     17673     17671     17674     17677     17674     17677     17680     17681
     17674     17677     17680     17682     17674     17677     17680     17683
     17675     17674     17677     17678     17675     17674     17677     17679
     17675     17674     17677     17680     17676     17674     17677     17678
     17676     17674     17677     17679     17676     17674     17677     17680
     17677     17680     17683     17684     17677     17680     17683     17685
     17677     17680     17683     17686     17678     17677     17680     17681
     17678     17677     17680     17682     17678     17677     17680     17683
     17679     17677     17680     17681     17679     17677     17680     17682
     17679     17677     17680     17683     17680     17683     17686     17687
     17680     17683     17686     17688     17680     17683     17686     17689
     17681     17680     17683     17684     17681     17680     17683     17685
     17681     17680     17683     17686     17682     17680     17683     17684
     17682     17680     17683     17685     17682     17680     17683     17686
     17683     17686     17689     17690     17683     17686     17689     17691
     17683     17686     17689     17692     17684     17683     17686     17687
     17684     17683     17686     17688     17684     17683     17686     17689
     17685     17683     17686     17687     17685     17683     17686     17688
     17685     17683     17686     17689     17686     17689     17692     17693
     17686     17689     17692     17694     17686     17689     17692     17695
     17687     17686     17689     17690     17687     17686     17689     17691
     17687     17686     17689     17692     17688     17686     17689     17690
     17688     17686     17689     17691     17688     17686     17689     17692
     17689     17692     17695     17696     17689     17692     17695     17697
     17689     17692     17695     17698     17690     17689     17692     17693
     17690     17689     17692     17694     17690     17689     17692     17695
     17691     17689     17692     17693     17691     17689     17692     17694
     17691     17689     17692     17695     17692     17695     17698     17699
     17692     17695     17698     17700     17692     17695     17698     17701
     17693     17692     17695     17696     17693     17692     17695     17697
     17693     17692     17695     17698     17694     17692     17695     17696
     17694     17692     17695     17697     17694     17692     17695     17698
     17695     17698     17701     17702     17695     17698     17701     17703
     17695     17698     17701     17704     17696     17695     17698     17699
     17696     17695     17698     17700     17696     17695     17698     17701
     17697     17695     17698     17699     17697     17695     17698     17700
     17697     17695     17698     17701     17699     17698     17701     17702
     17699     17698     17701     17703     17699     17698     17701     17704
     17700     17698     17701     17702     17700     17698     17701     17703
     17700     17698     17701     17704     17705     17706     17721     17722
     17705     17706     17721     17723     17705     17706     17721     17727
     17706     17705     17709     17710     17706     17705     17709     17711
     17706     17705     17709     17712     17706     17705     17713     17714
     17706     17705     17713     17715     17706     17705     17713     17716
     17706     17705     17717     17718     17706     17705     17717     17719
     17706     17705     17717     17720     17706     17721     17727     17724
     17707     17706     17705     17709     17707     17706     17705     17713
     17707     17706     17705     17717     17707     17706     17721     17722
     17707     17706     17721     17723     17707     17706     17721     17727
     17708     17706     17705     17709     17708     17706     17705     17713
     17708     17706     17705     17717     17708     17706     17721     17722
     17708     17706     17721     17723     17708     17706     17721     17727
     17709     17705     17706     17721     17709     17705     17713     17714
     17709     17705     17713     17715     17709     17705     17713     17716
     17709     17705     17717     17718     17709     17705     17717     17719
     17709     17705     17717     17720     17710     17709     17705     17713
     17710     17709     17705     17717     17711     17709     17705     17713
     17711     17709     17705     17717     17712     17709     17705     17713
     17712     17709     17705     17717     17713     17705     17706     17721
     17713     17705     17717     17718     17713     17705     17717     17719
     17713     17705     17717     17720     17714     17713     17705     17717
     17715     17713     17705     17717     17716     17713     17705     17717
     17717     17705     17706     17721     17721     17727     17724     17725
     17721     17727     17724     17726     17721     17727     17724     17728
     17722     17721     17727     17724     17723     17721     17727     17724
     17724     17728     17729     17730     17724     17728     17729     17731
     17724     17728     17729     17732     17725     17724     17728     17729
     17726     17724     17728     17729     17727     17724     17728     17729
     17728     17729     17732     17733     17728     17729     17732     17734
     17728     17729     17732     17740     17729     17732     17734     17735
     17729     17732     17740     17741     17729     17732     17740     17742
     17729     17732     17740     17743     17730     17729     17732     17733
     17730     17729     17732     17734     17730     17729     17732     17740
     17731     17729     17732     17733     17731     17729     17732     17734
     17731     17729     17732     17740     17732     17734     17735     17736
     17732     17734     17735     17737     17732     17740     17743     17744
     17733     17732     17734     17735     17733     17732     17740     17741
     17733     17732     17740     17742     17733     17732     17740     17743
     17734     17732     17740     17741     17734     17732     17740     17742
     17734     17732     17740     17743     17734     17735     17737     17738
     17734     17735     17737     17739     17734     17735     17737     17749
     17735     17734     17732     17740     17735     17737     17749     17750
     17735     17737     17749     17751     17735     17737     17749     17752
     17736     17735     17737     17738     17736     17735     17737     17739
     17736     17735     17737     17749     17737     17749     17752     17753
     17737     17749     17752     17754     17737     17749     17752     17755
     17738     17737     17749     17750     17738     17737     17749     17751
     17738     17737     17749     17752     17739     17737     17749     17750
     17739     17737     17749     17751     17739     17737     17749     17752
     17740     17743     17744     17745     17740     17743     17744     17746
     17741     17740     17743     17744     17742     17740     17743     17744
     17743     17744     17746     17747     17743     17744     17746     17748
     17743     17744     17746     17796     17744     17746     17796     17797
     17744     17746     17796     17798     17744     17746     17796     17799
     17745     17744     17746     17747     17745     17744     17746     17748
     17745     17744     17746     17796     17746     17796     17799     17800
     17746     17796     17799     17801     17746     17796     17799     17802
     17747     17746     17796     17797     17747     17746     17796     17798
     17747     17746     17796     17799     17748     17746     17796     17797
     17748     17746     17796     17798     17748     17746     17796     17799
     17749     17752     17755     17756     17749     17752     17755     17757
     17749     17752     17755     17758     17750     17749     17752     17753
     17750     17749     17752     17754     17750     17749     17752     17755
     17751     17749     17752     17753     17751     17749     17752     17754
     17751     17749     17752     17755     17752     17755     17758     17759
     17752     17755     17758     17760     17752     17755     17758     17761
     17753     17752     17755     17756     17753     17752     17755     17757
     17753     17752     17755     17758     17754     17752     17755     17756
     17754     17752     17755     17757     17754     17752     17755     17758
     17755     17758     17761     17762     17755     17758     17761     17763
     17755     17758     17761     17764     17756     17755     17758     17759
     17756     17755     17758     17760     17756     17755     17758     17761
     17757     17755     17758     17759     17757     17755     17758     17760
     17757     17755     17758     17761     17758     17761     17764     17765
     17758     17761     17764     17766     17758     17761     17764     17767
     17759     17758     17761     17762     17759     17758     17761     17763
     17759     17758     17761     17764     17760     17758     17761     17762
     17760     17758     17761     17763     17760     17758     17761     17764
     17761     17764     17767     17768     17761     17764     17767     17769
     17762     17761     17764     17765     17762     17761     17764     17766
     17762     17761     17764     17767     17763     17761     17764     17765
     17763     17761     17764     17766     17763     17761     17764     17767
     17764     17767     17769     17770     17764     17767     17769     17771
     17765     17764     17767     17768     17765     17764     17767     17769
     17766     17764     17767     17768     17766     17764     17767     17769
     17767     17769     17771     17772     17767     17769     17771     17773
     17767     17769     17771     17774     17768     17767     17769     17770
     17768     17767     17769     17771     17769     17771     17774     17775
     17769     17771     17774     17776     17769     17771     17774     17777
     17770     17769     17771     17772     17770     17769     17771     17773
     17770     17769     17771     17774     17771     17774     17777     17778
     17771     17774     17777     17779     17771     17774     17777     17780
     17772     17771     17774     17775     17772     17771     17774     17776
     17772     17771     17774     17777     17773     17771     17774     17775
     17773     17771     17774     17776     17773     17771     17774     17777
     17774     17777     17780     17781     17774     17777     17780     17782
     17774     17777     17780     17783     17775     17774     17777     17778
     17775     17774     17777     17779     17775     17774     17777     17780
     17776     17774     17777     17778     17776     17774     17777     17779
     17776     17774     17777     17780     17777     17780     17783     17784
     17777     17780     17783     17785     17777     17780     17783     17786
     17778     17777     17780     17781     17778     17777     17780     17782
     17778     17777     17780     17783     17779     17777     17780     17781
     17779     17777     17780     17782     17779     17777     17780     17783
     17780     17783     17786     17787     17780     17783     17786     17788
     17780     17783     17786     17789     17781     17780     17783     17784
     17781     17780     17783     17785     17781     17780     17783     17786
     17782     17780     17783     17784     17782     17780     17783     17785
     17782     17780     17783     17786     17783     17786     17789     17790
     17783     17786     17789     17791     17783     17786     17789     17792
     17784     17783     17786     17787     17784     17783     17786     17788
     17784     17783     17786     17789     17785     17783     17786     17787
     17785     17783     17786     17788     17785     17783     17786     17789
     17786     17789     17792     17793     17786     17789     17792     17794
     17786     17789     17792     17795     17787     17786     17789     17790
     17787     17786     17789     17791     17787     17786     17789     17792
     17788     17786     17789     17790     17788     17786     17789     17791
     17788     17786     17789     17792     17790     17789     17792     17793
     17790     17789     17792     17794     17790     17789     17792     17795
     17791     17789     17792     17793     17791     17789     17792     17794
     17791     17789     17792     17795     17796     17799     17802     17803
     17796     17799     17802     17804     17796     17799     17802     17805
     17797     17796     17799     17800     17797     17796     17799     17801
     17797     17796     17799     17802     17798     17796     17799     17800
     17798     17796     17799     17801     17798     17796     17799     17802
     17799     17802     17805     17806     17799     17802     17805     17807
     17799     17802     17805     17808     17800     17799     17802     17803
     17800     17799     17802     17804     17800     17799     17802     17805
     17801     17799     17802     17803     17801     17799     17802     17804
     17801     17799     17802     17805     17802     17805     17808     17809
     17802     17805     17808     17810     17802     17805     17808     17811
     17803     17802     17805     17806     17803     17802     17805     17807
     17803     17802     17805     17808     17804     17802     17805     17806
     17804     17802     17805     17807     17804     17802     17805     17808
     17805     17808     17811     17812     17805     17808     17811     17813
     17805     17808     17811     17814     17806     17805     17808     17809
     17806     17805     17808     17810     17806     17805     17808     17811
     17807     17805     17808     17809     17807     17805     17808     17810
     17807     17805     17808     17811     17808     17811     17814     17815
     17808     17811     17814     17816     17808     17811     17814     17817
     17809     17808     17811     17812     17809     17808     17811     17813
     17809     17808     17811     17814     17810     17808     17811     17812
     17810     17808     17811     17813     17810     17808     17811     17814
     17811     17814     17817     17818     17811     17814     17817     17819
     17811     17814     17817     17820     17812     17811     17814     17815
     17812     17811     17814     17816     17812     17811     17814     17817
     17813     17811     17814     17815     17813     17811     17814     17816
     17813     17811     17814     17817     17814     17817     17820     17821
     17814     17817     17820     17822     17814     17817     17820     17823
     17815     17814     17817     17818     17815     17814     17817     17819
     17815     17814     17817     17820     17816     17814     17817     17818
     17816     17814     17817     17819     17816     17814     17817     17820
     17817     17820     17823     17824     17817     17820     17823     17825
     17817     17820     17823     17826     17818     17817     17820     17821
     17818     17817     17820     17822     17818     17817     17820     17823
     17819     17817     17820     17821     17819     17817     17820     17822
     17819     17817     17820     17823     17820     17823     17826     17827
     17820     17823     17826     17828     17820     17823     17826     17829
     17821     17820     17823     17824     17821     17820     17823     17825
     17821     17820     17823     17826     17822     17820     17823     17824
     17822     17820     17823     17825     17822     17820     17823     17826
     17823     17826     17829     17830     17823     17826     17829     17831
     17823     17826     17829     17832     17824     17823     17826     17827
     17824     17823     17826     17828     17824     17823     17826     17829
     17825     17823     17826     17827     17825     17823     17826     17828
     17825     17823     17826     17829     17826     17829     17832     17833
     17826     17829     17832     17834     17826     17829     17832     17835
     17827     17826     17829     17830     17827     17826     17829     17831
     17827     17826     17829     17832     17828     17826     17829     17830
     17828     17826     17829     17831     17828     17826     17829     17832
     17829     17832     17835     17836     17829     17832     17835     17837
     17829     17832     17835     17838     17830     17829     17832     17833
     17830     17829     17832     17834     17830     17829     17832     17835
     17831     17829     17832     17833     17831     17829     17832     17834
     17831     17829     17832     17835     17833     17832     17835     17836
     17833     17832     17835     17837     17833     17832     17835     17838
     17834     17832     17835     17836     17834     17832     17835     17837
     17834     17832     17835     17838     17839     17840     17855     17856
     17839     17840     17855     17857     17839     17840     17855     17861
     17840     17839     17843     17844     17840     17839     17843     17845
     17840     17839     17843     17846     17840     17839     17847     17848
     17840     17839     17847     17849     17840     17839     17847     17850
     17840     17839     17851     17852     17840     17839     17851     17853
     17840     17839     17851     17854     17840     17855     17861     17858
     17841     17840     17839     17843     17841     17840     17839     17847
     17841     17840     17839     17851     17841     17840     17855     17856
     17841     17840     17855     17857     17841     17840     17855     17861
     17842     17840     17839     17843     17842     17840     17839     17847
     17842     17840     17839     17851     17842     17840     17855     17856
     17842     17840     17855     17857     17842     17840     17855     17861
     17843     17839     17840     17855     17843     17839     17847     17848
     17843     17839     17847     17849     17843     17839     17847     17850
     17843     17839     17851     17852     17843     17839     17851     17853
     17843     17839     17851     17854     17844     17843     17839     17847
     17844     17843     17839     17851     17845     17843     17839     17847
     17845     17843     17839     17851     17846     17843     17839     17847
     17846     17843     17839     17851     17847     17839     17840     17855
     17847     17839     17851     17852     17847     17839     17851     17853
     17847     17839     17851     17854     17848     17847     17839     17851
     17849     17847     17839     17851     17850     17847     17839     17851
     17851     17839     17840     17855     17855     17861     17858     17859
     17855     17861     17858     17860     17855     17861     17858     17862
     17856     17855     17861     17858     17857     17855     17861     17858
     17858     17862     17863     17864     17858     17862     17863     17865
     17858     17862     17863     17866     17859     17858     17862     17863
     17860     17858     17862     17863     17861     17858     17862     17863
     17862     17863     17866     17867     17862     17863     17866     17868
     17862     17863     17866     17874     17863     17866     17868     17869
     17863     17866     17874     17875     17863     17866     17874     17876
     17863     17866     17874     17877     17864     17863     17866     17867
     17864     17863     17866     17868     17864     17863     17866     17874
     17865     17863     17866     17867     17865     17863     17866     17868
     17865     17863     17866     17874     17866     17868     17869     17870
     17866     17868     17869     17871     17866     17874     17877     17878
     17867     17866     17868     17869     17867     17866     17874     17875
     17867     17866     17874     17876     17867     17866     17874     17877
     17868     17866     17874     17875     17868     17866     17874     17876
     17868     17866     17874     17877     17868     17869     17871     17872
     17868     17869     17871     17873     17868     17869     17871     17883
     17869     17868     17866     17874     17869     17871     17883     17884
     17869     17871     17883     17885     17869     17871     17883     17886
     17870     17869     17871     17872     17870     17869     17871     17873
     17870     17869     17871     17883     17871     17883     17886     17887
     17871     17883     17886     17888     17871     17883     17886     17889
     17872     17871     17883     17884     17872     17871     17883     17885
     17872     17871     17883     17886     17873     17871     17883     17884
     17873     17871     17883     17885     17873     17871     17883     17886
     17874     17877     17878     17879     17874     17877     17878     17880
     17875     17874     17877     17878     17876     17874     17877     17878
     17877     17878     17880     17881     17877     17878     17880     17882
     17877     17878     17880     17930     17878     17880     17930     17931
     17878     17880     17930     17932     17878     17880     17930     17933
     17879     17878     17880     17881     17879     17878     17880     17882
     17879     17878     17880     17930     17880     17930     17933     17934
     17880     17930     17933     17935     17880     17930     17933     17936
     17881     17880     17930     17931     17881     17880     17930     17932
     17881     17880     17930     17933     17882     17880     17930     17931
     17882     17880     17930     17932     17882     17880     17930     17933
     17883     17886     17889     17890     17883     17886     17889     17891
     17883     17886     17889     17892     17884     17883     17886     17887
     17884     17883     17886     17888     17884     17883     17886     17889
     17885     17883     17886     17887     17885     17883     17886     17888
     17885     17883     17886     17889     17886     17889     17892     17893
     17886     17889     17892     17894     17886     17889     17892     17895
     17887     17886     17889     17890     17887     17886     17889     17891
     17887     17886     17889     17892     17888     17886     17889     17890
     17888     17886     17889     17891     17888     17886     17889     17892
     17889     17892     17895     17896     17889     17892     17895     17897
     17889     17892     17895     17898     17890     17889     17892     17893
     17890     17889     17892     17894     17890     17889     17892     17895
     17891     17889     17892     17893     17891     17889     17892     17894
     17891     17889     17892     17895     17892     17895     17898     17899
     17892     17895     17898     17900     17892     17895     17898     17901
     17893     17892     17895     17896     17893     17892     17895     17897
     17893     17892     17895     17898     17894     17892     17895     17896
     17894     17892     17895     17897     17894     17892     17895     17898
     17895     17898     17901     17902     17895     17898     17901     17903
     17896     17895     17898     17899     17896     17895     17898     17900
     17896     17895     17898     17901     17897     17895     17898     17899
     17897     17895     17898     17900     17897     17895     17898     17901
     17898     17901     17903     17904     17898     17901     17903     17905
     17899     17898     17901     17902     17899     17898     17901     17903
     17900     17898     17901     17902     17900     17898     17901     17903
     17901     17903     17905     17906     17901     17903     17905     17907
     17901     17903     17905     17908     17902     17901     17903     17904
     17902     17901     17903     17905     17903     17905     17908     17909
     17903     17905     17908     17910     17903     17905     17908     17911
     17904     17903     17905     17906     17904     17903     17905     17907
     17904     17903     17905     17908     17905     17908     17911     17912
     17905     17908     17911     17913     17905     17908     17911     17914
     17906     17905     17908     17909     17906     17905     17908     17910
     17906     17905     17908     17911     17907     17905     17908     17909
     17907     17905     17908     17910     17907     17905     17908     17911
     17908     17911     17914     17915     17908     17911     17914     17916
     17908     17911     17914     17917     17909     17908     17911     17912
     17909     17908     17911     17913     17909     17908     17911     17914
     17910     17908     17911     17912     17910     17908     17911     17913
     17910     17908     17911     17914     17911     17914     17917     17918
     17911     17914     17917     17919     17911     17914     17917     17920
     17912     17911     17914     17915     17912     17911     17914     17916
     17912     17911     17914     17917     17913     17911     17914     17915
     17913     17911     17914     17916     17913     17911     17914     17917
     17914     17917     17920     17921     17914     17917     17920     17922
     17914     17917     17920     17923     17915     17914     17917     17918
     17915     17914     17917     17919     17915     17914     17917     17920
     17916     17914     17917     17918     17916     17914     17917     17919
     17916     17914     17917     17920     17917     17920     17923     17924
     17917     17920     17923     17925     17917     17920     17923     17926
     17918     17917     17920     17921     17918     17917     17920     17922
     17918     17917     17920     17923     17919     17917     17920     17921
     17919     17917     17920     17922     17919     17917     17920     17923
     17920     17923     17926     17927     17920     17923     17926     17928
     17920     17923     17926     17929     17921     17920     17923     17924
     17921     17920     17923     17925     17921     17920     17923     17926
     17922     17920     17923     17924     17922     17920     17923     17925
     17922     17920     17923     17926     17924     17923     17926     17927
     17924     17923     17926     17928     17924     17923     17926     17929
     17925     17923     17926     17927     17925     17923     17926     17928
     17925     17923     17926     17929     17930     17933     17936     17937
     17930     17933     17936     17938     17930     17933     17936     17939
     17931     17930     17933     17934     17931     17930     17933     17935
     17931     17930     17933     17936     17932     17930     17933     17934
     17932     17930     17933     17935     17932     17930     17933     17936
     17933     17936     17939     17940     17933     17936     17939     17941
     17933     17936     17939     17942     17934     17933     17936     17937
     17934     17933     17936     17938     17934     17933     17936     17939
     17935     17933     17936     17937     17935     17933     17936     17938
     17935     17933     17936     17939     17936     17939     17942     17943
     17936     17939     17942     17944     17936     17939     17942     17945
     17937     17936     17939     17940     17937     17936     17939     17941
     17937     17936     17939     17942     17938     17936     17939     17940
     17938     17936     17939     17941     17938     17936     17939     17942
     17939     17942     17945     17946     17939     17942     17945     17947
     17939     17942     17945     17948     17940     17939     17942     17943
     17940     17939     17942     17944     17940     17939     17942     17945
     17941     17939     17942     17943     17941     17939     17942     17944
     17941     17939     17942     17945     17942     17945     17948     17949
     17942     17945     17948     17950     17942     17945     17948     17951
     17943     17942     17945     17946     17943     17942     17945     17947
     17943     17942     17945     17948     17944     17942     17945     17946
     17944     17942     17945     17947     17944     17942     17945     17948
     17945     17948     17951     17952     17945     17948     17951     17953
     17945     17948     17951     17954     17946     17945     17948     17949
     17946     17945     17948     17950     17946     17945     17948     17951
     17947     17945     17948     17949     17947     17945     17948     17950
     17947     17945     17948     17951     17948     17951     17954     17955
     17948     17951     17954     17956     17948     17951     17954     17957
     17949     17948     17951     17952     17949     17948     17951     17953
     17949     17948     17951     17954     17950     17948     17951     17952
     17950     17948     17951     17953     17950     17948     17951     17954
     17951     17954     17957     17958     17951     17954     17957     17959
     17951     17954     17957     17960     17952     17951     17954     17955
     17952     17951     17954     17956     17952     17951     17954     17957
     17953     17951     17954     17955     17953     17951     17954     17956
     17953     17951     17954     17957     17954     17957     17960     17961
     17954     17957     17960     17962     17954     17957     17960     17963
     17955     17954     17957     17958     17955     17954     17957     17959
     17955     17954     17957     17960     17956     17954     17957     17958
     17956     17954     17957     17959     17956     17954     17957     17960
     17957     17960     17963     17964     17957     17960     17963     17965
     17957     17960     17963     17966     17958     17957     17960     17961
     17958     17957     17960     17962     17958     17957     17960     17963
     17959     17957     17960     17961     17959     17957     17960     17962
     17959     17957     17960     17963     17960     17963     17966     17967
     17960     17963     17966     17968     17960     17963     17966     17969
     17961     17960     17963     17964     17961     17960     17963     17965
     17961     17960     17963     17966     17962     17960     17963     17964
     17962     17960     17963     17965     17962     17960     17963     17966
     17963     17966     17969     17970     17963     17966     17969     17971
     17963     17966     17969     17972     17964     17963     17966     17967
     17964     17963     17966     17968     17964     17963     17966     17969
     17965     17963     17966     17967     17965     17963     17966     17968
     17965     17963     17966     17969     17967     17966     17969     17970
     17967     17966     17969     17971     17967     17966     17969     17972
     17968     17966     17969     17970     17968     17966     17969     17971
     17968     17966     17969     17972     17973     17974     17989     17990
     17973     17974     17989     17991     17973     17974     17989     17995
     17974     17973     17977     17978     17974     17973     17977     17979
     17974     17973     17977     17980     17974     17973     17981     17982
     17974     17973     17981     17983     17974     17973     17981     17984
     17974     17973     17985     17986     17974     17973     17985     17987
     17974     17973     17985     17988     17974     17989     17995     17992
     17975     17974     17973     17977     17975     17974     17973     17981
     17975     17974     17973     17985     17975     17974     17989     17990
     17975     17974     17989     17991     17975     17974     17989     17995
     17976     17974     17973     17977     17976     17974     17973     17981
     17976     17974     17973     17985     17976     17974     17989     17990
     17976     17974     17989     17991     17976     17974     17989     17995
     17977     17973     17974     17989     17977     17973     17981     17982
     17977     17973     17981     17983     17977     17973     17981     17984
     17977     17973     17985     17986     17977     17973     17985     17987
     17977     17973     17985     17988     17978     17977     17973     17981
     17978     17977     17973     17985     17979     17977     17973     17981
     17979     17977     17973     17985     17980     17977     17973     17981
     17980     17977     17973     17985     17981     17973     17974     17989
     17981     17973     17985     17986     17981     17973     17985     17987
     17981     17973     17985     17988     17982     17981     17973     17985
     17983     17981     17973     17985     17984     17981     17973     17985
     17985     17973     17974     17989     17989     17995     17992     17993
     17989     17995     17992     17994     17989     17995     17992     17996
     17990     17989     17995     17992     17991     17989     17995     17992
     17992     17996     17997     17998     17992     17996     17997     17999
     17992     17996     17997     18000     17993     17992     17996     17997
     17994     17992     17996     17997     17995     17992     17996     17997
     17996     17997     18000     18001     17996     17997     18000     18002
     17996     17997     18000     18008     17997     18000     18002     18003
     17997     18000     18008     18009     17997     18000     18008     18010
     17997     18000     18008     18011     17998     17997     18000     18001
     17998     17997     18000     18002     17998     17997     18000     18008
     17999     17997     18000     18001     17999     17997     18000     18002
     17999     17997     18000     18008     18000     18002     18003     18004
     18000     18002     18003     18005     18000     18008     18011     18012
     18001     18000     18002     18003     18001     18000     18008     18009
     18001     18000     18008     18010     18001     18000     18008     18011
     18002     18000     18008     18009     18002     18000     18008     18010
     18002     18000     18008     18011     18002     18003     18005     18006
     18002     18003     18005     18007     18002     18003     18005     18017
     18003     18002     18000     18008     18003     18005     18017     18018
     18003     18005     18017     18019     18003     18005     18017     18020
     18004     18003     18005     18006     18004     18003     18005     18007
     18004     18003     18005     18017     18005     18017     18020     18021
     18005     18017     18020     18022     18005     18017     18020     18023
     18006     18005     18017     18018     18006     18005     18017     18019
     18006     18005     18017     18020     18007     18005     18017     18018
     18007     18005     18017     18019     18007     18005     18017     18020
     18008     18011     18012     18013     18008     18011     18012     18014
     18009     18008     18011     18012     18010     18008     18011     18012
     18011     18012     18014     18015     18011     18012     18014     18016
     18011     18012     18014     18064     18012     18014     18064     18065
     18012     18014     18064     18066     18012     18014     18064     18067
     18013     18012     18014     18015     18013     18012     18014     18016
     18013     18012     18014     18064     18014     18064     18067     18068
     18014     18064     18067     18069     18014     18064     18067     18070
     18015     18014     18064     18065     18015     18014     18064     18066
     18015     18014     18064     18067     18016     18014     18064     18065
     18016     18014     18064     18066     18016     18014     18064     18067
     18017     18020     18023     18024     18017     18020     18023     18025
     18017     18020     18023     18026     18018     18017     18020     18021
     18018     18017     18020     18022     18018     18017     18020     18023
     18019     18017     18020     18021     18019     18017     18020     18022
     18019     18017     18020     18023     18020     18023     18026     18027
     18020     18023     18026     18028     18020     18023     18026     18029
     18021     18020     18023     18024     18021     18020     18023     18025
     18021     18020     18023     18026     18022     18020     18023     18024
     18022     18020     18023     18025     18022     18020     18023     18026
     18023     18026     18029     18030     18023     18026     18029     18031
     18023     18026     18029     18032     18024     18023     18026     18027
     18024     18023     18026     18028     18024     18023     18026     18029
     18025     18023     18026     18027     18025     18023     18026     18028
     18025     18023     18026     18029     18026     18029     18032     18033
     18026     18029     18032     18034     18026     18029     18032     18035
     18027     18026     18029     18030     18027     18026     18029     18031
     18027     18026     18029     18032     18028     18026     18029     18030
     18028     18026     18029     18031     18028     18026     18029     18032
     18029     18032     18035     18036     18029     18032     18035     18037
     18030     18029     18032     18033     18030     18029     18032     18034
     18030     18029     18032     18035     18031     18029     18032     18033
     18031     18029     18032     18034     18031     18029     18032     18035
     18032     18035     18037     18038     18032     18035     18037     18039
     18033     18032     18035     18036     18033     18032     18035     18037
     18034     18032     18035     18036     18034     18032     18035     18037
     18035     18037     18039     18040     18035     18037     18039     18041
     18035     18037     18039     18042     18036     18035     18037     18038
     18036     18035     18037     18039     18037     18039     18042     18043
     18037     18039     18042     18044     18037     18039     18042     18045
     18038     18037     18039     18040     18038     18037     18039     18041
     18038     18037     18039     18042     18039     18042     18045     18046
     18039     18042     18045     18047     18039     18042     18045     18048
     18040     18039     18042     18043     18040     18039     18042     18044
     18040     18039     18042     18045     18041     18039     18042     18043
     18041     18039     18042     18044     18041     18039     18042     18045
     18042     18045     18048     18049     18042     18045     18048     18050
     18042     18045     18048     18051     18043     18042     18045     18046
     18043     18042     18045     18047     18043     18042     18045     18048
     18044     18042     18045     18046     18044     18042     18045     18047
     18044     18042     18045     18048     18045     18048     18051     18052
     18045     18048     18051     18053     18045     18048     18051     18054
     18046     18045     18048     18049     18046     18045     18048     18050
     18046     18045     18048     18051     18047     18045     18048     18049
     18047     18045     18048     18050     18047     18045     18048     18051
     18048     18051     18054     18055     18048     18051     18054     18056
     18048     18051     18054     18057     18049     18048     18051     18052
     18049     18048     18051     18053     18049     18048     18051     18054
     18050     18048     18051     18052     18050     18048     18051     18053
     18050     18048     18051     18054     18051     18054     18057     18058
     18051     18054     18057     18059     18051     18054     18057     18060
     18052     18051     18054     18055     18052     18051     18054     18056
     18052     18051     18054     18057     18053     18051     18054     18055
     18053     18051     18054     18056     18053     18051     18054     18057
     18054     18057     18060     18061     18054     18057     18060     18062
     18054     18057     18060     18063     18055     18054     18057     18058
     18055     18054     18057     18059     18055     18054     18057     18060
     18056     18054     18057     18058     18056     18054     18057     18059
     18056     18054     18057     18060     18058     18057     18060     18061
     18058     18057     18060     18062     18058     18057     18060     18063
     18059     18057     18060     18061     18059     18057     18060     18062
     18059     18057     18060     18063     18064     18067     18070     18071
     18064     18067     18070     18072     18064     18067     18070     18073
     18065     18064     18067     18068     18065     18064     18067     18069
     18065     18064     18067     18070     18066     18064     18067     18068
     18066     18064     18067     18069     18066     18064     18067     18070
     18067     18070     18073     18074     18067     18070     18073     18075
     18067     18070     18073     18076     18068     18067     18070     18071
     18068     18067     18070     18072     18068     18067     18070     18073
     18069     18067     18070     18071     18069     18067     18070     18072
     18069     18067     18070     18073     18070     18073     18076     18077
     18070     18073     18076     18078     18070     18073     18076     18079
     18071     18070     18073     18074     18071     18070     18073     18075
     18071     18070     18073     18076     18072     18070     18073     18074
     18072     18070     18073     18075     18072     18070     18073     18076
     18073     18076     18079     18080     18073     18076     18079     18081
     18073     18076     18079     18082     18074     18073     18076     18077
     18074     18073     18076     18078     18074     18073     18076     18079
     18075     18073     18076     18077     18075     18073     18076     18078
     18075     18073     18076     18079     18076     18079     18082     18083
     18076     18079     18082     18084     18076     18079     18082     18085
     18077     18076     18079     18080     18077     18076     18079     18081
     18077     18076     18079     18082     18078     18076     18079     18080
     18078     18076     18079     18081     18078     18076     18079     18082
     18079     18082     18085     18086     18079     18082     18085     18087
     18079     18082     18085     18088     18080     18079     18082     18083
     18080     18079     18082     18084     18080     18079     18082     18085
     18081     18079     18082     18083     18081     18079     18082     18084
     18081     18079     18082     18085     18082     18085     18088     18089
     18082     18085     18088     18090     18082     18085     18088     18091
     18083     18082     18085     18086     18083     18082     18085     18087
     18083     18082     18085     18088     18084     18082     18085     18086
     18084     18082     18085     18087     18084     18082     18085     18088
     18085     18088     18091     18092     18085     18088     18091     18093
     18085     18088     18091     18094     18086     18085     18088     18089
     18086     18085     18088     18090     18086     18085     18088     18091
     18087     18085     18088     18089     18087     18085     18088     18090
     18087     18085     18088     18091     18088     18091     18094     18095
     18088     18091     18094     18096     18088     18091     18094     18097
     18089     18088     18091     18092     18089     18088     18091     18093
     18089     18088     18091     18094     18090     18088     18091     18092
     18090     18088     18091     18093     18090     18088     18091     18094
     18091     18094     18097     18098     18091     18094     18097     18099
     18091     18094     18097     18100     18092     18091     18094     18095
     18092     18091     18094     18096     18092     18091     18094     18097
     18093     18091     18094     18095     18093     18091     18094     18096
     18093     18091     18094     18097     18094     18097     18100     18101
     18094     18097     18100     18102     18094     18097     18100     18103
     18095     18094     18097     18098     18095     18094     18097     18099
     18095     18094     18097     18100     18096     18094     18097     18098
     18096     18094     18097     18099     18096     18094     18097     18100
     18097     18100     18103     18104     18097     18100     18103     18105
     18097     18100     18103     18106     18098     18097     18100     18101
     18098     18097     18100     18102     18098     18097     18100     18103
     18099     18097     18100     18101     18099     18097     18100     18102
     18099     18097     18100     18103     18101     18100     18103     18104
     18101     18100     18103     18105     18101     18100     18103     18106
     18102     18100     18103     18104     18102     18100     18103     18105
     18102     18100     18103     18106     18107     18108     18123     18124
     18107     18108     18123     18125     18107     18108     18123     18129
     18108     18107     18111     18112     18108     18107     18111     18113
     18108     18107     18111     18114     18108     18107     18115     18116
     18108     18107     18115     18117     18108     18107     18115     18118
     18108     18107     18119     18120     18108     18107     18119     18121
     18108     18107     18119     18122     18108     18123     18129     18126
     18109     18108     18107     18111     18109     18108     18107     18115
     18109     18108     18107     18119     18109     18108     18123     18124
     18109     18108     18123     18125     18109     18108     18123     18129
     18110     18108     18107     18111     18110     18108     18107     18115
     18110     18108     18107     18119     18110     18108     18123     18124
     18110     18108     18123     18125     18110     18108     18123     18129
     18111     18107     18108     18123     18111     18107     18115     18116
     18111     18107     18115     18117     18111     18107     18115     18118
     18111     18107     18119     18120     18111     18107     18119     18121
     18111     18107     18119     18122     18112     18111     18107     18115
     18112     18111     18107     18119     18113     18111     18107     18115
     18113     18111     18107     18119     18114     18111     18107     18115
     18114     18111     18107     18119     18115     18107     18108     18123
     18115     18107     18119     18120     18115     18107     18119     18121
     18115     18107     18119     18122     18116     18115     18107     18119
     18117     18115     18107     18119     18118     18115     18107     18119
     18119     18107     18108     18123     18123     18129     18126     18127
     18123     18129     18126     18128     18123     18129     18126     18130
     18124     18123     18129     18126     18125     18123     18129     18126
     18126     18130     18131     18132     18126     18130     18131     18133
     18126     18130     18131     18134     18127     18126     18130     18131
     18128     18126     18130     18131     18129     18126     18130     18131
     18130     18131     18134     18135     18130     18131     18134     18136
     18130     18131     18134     18142     18131     18134     18136     18137
     18131     18134     18142     18143     18131     18134     18142     18144
     18131     18134     18142     18145     18132     18131     18134     18135
     18132     18131     18134     18136     18132     18131     18134     18142
     18133     18131     18134     18135     18133     18131     18134     18136
     18133     18131     18134     18142     18134     18136     18137     18138
     18134     18136     18137     18139     18134     18142     18145     18146
     18135     18134     18136     18137     18135     18134     18142     18143
     18135     18134     18142     18144     18135     18134     18142     18145
     18136     18134     18142     18143     18136     18134     18142     18144
     18136     18134     18142     18145     18136     18137     18139     18140
     18136     18137     18139     18141     18136     18137     18139     18151
     18137     18136     18134     18142     18137     18139     18151     18152
     18137     18139     18151     18153     18137     18139     18151     18154
     18138     18137     18139     18140     18138     18137     18139     18141
     18138     18137     18139     18151     18139     18151     18154     18155
     18139     18151     18154     18156     18139     18151     18154     18157
     18140     18139     18151     18152     18140     18139     18151     18153
     18140     18139     18151     18154     18141     18139     18151     18152
     18141     18139     18151     18153     18141     18139     18151     18154
     18142     18145     18146     18147     18142     18145     18146     18148
     18143     18142     18145     18146     18144     18142     18145     18146
     18145     18146     18148     18149     18145     18146     18148     18150
     18145     18146     18148     18198     18146     18148     18198     18199
     18146     18148     18198     18200     18146     18148     18198     18201
     18147     18146     18148     18149     18147     18146     18148     18150
     18147     18146     18148     18198     18148     18198     18201     18202
     18148     18198     18201     18203     18148     18198     18201     18204
     18149     18148     18198     18199     18149     18148     18198     18200
     18149     18148     18198     18201     18150     18148     18198     18199
     18150     18148     18198     18200     18150     18148     18198     18201
     18151     18154     18157     18158     18151     18154     18157     18159
     18151     18154     18157     18160     18152     18151     18154     18155
     18152     18151     18154     18156     18152     18151     18154     18157
     18153     18151     18154     18155     18153     18151     18154     18156
     18153     18151     18154     18157     18154     18157     18160     18161
     18154     18157     18160     18162     18154     18157     18160     18163
     18155     18154     18157     18158     18155     18154     18157     18159
     18155     18154     18157     18160     18156     18154     18157     18158
     18156     18154     18157     18159     18156     18154     18157     18160
     18157     18160     18163     18164     18157     18160     18163     18165
     18157     18160     18163     18166     18158     18157     18160     18161
     18158     18157     18160     18162     18158     18157     18160     18163
     18159     18157     18160     18161     18159     18157     18160     18162
     18159     18157     18160     18163     18160     18163     18166     18167
     18160     18163     18166     18168     18160     18163     18166     18169
     18161     18160     18163     18164     18161     18160     18163     18165
     18161     18160     18163     18166     18162     18160     18163     18164
     18162     18160     18163     18165     18162     18160     18163     18166
     18163     18166     18169     18170     18163     18166     18169     18171
     18164     18163     18166     18167     18164     18163     18166     18168
     18164     18163     18166     18169     18165     18163     18166     18167
     18165     18163     18166     18168     18165     18163     18166     18169
     18166     18169     18171     18172     18166     18169     18171     18173
     18167     18166     18169     18170     18167     18166     18169     18171
     18168     18166     18169     18170     18168     18166     18169     18171
     18169     18171     18173     18174     18169     18171     18173     18175
     18169     18171     18173     18176     18170     18169     18171     18172
     18170     18169     18171     18173     18171     18173     18176     18177
     18171     18173     18176     18178     18171     18173     18176     18179
     18172     18171     18173     18174     18172     18171     18173     18175
     18172     18171     18173     18176     18173     18176     18179     18180
     18173     18176     18179     18181     18173     18176     18179     18182
     18174     18173     18176     18177     18174     18173     18176     18178
     18174     18173     18176     18179     18175     18173     18176     18177
     18175     18173     18176     18178     18175     18173     18176     18179
     18176     18179     18182     18183     18176     18179     18182     18184
     18176     18179     18182     18185     18177     18176     18179     18180
     18177     18176     18179     18181     18177     18176     18179     18182
     18178     18176     18179     18180     18178     18176     18179     18181
     18178     18176     18179     18182     18179     18182     18185     18186
     18179     18182     18185     18187     18179     18182     18185     18188
     18180     18179     18182     18183     18180     18179     18182     18184
     18180     18179     18182     18185     18181     18179     18182     18183
     18181     18179     18182     18184     18181     18179     18182     18185
     18182     18185     18188     18189     18182     18185     18188     18190
     18182     18185     18188     18191     18183     18182     18185     18186
     18183     18182     18185     18187     18183     18182     18185     18188
     18184     18182     18185     18186     18184     18182     18185     18187
     18184     18182     18185     18188     18185     18188     18191     18192
     18185     18188     18191     18193     18185     18188     18191     18194
     18186     18185     18188     18189     18186     18185     18188     18190
     18186     18185     18188     18191     18187     18185     18188     18189
     18187     18185     18188     18190     18187     18185     18188     18191
     18188     18191     18194     18195     18188     18191     18194     18196
     18188     18191     18194     18197     18189     18188     18191     18192
     18189     18188     18191     18193     18189     18188     18191     18194
     18190     18188     18191     18192     18190     18188     18191     18193
     18190     18188     18191     18194     18192     18191     18194     18195
     18192     18191     18194     18196     18192     18191     18194     18197
     18193     18191     18194     18195     18193     18191     18194     18196
     18193     18191     18194     18197     18198     18201     18204     18205
     18198     18201     18204     18206     18198     18201     18204     18207
     18199     18198     18201     18202     18199     18198     18201     18203
     18199     18198     18201     18204     18200     18198     18201     18202
     18200     18198     18201     18203     18200     18198     18201     18204
     18201     18204     18207     18208     18201     18204     18207     18209
     18201     18204     18207     18210     18202     18201     18204     18205
     18202     18201     18204     18206     18202     18201     18204     18207
     18203     18201     18204     18205     18203     18201     18204     18206
     18203     18201     18204     18207     18204     18207     18210     18211
     18204     18207     18210     18212     18204     18207     18210     18213
     18205     18204     18207     18208     18205     18204     18207     18209
     18205     18204     18207     18210     18206     18204     18207     18208
     18206     18204     18207     18209     18206     18204     18207     18210
     18207     18210     18213     18214     18207     18210     18213     18215
     18207     18210     18213     18216     18208     18207     18210     18211
     18208     18207     18210     18212     18208     18207     18210     18213
     18209     18207     18210     18211     18209     18207     18210     18212
     18209     18207     18210     18213     18210     18213     18216     18217
     18210     18213     18216     18218     18210     18213     18216     18219
     18211     18210     18213     18214     18211     18210     18213     18215
     18211     18210     18213     18216     18212     18210     18213     18214
     18212     18210     18213     18215     18212     18210     18213     18216
     18213     18216     18219     18220     18213     18216     18219     18221
     18213     18216     18219     18222     18214     18213     18216     18217
     18214     18213     18216     18218     18214     18213     18216     18219
     18215     18213     18216     18217     18215     18213     18216     18218
     18215     18213     18216     18219     18216     18219     18222     18223
     18216     18219     18222     18224     18216     18219     18222     18225
     18217     18216     18219     18220     18217     18216     18219     18221
     18217     18216     18219     18222     18218     18216     18219     18220
     18218     18216     18219     18221     18218     18216     18219     18222
     18219     18222     18225     18226     18219     18222     18225     18227
     18219     18222     18225     18228     18220     18219     18222     18223
     18220     18219     18222     18224     18220     18219     18222     18225
     18221     18219     18222     18223     18221     18219     18222     18224
     18221     18219     18222     18225     18222     18225     18228     18229
     18222     18225     18228     18230     18222     18225     18228     18231
     18223     18222     18225     18226     18223     18222     18225     18227
     18223     18222     18225     18228     18224     18222     18225     18226
     18224     18222     18225     18227     18224     18222     18225     18228
     18225     18228     18231     18232     18225     18228     18231     18233
     18225     18228     18231     18234     18226     18225     18228     18229
     18226     18225     18228     18230     18226     18225     18228     18231
     18227     18225     18228     18229     18227     18225     18228     18230
     18227     18225     18228     18231     18228     18231     18234     18235
     18228     18231     18234     18236     18228     18231     18234     18237
     18229     18228     18231     18232     18229     18228     18231     18233
     18229     18228     18231     18234     18230     18228     18231     18232
     18230     18228     18231     18233     18230     18228     18231     18234
     18231     18234     18237     18238     18231     18234     18237     18239
     18231     18234     18237     18240     18232     18231     18234     18235
     18232     18231     18234     18236     18232     18231     18234     18237
     18233     18231     18234     18235     18233     18231     18234     18236
     18233     18231     18234     18237     18235     18234     18237     18238
     18235     18234     18237     18239     18235     18234     18237     18240
     18236     18234     18237     18238     18236     18234     18237     18239
     18236     18234     18237     18240     18241     18242     18257     18258
     18241     18242     18257     18259     18241     18242     18257     18263
     18242     18241     18245     18246     18242     18241     18245     18247
     18242     18241     18245     18248     18242     18241     18249     18250
     18242     18241     18249     18251     18242     18241     18249     18252
     18242     18241     18253     18254     18242     18241     18253     18255
     18242     18241     18253     18256     18242     18257     18263     18260
     18243     18242     18241     18245     18243     18242     18241     18249
     18243     18242     18241     18253     18243     18242     18257     18258
     18243     18242     18257     18259     18243     18242     18257     18263
     18244     18242     18241     18245     18244     18242     18241     18249
     18244     18242     18241     18253     18244     18242     18257     18258
     18244     18242     18257     18259     18244     18242     18257     18263
     18245     18241     18242     18257     18245     18241     18249     18250
     18245     18241     18249     18251     18245     18241     18249     18252
     18245     18241     18253     18254     18245     18241     18253     18255
     18245     18241     18253     18256     18246     18245     18241     18249
     18246     18245     18241     18253     18247     18245     18241     18249
     18247     18245     18241     18253     18248     18245     18241     18249
     18248     18245     18241     18253     18249     18241     18242     18257
     18249     18241     18253     18254     18249     18241     18253     18255
     18249     18241     18253     18256     18250     18249     18241     18253
     18251     18249     18241     18253     18252     18249     18241     18253
     18253     18241     18242     18257     18257     18263     18260     18261
     18257     18263     18260     18262     18257     18263     18260     18264
     18258     18257     18263     18260     18259     18257     18263     18260
     18260     18264     18265     18266     18260     18264     18265     18267
     18260     18264     18265     18268     18261     18260     18264     18265
     18262     18260     18264     18265     18263     18260     18264     18265
     18264     18265     18268     18269     18264     18265     18268     18270
     18264     18265     18268     18276     18265     18268     18270     18271
     18265     18268     18276     18277     18265     18268     18276     18278
     18265     18268     18276     18279     18266     18265     18268     18269
     18266     18265     18268     18270     18266     18265     18268     18276
     18267     18265     18268     18269     18267     18265     18268     18270
     18267     18265     18268     18276     18268     18270     18271     18272
     18268     18270     18271     18273     18268     18276     18279     18280
     18269     18268     18270     18271     18269     18268     18276     18277
     18269     18268     18276     18278     18269     18268     18276     18279
     18270     18268     18276     18277     18270     18268     18276     18278
     18270     18268     18276     18279     18270     18271     18273     18274
     18270     18271     18273     18275     18270     18271     18273     18285
     18271     18270     18268     18276     18271     18273     18285     18286
     18271     18273     18285     18287     18271     18273     18285     18288
     18272     18271     18273     18274     18272     18271     18273     18275
     18272     18271     18273     18285     18273     18285     18288     18289
     18273     18285     18288     18290     18273     18285     18288     18291
     18274     18273     18285     18286     18274     18273     18285     18287
     18274     18273     18285     18288     18275     18273     18285     18286
     18275     18273     18285     18287     18275     18273     18285     18288
     18276     18279     18280     18281     18276     18279     18280     18282
     18277     18276     18279     18280     18278     18276     18279     18280
     18279     18280     18282     18283     18279     18280     18282     18284
     18279     18280     18282     18332     18280     18282     18332     18333
     18280     18282     18332     18334     18280     18282     18332     18335
     18281     18280     18282     18283     18281     18280     18282     18284
     18281     18280     18282     18332     18282     18332     18335     18336
     18282     18332     18335     18337     18282     18332     18335     18338
     18283     18282     18332     18333     18283     18282     18332     18334
     18283     18282     18332     18335     18284     18282     18332     18333
     18284     18282     18332     18334     18284     18282     18332     18335
     18285     18288     18291     18292     18285     18288     18291     18293
     18285     18288     18291     18294     18286     18285     18288     18289
     18286     18285     18288     18290     18286     18285     18288     18291
     18287     18285     18288     18289     18287     18285     18288     18290
     18287     18285     18288     18291     18288     18291     18294     18295
     18288     18291     18294     18296     18288     18291     18294     18297
     18289     18288     18291     18292     18289     18288     18291     18293
     18289     18288     18291     18294     18290     18288     18291     18292
     18290     18288     18291     18293     18290     18288     18291     18294
     18291     18294     18297     18298     18291     18294     18297     18299
     18291     18294     18297     18300     18292     18291     18294     18295
     18292     18291     18294     18296     18292     18291     18294     18297
     18293     18291     18294     18295     18293     18291     18294     18296
     18293     18291     18294     18297     18294     18297     18300     18301
     18294     18297     18300     18302     18294     18297     18300     18303
     18295     18294     18297     18298     18295     18294     18297     18299
     18295     18294     18297     18300     18296     18294     18297     18298
     18296     18294     18297     18299     18296     18294     18297     18300
     18297     18300     18303     18304     18297     18300     18303     18305
     18298     18297     18300     18301     18298     18297     18300     18302
     18298     18297     18300     18303     18299     18297     18300     18301
     18299     18297     18300     18302     18299     18297     18300     18303
     18300     18303     18305     18306     18300     18303     18305     18307
     18301     18300     18303     18304     18301     18300     18303     18305
     18302     18300     18303     18304     18302     18300     18303     18305
     18303     18305     18307     18308     18303     18305     18307     18309
     18303     18305     18307     18310     18304     18303     18305     18306
     18304     18303     18305     18307     18305     18307     18310     18311
     18305     18307     18310     18312     18305     18307     18310     18313
     18306     18305     18307     18308     18306     18305     18307     18309
     18306     18305     18307     18310     18307     18310     18313     18314
     18307     18310     18313     18315     18307     18310     18313     18316
     18308     18307     18310     18311     18308     18307     18310     18312
     18308     18307     18310     18313     18309     18307     18310     18311
     18309     18307     18310     18312     18309     18307     18310     18313
     18310     18313     18316     18317     18310     18313     18316     18318
     18310     18313     18316     18319     18311     18310     18313     18314
     18311     18310     18313     18315     18311     18310     18313     18316
     18312     18310     18313     18314     18312     18310     18313     18315
     18312     18310     18313     18316     18313     18316     18319     18320
     18313     18316     18319     18321     18313     18316     18319     18322
     18314     18313     18316     18317     18314     18313     18316     18318
     18314     18313     18316     18319     18315     18313     18316     18317
     18315     18313     18316     18318     18315     18313     18316     18319
     18316     18319     18322     18323     18316     18319     18322     18324
     18316     18319     18322     18325     18317     18316     18319     18320
     18317     18316     18319     18321     18317     18316     18319     18322
     18318     18316     18319     18320     18318     18316     18319     18321
     18318     18316     18319     18322     18319     18322     18325     18326
     18319     18322     18325     18327     18319     18322     18325     18328
     18320     18319     18322     18323     18320     18319     18322     18324
     18320     18319     18322     18325     18321     18319     18322     18323
     18321     18319     18322     18324     18321     18319     18322     18325
     18322     18325     18328     18329     18322     18325     18328     18330
     18322     18325     18328     18331     18323     18322     18325     18326
     18323     18322     18325     18327     18323     18322     18325     18328
     18324     18322     18325     18326     18324     18322     18325     18327
     18324     18322     18325     18328     18326     18325     18328     18329
     18326     18325     18328     18330     18326     18325     18328     18331
     18327     18325     18328     18329     18327     18325     18328     18330
     18327     18325     18328     18331     18332     18335     18338     18339
     18332     18335     18338     18340     18332     18335     18338     18341
     18333     18332     18335     18336     18333     18332     18335     18337
     18333     18332     18335     18338     18334     18332     18335     18336
     18334     18332     18335     18337     18334     18332     18335     18338
     18335     18338     18341     18342     18335     18338     18341     18343
     18335     18338     18341     18344     18336     18335     18338     18339
     18336     18335     18338     18340     18336     18335     18338     18341
     18337     18335     18338     18339     18337     18335     18338     18340
     18337     18335     18338     18341     18338     18341     18344     18345
     18338     18341     18344     18346     18338     18341     18344     18347
     18339     18338     18341     18342     18339     18338     18341     18343
     18339     18338     18341     18344     18340     18338     18341     18342
     18340     18338     18341     18343     18340     18338     18341     18344
     18341     18344     18347     18348     18341     18344     18347     18349
     18341     18344     18347     18350     18342     18341     18344     18345
     18342     18341     18344     18346     18342     18341     18344     18347
     18343     18341     18344     18345     18343     18341     18344     18346
     18343     18341     18344     18347     18344     18347     18350     18351
     18344     18347     18350     18352     18344     18347     18350     18353
     18345     18344     18347     18348     18345     18344     18347     18349
     18345     18344     18347     18350     18346     18344     18347     18348
     18346     18344     18347     18349     18346     18344     18347     18350
     18347     18350     18353     18354     18347     18350     18353     18355
     18347     18350     18353     18356     18348     18347     18350     18351
     18348     18347     18350     18352     18348     18347     18350     18353
     18349     18347     18350     18351     18349     18347     18350     18352
     18349     18347     18350     18353     18350     18353     18356     18357
     18350     18353     18356     18358     18350     18353     18356     18359
     18351     18350     18353     18354     18351     18350     18353     18355
     18351     18350     18353     18356     18352     18350     18353     18354
     18352     18350     18353     18355     18352     18350     18353     18356
     18353     18356     18359     18360     18353     18356     18359     18361
     18353     18356     18359     18362     18354     18353     18356     18357
     18354     18353     18356     18358     18354     18353     18356     18359
     18355     18353     18356     18357     18355     18353     18356     18358
     18355     18353     18356     18359     18356     18359     18362     18363
     18356     18359     18362     18364     18356     18359     18362     18365
     18357     18356     18359     18360     18357     18356     18359     18361
     18357     18356     18359     18362     18358     18356     18359     18360
     18358     18356     18359     18361     18358     18356     18359     18362
     18359     18362     18365     18366     18359     18362     18365     18367
     18359     18362     18365     18368     18360     18359     18362     18363
     18360     18359     18362     18364     18360     18359     18362     18365
     18361     18359     18362     18363     18361     18359     18362     18364
     18361     18359     18362     18365     18362     18365     18368     18369
     18362     18365     18368     18370     18362     18365     18368     18371
     18363     18362     18365     18366     18363     18362     18365     18367
     18363     18362     18365     18368     18364     18362     18365     18366
     18364     18362     18365     18367     18364     18362     18365     18368
     18365     18368     18371     18372     18365     18368     18371     18373
     18365     18368     18371     18374     18366     18365     18368     18369
     18366     18365     18368     18370     18366     18365     18368     18371
     18367     18365     18368     18369     18367     18365     18368     18370
     18367     18365     18368     18371     18369     18368     18371     18372
     18369     18368     18371     18373     18369     18368     18371     18374
     18370     18368     18371     18372     18370     18368     18371     18373
     18370     18368     18371     18374     18375     18376     18391     18392
     18375     18376     18391     18393     18375     18376     18391     18397
     18376     18375     18379     18380     18376     18375     18379     18381
     18376     18375     18379     18382     18376     18375     18383     18384
     18376     18375     18383     18385     18376     18375     18383     18386
     18376     18375     18387     18388     18376     18375     18387     18389
     18376     18375     18387     18390     18376     18391     18397     18394
     18377     18376     18375     18379     18377     18376     18375     18383
     18377     18376     18375     18387     18377     18376     18391     18392
     18377     18376     18391     18393     18377     18376     18391     18397
     18378     18376     18375     18379     18378     18376     18375     18383
     18378     18376     18375     18387     18378     18376     18391     18392
     18378     18376     18391     18393     18378     18376     18391     18397
     18379     18375     18376     18391     18379     18375     18383     18384
     18379     18375     18383     18385     18379     18375     18383     18386
     18379     18375     18387     18388     18379     18375     18387     18389
     18379     18375     18387     18390     18380     18379     18375     18383
     18380     18379     18375     18387     18381     18379     18375     18383
     18381     18379     18375     18387     18382     18379     18375     18383
     18382     18379     18375     18387     18383     18375     18376     18391
     18383     18375     18387     18388     18383     18375     18387     18389
     18383     18375     18387     18390     18384     18383     18375     18387
     18385     18383     18375     18387     18386     18383     18375     18387
     18387     18375     18376     18391     18391     18397     18394     18395
     18391     18397     18394     18396     18391     18397     18394     18398
     18392     18391     18397     18394     18393     18391     18397     18394
     18394     18398     18399     18400     18394     18398     18399     18401
     18394     18398     18399     18402     18395     18394     18398     18399
     18396     18394     18398     18399     18397     18394     18398     18399
     18398     18399     18402     18403     18398     18399     18402     18404
     18398     18399     18402     18410     18399     18402     18404     18405
     18399     18402     18410     18411     18399     18402     18410     18412
     18399     18402     18410     18413     18400     18399     18402     18403
     18400     18399     18402     18404     18400     18399     18402     18410
     18401     18399     18402     18403     18401     18399     18402     18404
     18401     18399     18402     18410     18402     18404     18405     18406
     18402     18404     18405     18407     18402     18410     18413     18414
     18403     18402     18404     18405     18403     18402     18410     18411
     18403     18402     18410     18412     18403     18402     18410     18413
     18404     18402     18410     18411     18404     18402     18410     18412
     18404     18402     18410     18413     18404     18405     18407     18408
     18404     18405     18407     18409     18404     18405     18407     18419
     18405     18404     18402     18410     18405     18407     18419     18420
     18405     18407     18419     18421     18405     18407     18419     18422
     18406     18405     18407     18408     18406     18405     18407     18409
     18406     18405     18407     18419     18407     18419     18422     18423
     18407     18419     18422     18424     18407     18419     18422     18425
     18408     18407     18419     18420     18408     18407     18419     18421
     18408     18407     18419     18422     18409     18407     18419     18420
     18409     18407     18419     18421     18409     18407     18419     18422
     18410     18413     18414     18415     18410     18413     18414     18416
     18411     18410     18413     18414     18412     18410     18413     18414
     18413     18414     18416     18417     18413     18414     18416     18418
     18413     18414     18416     18466     18414     18416     18466     18467
     18414     18416     18466     18468     18414     18416     18466     18469
     18415     18414     18416     18417     18415     18414     18416     18418
     18415     18414     18416     18466     18416     18466     18469     18470
     18416     18466     18469     18471     18416     18466     18469     18472
     18417     18416     18466     18467     18417     18416     18466     18468
     18417     18416     18466     18469     18418     18416     18466     18467
     18418     18416     18466     18468     18418     18416     18466     18469
     18419     18422     18425     18426     18419     18422     18425     18427
     18419     18422     18425     18428     18420     18419     18422     18423
     18420     18419     18422     18424     18420     18419     18422     18425
     18421     18419     18422     18423     18421     18419     18422     18424
     18421     18419     18422     18425     18422     18425     18428     18429
     18422     18425     18428     18430     18422     18425     18428     18431
     18423     18422     18425     18426     18423     18422     18425     18427
     18423     18422     18425     18428     18424     18422     18425     18426
     18424     18422     18425     18427     18424     18422     18425     18428
     18425     18428     18431     18432     18425     18428     18431     18433
     18425     18428     18431     18434     18426     18425     18428     18429
     18426     18425     18428     18430     18426     18425     18428     18431
     18427     18425     18428     18429     18427     18425     18428     18430
     18427     18425     18428     18431     18428     18431     18434     18435
     18428     18431     18434     18436     18428     18431     18434     18437
     18429     18428     18431     18432     18429     18428     18431     18433
     18429     18428     18431     18434     18430     18428     18431     18432
     18430     18428     18431     18433     18430     18428     18431     18434
     18431     18434     18437     18438     18431     18434     18437     18439
     18432     18431     18434     18435     18432     18431     18434     18436
     18432     18431     18434     18437     18433     18431     18434     18435
     18433     18431     18434     18436     18433     18431     18434     18437
     18434     18437     18439     18440     18434     18437     18439     18441
     18435     18434     18437     18438     18435     18434     18437     18439
     18436     18434     18437     18438     18436     18434     18437     18439
     18437     18439     18441     18442     18437     18439     18441     18443
     18437     18439     18441     18444     18438     18437     18439     18440
     18438     18437     18439     18441     18439     18441     18444     18445
     18439     18441     18444     18446     18439     18441     18444     18447
     18440     18439     18441     18442     18440     18439     18441     18443
     18440     18439     18441     18444     18441     18444     18447     18448
     18441     18444     18447     18449     18441     18444     18447     18450
     18442     18441     18444     18445     18442     18441     18444     18446
     18442     18441     18444     18447     18443     18441     18444     18445
     18443     18441     18444     18446     18443     18441     18444     18447
     18444     18447     18450     18451     18444     18447     18450     18452
     18444     18447     18450     18453     18445     18444     18447     18448
     18445     18444     18447     18449     18445     18444     18447     18450
     18446     18444     18447     18448     18446     18444     18447     18449
     18446     18444     18447     18450     18447     18450     18453     18454
     18447     18450     18453     18455     18447     18450     18453     18456
     18448     18447     18450     18451     18448     18447     18450     18452
     18448     18447     18450     18453     18449     18447     18450     18451
     18449     18447     18450     18452     18449     18447     18450     18453
     18450     18453     18456     18457     18450     18453     18456     18458
     18450     18453     18456     18459     18451     18450     18453     18454
     18451     18450     18453     18455     18451     18450     18453     18456
     18452     18450     18453     18454     18452     18450     18453     18455
     18452     18450     18453     18456     18453     18456     18459     18460
     18453     18456     18459     18461     18453     18456     18459     18462
     18454     18453     18456     18457     18454     18453     18456     18458
     18454     18453     18456     18459     18455     18453     18456     18457
     18455     18453     18456     18458     18455     18453     18456     18459
     18456     18459     18462     18463     18456     18459     18462     18464
     18456     18459     18462     18465     18457     18456     18459     18460
     18457     18456     18459     18461     18457     18456     18459     18462
     18458     18456     18459     18460     18458     18456     18459     18461
     18458     18456     18459     18462     18460     18459     18462     18463
     18460     18459     18462     18464     18460     18459     18462     18465
     18461     18459     18462     18463     18461     18459     18462     18464
     18461     18459     18462     18465     18466     18469     18472     18473
     18466     18469     18472     18474     18466     18469     18472     18475
     18467     18466     18469     18470     18467     18466     18469     18471
     18467     18466     18469     18472     18468     18466     18469     18470
     18468     18466     18469     18471     18468     18466     18469     18472
     18469     18472     18475     18476     18469     18472     18475     18477
     18469     18472     18475     18478     18470     18469     18472     18473
     18470     18469     18472     18474     18470     18469     18472     18475
     18471     18469     18472     18473     18471     18469     18472     18474
     18471     18469     18472     18475     18472     18475     18478     18479
     18472     18475     18478     18480     18472     18475     18478     18481
     18473     18472     18475     18476     18473     18472     18475     18477
     18473     18472     18475     18478     18474     18472     18475     18476
     18474     18472     18475     18477     18474     18472     18475     18478
     18475     18478     18481     18482     18475     18478     18481     18483
     18475     18478     18481     18484     18476     18475     18478     18479
     18476     18475     18478     18480     18476     18475     18478     18481
     18477     18475     18478     18479     18477     18475     18478     18480
     18477     18475     18478     18481     18478     18481     18484     18485
     18478     18481     18484     18486     18478     18481     18484     18487
     18479     18478     18481     18482     18479     18478     18481     18483
     18479     18478     18481     18484     18480     18478     18481     18482
     18480     18478     18481     18483     18480     18478     18481     18484
     18481     18484     18487     18488     18481     18484     18487     18489
     18481     18484     18487     18490     18482     18481     18484     18485
     18482     18481     18484     18486     18482     18481     18484     18487
     18483     18481     18484     18485     18483     18481     18484     18486
     18483     18481     18484     18487     18484     18487     18490     18491
     18484     18487     18490     18492     18484     18487     18490     18493
     18485     18484     18487     18488     18485     18484     18487     18489
     18485     18484     18487     18490     18486     18484     18487     18488
     18486     18484     18487     18489     18486     18484     18487     18490
     18487     18490     18493     18494     18487     18490     18493     18495
     18487     18490     18493     18496     18488     18487     18490     18491
     18488     18487     18490     18492     18488     18487     18490     18493
     18489     18487     18490     18491     18489     18487     18490     18492
     18489     18487     18490     18493     18490     18493     18496     18497
     18490     18493     18496     18498     18490     18493     18496     18499
     18491     18490     18493     18494     18491     18490     18493     18495
     18491     18490     18493     18496     18492     18490     18493     18494
     18492     18490     18493     18495     18492     18490     18493     18496
     18493     18496     18499     18500     18493     18496     18499     18501
     18493     18496     18499     18502     18494     18493     18496     18497
     18494     18493     18496     18498     18494     18493     18496     18499
     18495     18493     18496     18497     18495     18493     18496     18498
     18495     18493     18496     18499     18496     18499     18502     18503
     18496     18499     18502     18504     18496     18499     18502     18505
     18497     18496     18499     18500     18497     18496     18499     18501
     18497     18496     18499     18502     18498     18496     18499     18500
     18498     18496     18499     18501     18498     18496     18499     18502
     18499     18502     18505     18506     18499     18502     18505     18507
     18499     18502     18505     18508     18500     18499     18502     18503
     18500     18499     18502     18504     18500     18499     18502     18505
     18501     18499     18502     18503     18501     18499     18502     18504
     18501     18499     18502     18505     18503     18502     18505     18506
     18503     18502     18505     18507     18503     18502     18505     18508
     18504     18502     18505     18506     18504     18502     18505     18507
     18504     18502     18505     18508     18509     18510     18525     18526
     18509     18510     18525     18527     18509     18510     18525     18531
     18510     18509     18513     18514     18510     18509     18513     18515
     18510     18509     18513     18516     18510     18509     18517     18518
     18510     18509     18517     18519     18510     18509     18517     18520
     18510     18509     18521     18522     18510     18509     18521     18523
     18510     18509     18521     18524     18510     18525     18531     18528
     18511     18510     18509     18513     18511     18510     18509     18517
     18511     18510     18509     18521     18511     18510     18525     18526
     18511     18510     18525     18527     18511     18510     18525     18531
     18512     18510     18509     18513     18512     18510     18509     18517
     18512     18510     18509     18521     18512     18510     18525     18526
     18512     18510     18525     18527     18512     18510     18525     18531
     18513     18509     18510     18525     18513     18509     18517     18518
     18513     18509     18517     18519     18513     18509     18517     18520
     18513     18509     18521     18522     18513     18509     18521     18523
     18513     18509     18521     18524     18514     18513     18509     18517
     18514     18513     18509     18521     18515     18513     18509     18517
     18515     18513     18509     18521     18516     18513     18509     18517
     18516     18513     18509     18521     18517     18509     18510     18525
     18517     18509     18521     18522     18517     18509     18521     18523
     18517     18509     18521     18524     18518     18517     18509     18521
     18519     18517     18509     18521     18520     18517     18509     18521
     18521     18509     18510     18525     18525     18531     18528     18529
     18525     18531     18528     18530     18525     18531     18528     18532
     18526     18525     18531     18528     18527     18525     18531     18528
     18528     18532     18533     18534     18528     18532     18533     18535
     18528     18532     18533     18536     18529     18528     18532     18533
     18530     18528     18532     18533     18531     18528     18532     18533
     18532     18533     18536     18537     18532     18533     18536     18538
     18532     18533     18536     18544     18533     18536     18538     18539
     18533     18536     18544     18545     18533     18536     18544     18546
     18533     18536     18544     18547     18534     18533     18536     18537
     18534     18533     18536     18538     18534     18533     18536     18544
     18535     18533     18536     18537     18535     18533     18536     18538
     18535     18533     18536     18544     18536     18538     18539     18540
     18536     18538     18539     18541     18536     18544     18547     18548
     18537     18536     18538     18539     18537     18536     18544     18545
     18537     18536     18544     18546     18537     18536     18544     18547
     18538     18536     18544     18545     18538     18536     18544     18546
     18538     18536     18544     18547     18538     18539     18541     18542
     18538     18539     18541     18543     18538     18539     18541     18553
     18539     18538     18536     18544     18539     18541     18553     18554
     18539     18541     18553     18555     18539     18541     18553     18556
     18540     18539     18541     18542     18540     18539     18541     18543
     18540     18539     18541     18553     18541     18553     18556     18557
     18541     18553     18556     18558     18541     18553     18556     18559
     18542     18541     18553     18554     18542     18541     18553     18555
     18542     18541     18553     18556     18543     18541     18553     18554
     18543     18541     18553     18555     18543     18541     18553     18556
     18544     18547     18548     18549     18544     18547     18548     18550
     18545     18544     18547     18548     18546     18544     18547     18548
     18547     18548     18550     18551     18547     18548     18550     18552
     18547     18548     18550     18600     18548     18550     18600     18601
     18548     18550     18600     18602     18548     18550     18600     18603
     18549     18548     18550     18551     18549     18548     18550     18552
     18549     18548     18550     18600     18550     18600     18603     18604
     18550     18600     18603     18605     18550     18600     18603     18606
     18551     18550     18600     18601     18551     18550     18600     18602
     18551     18550     18600     18603     18552     18550     18600     18601
     18552     18550     18600     18602     18552     18550     18600     18603
     18553     18556     18559     18560     18553     18556     18559     18561
     18553     18556     18559     18562     18554     18553     18556     18557
     18554     18553     18556     18558     18554     18553     18556     18559
     18555     18553     18556     18557     18555     18553     18556     18558
     18555     18553     18556     18559     18556     18559     18562     18563
     18556     18559     18562     18564     18556     18559     18562     18565
     18557     18556     18559     18560     18557     18556     18559     18561
     18557     18556     18559     18562     18558     18556     18559     18560
     18558     18556     18559     18561     18558     18556     18559     18562
     18559     18562     18565     18566     18559     18562     18565     18567
     18559     18562     18565     18568     18560     18559     18562     18563
     18560     18559     18562     18564     18560     18559     18562     18565
     18561     18559     18562     18563     18561     18559     18562     18564
     18561     18559     18562     18565     18562     18565     18568     18569
     18562     18565     18568     18570     18562     18565     18568     18571
     18563     18562     18565     18566     18563     18562     18565     18567
     18563     18562     18565     18568     18564     18562     18565     18566
     18564     18562     18565     18567     18564     18562     18565     18568
     18565     18568     18571     18572     18565     18568     18571     18573
     18566     18565     18568     18569     18566     18565     18568     18570
     18566     18565     18568     18571     18567     18565     18568     18569
     18567     18565     18568     18570     18567     18565     18568     18571
     18568     18571     18573     18574     18568     18571     18573     18575
     18569     18568     18571     18572     18569     18568     18571     18573
     18570     18568     18571     18572     18570     18568     18571     18573
     18571     18573     18575     18576     18571     18573     18575     18577
     18571     18573     18575     18578     18572     18571     18573     18574
     18572     18571     18573     18575     18573     18575     18578     18579
     18573     18575     18578     18580     18573     18575     18578     18581
     18574     18573     18575     18576     18574     18573     18575     18577
     18574     18573     18575     18578     18575     18578     18581     18582
     18575     18578     18581     18583     18575     18578     18581     18584
     18576     18575     18578     18579     18576     18575     18578     18580
     18576     18575     18578     18581     18577     18575     18578     18579
     18577     18575     18578     18580     18577     18575     18578     18581
     18578     18581     18584     18585     18578     18581     18584     18586
     18578     18581     18584     18587     18579     18578     18581     18582
     18579     18578     18581     18583     18579     18578     18581     18584
     18580     18578     18581     18582     18580     18578     18581     18583
     18580     18578     18581     18584     18581     18584     18587     18588
     18581     18584     18587     18589     18581     18584     18587     18590
     18582     18581     18584     18585     18582     18581     18584     18586
     18582     18581     18584     18587     18583     18581     18584     18585
     18583     18581     18584     18586     18583     18581     18584     18587
     18584     18587     18590     18591     18584     18587     18590     18592
     18584     18587     18590     18593     18585     18584     18587     18588
     18585     18584     18587     18589     18585     18584     18587     18590
     18586     18584     18587     18588     18586     18584     18587     18589
     18586     18584     18587     18590     18587     18590     18593     18594
     18587     18590     18593     18595     18587     18590     18593     18596
     18588     18587     18590     18591     18588     18587     18590     18592
     18588     18587     18590     18593     18589     18587     18590     18591
     18589     18587     18590     18592     18589     18587     18590     18593
     18590     18593     18596     18597     18590     18593     18596     18598
     18590     18593     18596     18599     18591     18590     18593     18594
     18591     18590     18593     18595     18591     18590     18593     18596
     18592     18590     18593     18594     18592     18590     18593     18595
     18592     18590     18593     18596     18594     18593     18596     18597
     18594     18593     18596     18598     18594     18593     18596     18599
     18595     18593     18596     18597     18595     18593     18596     18598
     18595     18593     18596     18599     18600     18603     18606     18607
     18600     18603     18606     18608     18600     18603     18606     18609
     18601     18600     18603     18604     18601     18600     18603     18605
     18601     18600     18603     18606     18602     18600     18603     18604
     18602     18600     18603     18605     18602     18600     18603     18606
     18603     18606     18609     18610     18603     18606     18609     18611
     18603     18606     18609     18612     18604     18603     18606     18607
     18604     18603     18606     18608     18604     18603     18606     18609
     18605     18603     18606     18607     18605     18603     18606     18608
     18605     18603     18606     18609     18606     18609     18612     18613
     18606     18609     18612     18614     18606     18609     18612     18615
     18607     18606     18609     18610     18607     18606     18609     18611
     18607     18606     18609     18612     18608     18606     18609     18610
     18608     18606     18609     18611     18608     18606     18609     18612
     18609     18612     18615     18616     18609     18612     18615     18617
     18609     18612     18615     18618     18610     18609     18612     18613
     18610     18609     18612     18614     18610     18609     18612     18615
     18611     18609     18612     18613     18611     18609     18612     18614
     18611     18609     18612     18615     18612     18615     18618     18619
     18612     18615     18618     18620     18612     18615     18618     18621
     18613     18612     18615     18616     18613     18612     18615     18617
     18613     18612     18615     18618     18614     18612     18615     18616
     18614     18612     18615     18617     18614     18612     18615     18618
     18615     18618     18621     18622     18615     18618     18621     18623
     18615     18618     18621     18624     18616     18615     18618     18619
     18616     18615     18618     18620     18616     18615     18618     18621
     18617     18615     18618     18619     18617     18615     18618     18620
     18617     18615     18618     18621     18618     18621     18624     18625
     18618     18621     18624     18626     18618     18621     18624     18627
     18619     18618     18621     18622     18619     18618     18621     18623
     18619     18618     18621     18624     18620     18618     18621     18622
     18620     18618     18621     18623     18620     18618     18621     18624
     18621     18624     18627     18628     18621     18624     18627     18629
     18621     18624     18627     18630     18622     18621     18624     18625
     18622     18621     18624     18626     18622     18621     18624     18627
     18623     18621     18624     18625     18623     18621     18624     18626
     18623     18621     18624     18627     18624     18627     18630     18631
     18624     18627     18630     18632     18624     18627     18630     18633
     18625     18624     18627     18628     18625     18624     18627     18629
     18625     18624     18627     18630     18626     18624     18627     18628
     18626     18624     18627     18629     18626     18624     18627     18630
     18627     18630     18633     18634     18627     18630     18633     18635
     18627     18630     18633     18636     18628     18627     18630     18631
     18628     18627     18630     18632     18628     18627     18630     18633
     18629     18627     18630     18631     18629     18627     18630     18632
     18629     18627     18630     18633     18630     18633     18636     18637
     18630     18633     18636     18638     18630     18633     18636     18639
     18631     18630     18633     18634     18631     18630     18633     18635
     18631     18630     18633     18636     18632     18630     18633     18634
     18632     18630     18633     18635     18632     18630     18633     18636
     18633     18636     18639     18640     18633     18636     18639     18641
     18633     18636     18639     18642     18634     18633     18636     18637
     18634     18633     18636     18638     18634     18633     18636     18639
     18635     18633     18636     18637     18635     18633     18636     18638
     18635     18633     18636     18639     18637     18636     18639     18640
     18637     18636     18639     18641     18637     18636     18639     18642
     18638     18636     18639     18640     18638     18636     18639     18641
     18638     18636     18639     18642     18643     18644     18659     18660
     18643     18644     18659     18661     18643     18644     18659     18665
     18644     18643     18647     18648     18644     18643     18647     18649
     18644     18643     18647     18650     18644     18643     18651     18652
     18644     18643     18651     18653     18644     18643     18651     18654
     18644     18643     18655     18656     18644     18643     18655     18657
     18644     18643     18655     18658     18644     18659     18665     18662
     18645     18644     18643     18647     18645     18644     18643     18651
     18645     18644     18643     18655     18645     18644     18659     18660
     18645     18644     18659     18661     18645     18644     18659     18665
     18646     18644     18643     18647     18646     18644     18643     18651
     18646     18644     18643     18655     18646     18644     18659     18660
     18646     18644     18659     18661     18646     18644     18659     18665
     18647     18643     18644     18659     18647     18643     18651     18652
     18647     18643     18651     18653     18647     18643     18651     18654
     18647     18643     18655     18656     18647     18643     18655     18657
     18647     18643     18655     18658     18648     18647     18643     18651
     18648     18647     18643     18655     18649     18647     18643     18651
     18649     18647     18643     18655     18650     18647     18643     18651
     18650     18647     18643     18655     18651     18643     18644     18659
     18651     18643     18655     18656     18651     18643     18655     18657
     18651     18643     18655     18658     18652     18651     18643     18655
     18653     18651     18643     18655     18654     18651     18643     18655
     18655     18643     18644     18659     18659     18665     18662     18663
     18659     18665     18662     18664     18659     18665     18662     18666
     18660     18659     18665     18662     18661     18659     18665     18662
     18662     18666     18667     18668     18662     18666     18667     18669
     18662     18666     18667     18670     18663     18662     18666     18667
     18664     18662     18666     18667     18665     18662     18666     18667
     18666     18667     18670     18671     18666     18667     18670     18672
     18666     18667     18670     18678     18667     18670     18672     18673
     18667     18670     18678     18679     18667     18670     18678     18680
     18667     18670     18678     18681     18668     18667     18670     18671
     18668     18667     18670     18672     18668     18667     18670     18678
     18669     18667     18670     18671     18669     18667     18670     18672
     18669     18667     18670     18678     18670     18672     18673     18674
     18670     18672     18673     18675     18670     18678     18681     18682
     18671     18670     18672     18673     18671     18670     18678     18679
     18671     18670     18678     18680     18671     18670     18678     18681
     18672     18670     18678     18679     18672     18670     18678     18680
     18672     18670     18678     18681     18672     18673     18675     18676
     18672     18673     18675     18677     18672     18673     18675     18687
     18673     18672     18670     18678     18673     18675     18687     18688
     18673     18675     18687     18689     18673     18675     18687     18690
     18674     18673     18675     18676     18674     18673     18675     18677
     18674     18673     18675     18687     18675     18687     18690     18691
     18675     18687     18690     18692     18675     18687     18690     18693
     18676     18675     18687     18688     18676     18675     18687     18689
     18676     18675     18687     18690     18677     18675     18687     18688
     18677     18675     18687     18689     18677     18675     18687     18690
     18678     18681     18682     18683     18678     18681     18682     18684
     18679     18678     18681     18682     18680     18678     18681     18682
     18681     18682     18684     18685     18681     18682     18684     18686
     18681     18682     18684     18734     18682     18684     18734     18735
     18682     18684     18734     18736     18682     18684     18734     18737
     18683     18682     18684     18685     18683     18682     18684     18686
     18683     18682     18684     18734     18684     18734     18737     18738
     18684     18734     18737     18739     18684     18734     18737     18740
     18685     18684     18734     18735     18685     18684     18734     18736
     18685     18684     18734     18737     18686     18684     18734     18735
     18686     18684     18734     18736     18686     18684     18734     18737
     18687     18690     18693     18694     18687     18690     18693     18695
     18687     18690     18693     18696     18688     18687     18690     18691
     18688     18687     18690     18692     18688     18687     18690     18693
     18689     18687     18690     18691     18689     18687     18690     18692
     18689     18687     18690     18693     18690     18693     18696     18697
     18690     18693     18696     18698     18690     18693     18696     18699
     18691     18690     18693     18694     18691     18690     18693     18695
     18691     18690     18693     18696     18692     18690     18693     18694
     18692     18690     18693     18695     18692     18690     18693     18696
     18693     18696     18699     18700     18693     18696     18699     18701
     18693     18696     18699     18702     18694     18693     18696     18697
     18694     18693     18696     18698     18694     18693     18696     18699
     18695     18693     18696     18697     18695     18693     18696     18698
     18695     18693     18696     18699     18696     18699     18702     18703
     18696     18699     18702     18704     18696     18699     18702     18705
     18697     18696     18699     18700     18697     18696     18699     18701
     18697     18696     18699     18702     18698     18696     18699     18700
     18698     18696     18699     18701     18698     18696     18699     18702
     18699     18702     18705     18706     18699     18702     18705     18707
     18700     18699     18702     18703     18700     18699     18702     18704
     18700     18699     18702     18705     18701     18699     18702     18703
     18701     18699     18702     18704     18701     18699     18702     18705
     18702     18705     18707     18708     18702     18705     18707     18709
     18703     18702     18705     18706     18703     18702     18705     18707
     18704     18702     18705     18706     18704     18702     18705     18707
     18705     18707     18709     18710     18705     18707     18709     18711
     18705     18707     18709     18712     18706     18705     18707     18708
     18706     18705     18707     18709     18707     18709     18712     18713
     18707     18709     18712     18714     18707     18709     18712     18715
     18708     18707     18709     18710     18708     18707     18709     18711
     18708     18707     18709     18712     18709     18712     18715     18716
     18709     18712     18715     18717     18709     18712     18715     18718
     18710     18709     18712     18713     18710     18709     18712     18714
     18710     18709     18712     18715     18711     18709     18712     18713
     18711     18709     18712     18714     18711     18709     18712     18715
     18712     18715     18718     18719     18712     18715     18718     18720
     18712     18715     18718     18721     18713     18712     18715     18716
     18713     18712     18715     18717     18713     18712     18715     18718
     18714     18712     18715     18716     18714     18712     18715     18717
     18714     18712     18715     18718     18715     18718     18721     18722
     18715     18718     18721     18723     18715     18718     18721     18724
     18716     18715     18718     18719     18716     18715     18718     18720
     18716     18715     18718     18721     18717     18715     18718     18719
     18717     18715     18718     18720     18717     18715     18718     18721
     18718     18721     18724     18725     18718     18721     18724     18726
     18718     18721     18724     18727     18719     18718     18721     18722
     18719     18718     18721     18723     18719     18718     18721     18724
     18720     18718     18721     18722     18720     18718     18721     18723
     18720     18718     18721     18724     18721     18724     18727     18728
     18721     18724     18727     18729     18721     18724     18727     18730
     18722     18721     18724     18725     18722     18721     18724     18726
     18722     18721     18724     18727     18723     18721     18724     18725
     18723     18721     18724     18726     18723     18721     18724     18727
     18724     18727     18730     18731     18724     18727     18730     18732
     18724     18727     18730     18733     18725     18724     18727     18728
     18725     18724     18727     18729     18725     18724     18727     18730
     18726     18724     18727     18728     18726     18724     18727     18729
     18726     18724     18727     18730     18728     18727     18730     18731
     18728     18727     18730     18732     18728     18727     18730     18733
     18729     18727     18730     18731     18729     18727     18730     18732
     18729     18727     18730     18733     18734     18737     18740     18741
     18734     18737     18740     18742     18734     18737     18740     18743
     18735     18734     18737     18738     18735     18734     18737     18739
     18735     18734     18737     18740     18736     18734     18737     18738
     18736     18734     18737     18739     18736     18734     18737     18740
     18737     18740     18743     18744     18737     18740     18743     18745
     18737     18740     18743     18746     18738     18737     18740     18741
     18738     18737     18740     18742     18738     18737     18740     18743
     18739     18737     18740     18741     18739     18737     18740     18742
     18739     18737     18740     18743     18740     18743     18746     18747
     18740     18743     18746     18748     18740     18743     18746     18749
     18741     18740     18743     18744     18741     18740     18743     18745
     18741     18740     18743     18746     18742     18740     18743     18744
     18742     18740     18743     18745     18742     18740     18743     18746
     18743     18746     18749     18750     18743     18746     18749     18751
     18743     18746     18749     18752     18744     18743     18746     18747
     18744     18743     18746     18748     18744     18743     18746     18749
     18745     18743     18746     18747     18745     18743     18746     18748
     18745     18743     18746     18749     18746     18749     18752     18753
     18746     18749     18752     18754     18746     18749     18752     18755
     18747     18746     18749     18750     18747     18746     18749     18751
     18747     18746     18749     18752     18748     18746     18749     18750
     18748     18746     18749     18751     18748     18746     18749     18752
     18749     18752     18755     18756     18749     18752     18755     18757
     18749     18752     18755     18758     18750     18749     18752     18753
     18750     18749     18752     18754     18750     18749     18752     18755
     18751     18749     18752     18753     18751     18749     18752     18754
     18751     18749     18752     18755     18752     18755     18758     18759
     18752     18755     18758     18760     18752     18755     18758     18761
     18753     18752     18755     18756     18753     18752     18755     18757
     18753     18752     18755     18758     18754     18752     18755     18756
     18754     18752     18755     18757     18754     18752     18755     18758
     18755     18758     18761     18762     18755     18758     18761     18763
     18755     18758     18761     18764     18756     18755     18758     18759
     18756     18755     18758     18760     18756     18755     18758     18761
     18757     18755     18758     18759     18757     18755     18758     18760
     18757     18755     18758     18761     18758     18761     18764     18765
     18758     18761     18764     18766     18758     18761     18764     18767
     18759     18758     18761     18762     18759     18758     18761     18763
     18759     18758     18761     18764     18760     18758     18761     18762
     18760     18758     18761     18763     18760     18758     18761     18764
     18761     18764     18767     18768     18761     18764     18767     18769
     18761     18764     18767     18770     18762     18761     18764     18765
     18762     18761     18764     18766     18762     18761     18764     18767
     18763     18761     18764     18765     18763     18761     18764     18766
     18763     18761     18764     18767     18764     18767     18770     18771
     18764     18767     18770     18772     18764     18767     18770     18773
     18765     18764     18767     18768     18765     18764     18767     18769
     18765     18764     18767     18770     18766     18764     18767     18768
     18766     18764     18767     18769     18766     18764     18767     18770
     18767     18770     18773     18774     18767     18770     18773     18775
     18767     18770     18773     18776     18768     18767     18770     18771
     18768     18767     18770     18772     18768     18767     18770     18773
     18769     18767     18770     18771     18769     18767     18770     18772
     18769     18767     18770     18773     18771     18770     18773     18774
     18771     18770     18773     18775     18771     18770     18773     18776
     18772     18770     18773     18774     18772     18770     18773     18775
     18772     18770     18773     18776     18777     18781     18784     18785
     18777     18781     18784     18815     18777     18823     18820     18815
     18777     18823     18820     18821     18777     18823     18820     18822
     18778     18777     18779     18780     18778     18777     18781     18782
     18778     18777     18781     18783     18778     18777     18781     18784
     18778     18777     18823     18820     18778     18777     18823     18824
     18778     18777     18823     18825     18779     18777     18781     18782
     18779     18777     18781     18783     18779     18777     18781     18784
     18779     18777     18823     18820     18779     18777     18823     18824
     18779     18777     18823     18825     18780     18779     18777     18781
     18780     18779     18777     18823     18781     18777     18823     18820
     18781     18777     18823     18824     18781     18777     18823     18825
     18781     18784     18785     18786     18781     18784     18785     18787
     18781     18784     18815     18813     18781     18784     18815     18816
     18781     18784     18815     18820     18782     18781     18777     18823
     18782     18781     18784     18785     18782     18781     18784     18815
     18783     18781     18777     18823     18783     18781     18784     18785
     18783     18781     18784     18815     18784     18781     18777     18823
     18784     18785     18787     18788     18784     18785     18787     18789
     18784     18785     18787     18790     18784     18815     18813     18790
     18784     18815     18813     18810     18784     18815     18813     18814
     18784     18815     18816     18817     18784     18815     18816     18818
     18784     18815     18816     18819     18784     18815     18820     18821
     18784     18815     18820     18822     18784     18815     18820     18823
     18785     18784     18815     18813     18785     18784     18815     18816
     18785     18784     18815     18820     18785     18787     18790     18791
     18785     18787     18790     18792     18785     18787     18790     18813
     18786     18785     18784     18815     18786     18785     18787     18788
     18786     18785     18787     18789     18786     18785     18787     18790
     18787     18785     18784     18815     18787     18790     18792     18793
     18787     18790     18792     18794     18787     18790     18792     18802
     18787     18790     18813     18810     18787     18790     18813     18814
     18787     18790     18813     18815     18788     18787     18790     18791
     18788     18787     18790     18792     18788     18787     18790     18813
     18789     18787     18790     18791     18789     18787     18790     18792
     18789     18787     18790     18813     18790     18792     18794     18795
     18790     18792     18794     18796     18790     18792     18794     18797
     18790     18792     18802     18800     18790     18792     18802     18803
     18790     18792     18802     18807     18790     18813     18810     18807
     18790     18813     18810     18811     18790     18813     18810     18812
     18790     18813     18815     18816     18790     18813     18815     18820
     18791     18790     18792     18793     18791     18790     18792     18794
     18791     18790     18792     18802     18791     18790     18813     18810
     18791     18790     18813     18814     18791     18790     18813     18815
     18792     18790     18813     18810     18792     18790     18813     18814
     18792     18790     18813     18815     18792     18794     18797     18798
     18792     18794     18797     18799     18792     18794     18797     18800
     18792     18802     18800     18797     18792     18802     18800     18801
     18792     18802     18800     18826     18792     18802     18803     18804
     18792     18802     18803     18805     18792     18802     18803     18806
     18792     18802     18807     18808     18792     18802     18807     18809
     18792     18802     18807     18810     18793     18792     18790     18813
     18793     18792     18794     18795     18793     18792     18794     18796
     18793     18792     18794     18797     18793     18792     18802     18800
     18793     18792     18802     18803     18793     18792     18802     18807
     18794     18792     18790     18813     18794     18792     18802     18800
     18794     18792     18802     18803     18794     18792     18802     18807
     18794     18797     18800     18801     18794     18797     18800     18802
     18794     18797     18800     18826     18795     18794     18792     18802
     18795     18794     18797     18798     18795     18794     18797     18799
     18795     18794     18797     18800     18796     18794     18792     18802
     18796     18794     18797     18798     18796     18794     18797     18799
     18796     18794     18797     18800     18797     18794     18792     18802
     18797     18800     18802     18803     18797     18800     18802     18807
     18797     18800     18826     18827     18797     18800     18826     18828
     18797     18800     18826     18832     18798     18797     18800     18801
     18798     18797     18800     18802     18798     18797     18800     18826
     18799     18797     18800     18801     18799     18797     18800     18802
     18799     18797     18800     18826     18800     18802     18803     18804
     18800     18802     18803     18805     18800     18802     18803     18806
     18800     18802     18807     18808     18800     18802     18807     18809
     18800     18802     18807     18810     18800     18826     18828     18829
     18800     18826     18828     18830     18800     18826     18828     18831
     18800     18826     18832     18833     18800     18826     18832     18834
     18800     18826     18832     18835     18801     18800     18802     18803
     18801     18800     18802     18807     18801     18800     18826     18827
     18801     18800     18826     18828     18801     18800     18826     18832
     18802     18792     18790     18813     18802     18800     18826     18827
     18802     18800     18826     18828     18802     18800     18826     18832
     18802     18807     18810     18811     18802     18807     18810     18812
     18802     18807     18810     18813     18803     18802     18800     18826
     18803     18802     18807     18808     18803     18802     18807     18809
     18803     18802     18807     18810     18804     18803     18802     18807
     18805     18803     18802     18807     18806     18803     18802     18807
     18807     18802     18800     18826     18807     18810     18813     18814
     18807     18810     18813     18815     18808     18807     18810     18811
     18808     18807     18810     18812     18808     18807     18810     18813
     18809     18807     18810     18811     18809     18807     18810     18812
     18809     18807     18810     18813     18810     18813     18815     18816
     18810     18813     18815     18820     18811     18810     18813     18814
     18811     18810     18813     18815     18812     18810     18813     18814
     18812     18810     18813     18815     18813     18815     18816     18817
     18813     18815     18816     18818     18813     18815     18816     18819
     18813     18815     18820     18821     18813     18815     18820     18822
     18813     18815     18820     18823     18814     18813     18815     18816
     18814     18813     18815     18820     18815     18820     18823     18824
     18815     18820     18823     18825     18816     18815     18820     18821
     18816     18815     18820     18822     18816     18815     18820     18823
     18817     18816     18815     18820     18818     18816     18815     18820
     18819     18816     18815     18820     18821     18820     18823     18824
     18821     18820     18823     18825     18822     18820     18823     18824
     18822     18820     18823     18825     18826     18832     18835     18836
     18826     18832     18835     18837     18826     18832     18835     18838
     18827     18826     18828     18829     18827     18826     18828     18830
     18827     18826     18828     18831     18827     18826     18832     18833
     18827     18826     18832     18834     18827     18826     18832     18835
     18828     18826     18832     18833     18828     18826     18832     18834
     18828     18826     18832     18835     18829     18828     18826     18832
     18830     18828     18826     18832     18831     18828     18826     18832
     18832     18835     18838     18839     18832     18835     18838     18840
     18832     18835     18838     18841     18833     18832     18835     18836
     18833     18832     18835     18837     18833     18832     18835     18838
     18834     18832     18835     18836     18834     18832     18835     18837
     18834     18832     18835     18838     18835     18838     18841     18842
     18835     18838     18841     18843     18835     18838     18841     18847
     18836     18835     18838     18839     18836     18835     18838     18840
     18836     18835     18838     18841     18837     18835     18838     18839
     18837     18835     18838     18840     18837     18835     18838     18841
     18838     18841     18843     18844     18838     18841     18843     18845
     18838     18841     18843     18846     18838     18841     18847     18848
     18838     18841     18847     18849     18838     18841     18847     18850
     18839     18838     18841     18842     18839     18838     18841     18843
     18839     18838     18841     18847     18840     18838     18841     18842
     18840     18838     18841     18843     18840     18838     18841     18847
     18842     18841     18843     18844     18842     18841     18843     18845
     18842     18841     18843     18846     18842     18841     18847     18848
     18842     18841     18847     18849     18842     18841     18847     18850
     18843     18841     18847     18848     18843     18841     18847     18849
     18843     18841     18847     18850     18844     18843     18841     18847
     18845     18843     18841     18847     18846     18843     18841     18847
     18851     18855     18858     18859     18851     18855     18858     18889
     18851     18897     18894     18889     18851     18897     18894     18895
     18851     18897     18894     18896     18852     18851     18853     18854
     18852     18851     18855     18856     18852     18851     18855     18857
     18852     18851     18855     18858     18852     18851     18897     18894
     18852     18851     18897     18898     18852     18851     18897     18899
     18853     18851     18855     18856     18853     18851     18855     18857
     18853     18851     18855     18858     18853     18851     18897     18894
     18853     18851     18897     18898     18853     18851     18897     18899
     18854     18853     18851     18855     18854     18853     18851     18897
     18855     18851     18897     18894     18855     18851     18897     18898
     18855     18851     18897     18899     18855     18858     18859     18860
     18855     18858     18859     18861     18855     18858     18889     18887
     18855     18858     18889     18890     18855     18858     18889     18894
     18856     18855     18851     18897     18856     18855     18858     18859
     18856     18855     18858     18889     18857     18855     18851     18897
     18857     18855     18858     18859     18857     18855     18858     18889
     18858     18855     18851     18897     18858     18859     18861     18862
     18858     18859     18861     18863     18858     18859     18861     18864
     18858     18889     18887     18864     18858     18889     18887     18884
     18858     18889     18887     18888     18858     18889     18890     18891
     18858     18889     18890     18892     18858     18889     18890     18893
     18858     18889     18894     18895     18858     18889     18894     18896
     18858     18889     18894     18897     18859     18858     18889     18887
     18859     18858     18889     18890     18859     18858     18889     18894
     18859     18861     18864     18865     18859     18861     18864     18866
     18859     18861     18864     18887     18860     18859     18858     18889
     18860     18859     18861     18862     18860     18859     18861     18863
     18860     18859     18861     18864     18861     18859     18858     18889
     18861     18864     18866     18867     18861     18864     18866     18868
     18861     18864     18866     18876     18861     18864     18887     18884
     18861     18864     18887     18888     18861     18864     18887     18889
     18862     18861     18864     18865     18862     18861     18864     18866
     18862     18861     18864     18887     18863     18861     18864     18865
     18863     18861     18864     18866     18863     18861     18864     18887
     18864     18866     18868     18869     18864     18866     18868     18870
     18864     18866     18868     18871     18864     18866     18876     18874
     18864     18866     18876     18877     18864     18866     18876     18881
     18864     18887     18884     18881     18864     18887     18884     18885
     18864     18887     18884     18886     18864     18887     18889     18890
     18864     18887     18889     18894     18865     18864     18866     18867
     18865     18864     18866     18868     18865     18864     18866     18876
     18865     18864     18887     18884     18865     18864     18887     18888
     18865     18864     18887     18889     18866     18864     18887     18884
     18866     18864     18887     18888     18866     18864     18887     18889
     18866     18868     18871     18872     18866     18868     18871     18873
     18866     18868     18871     18874     18866     18876     18874     18871
     18866     18876     18874     18875     18866     18876     18874     18900
     18866     18876     18877     18878     18866     18876     18877     18879
     18866     18876     18877     18880     18866     18876     18881     18882
     18866     18876     18881     18883     18866     18876     18881     18884
     18867     18866     18864     18887     18867     18866     18868     18869
     18867     18866     18868     18870     18867     18866     18868     18871
     18867     18866     18876     18874     18867     18866     18876     18877
     18867     18866     18876     18881     18868     18866     18864     18887
     18868     18866     18876     18874     18868     18866     18876     18877
     18868     18866     18876     18881     18868     18871     18874     18875
     18868     18871     18874     18876     18868     18871     18874     18900
     18869     18868     18866     18876     18869     18868     18871     18872
     18869     18868     18871     18873     18869     18868     18871     18874
     18870     18868     18866     18876     18870     18868     18871     18872
     18870     18868     18871     18873     18870     18868     18871     18874
     18871     18868     18866     18876     18871     18874     18876     18877
     18871     18874     18876     18881     18871     18874     18900     18901
     18871     18874     18900     18902     18871     18874     18900     18906
     18872     18871     18874     18875     18872     18871     18874     18876
     18872     18871     18874     18900     18873     18871     18874     18875
     18873     18871     18874     18876     18873     18871     18874     18900
     18874     18876     18877     18878     18874     18876     18877     18879
     18874     18876     18877     18880     18874     18876     18881     18882
     18874     18876     18881     18883     18874     18876     18881     18884
     18874     18900     18902     18903     18874     18900     18902     18904
     18874     18900     18902     18905     18874     18900     18906     18907
     18874     18900     18906     18908     18874     18900     18906     18909
     18875     18874     18876     18877     18875     18874     18876     18881
     18875     18874     18900     18901     18875     18874     18900     18902
     18875     18874     18900     18906     18876     18866     18864     18887
     18876     18874     18900     18901     18876     18874     18900     18902
     18876     18874     18900     18906     18876     18881     18884     18885
     18876     18881     18884     18886     18876     18881     18884     18887
     18877     18876     18874     18900     18877     18876     18881     18882
     18877     18876     18881     18883     18877     18876     18881     18884
     18878     18877     18876     18881     18879     18877     18876     18881
     18880     18877     18876     18881     18881     18876     18874     18900
     18881     18884     18887     18888     18881     18884     18887     18889
     18882     18881     18884     18885     18882     18881     18884     18886
     18882     18881     18884     18887     18883     18881     18884     18885
     18883     18881     18884     18886     18883     18881     18884     18887
     18884     18887     18889     18890     18884     18887     18889     18894
     18885     18884     18887     18888     18885     18884     18887     18889
     18886     18884     18887     18888     18886     18884     18887     18889
     18887     18889     18890     18891     18887     18889     18890     18892
     18887     18889     18890     18893     18887     18889     18894     18895
     18887     18889     18894     18896     18887     18889     18894     18897
     18888     18887     18889     18890     18888     18887     18889     18894
     18889     18894     18897     18898     18889     18894     18897     18899
     18890     18889     18894     18895     18890     18889     18894     18896
     18890     18889     18894     18897     18891     18890     18889     18894
     18892     18890     18889     18894     18893     18890     18889     18894
     18895     18894     18897     18898     18895     18894     18897     18899
     18896     18894     18897     18898     18896     18894     18897     18899
     18900     18906     18909     18910     18900     18906     18909     18911
     18900     18906     18909     18912     18901     18900     18902     18903
     18901     18900     18902     18904     18901     18900     18902     18905
     18901     18900     18906     18907     18901     18900     18906     18908
     18901     18900     18906     18909     18902     18900     18906     18907
     18902     18900     18906     18908     18902     18900     18906     18909
     18903     18902     18900     18906     18904     18902     18900     18906
     18905     18902     18900     18906     18906     18909     18912     18913
     18906     18909     18912     18914     18906     18909     18912     18915
     18907     18906     18909     18910     18907     18906     18909     18911
     18907     18906     18909     18912     18908     18906     18909     18910
     18908     18906     18909     18911     18908     18906     18909     18912
     18909     18912     18915     18916     18909     18912     18915     18917
     18909     18912     18915     18921     18910     18909     18912     18913
     18910     18909     18912     18914     18910     18909     18912     18915
     18911     18909     18912     18913     18911     18909     18912     18914
     18911     18909     18912     18915     18912     18915     18917     18918
     18912     18915     18917     18919     18912     18915     18917     18920
     18912     18915     18921     18922     18912     18915     18921     18923
     18912     18915     18921     18924     18913     18912     18915     18916
     18913     18912     18915     18917     18913     18912     18915     18921
     18914     18912     18915     18916     18914     18912     18915     18917
     18914     18912     18915     18921     18916     18915     18917     18918
     18916     18915     18917     18919     18916     18915     18917     18920
     18916     18915     18921     18922     18916     18915     18921     18923
     18916     18915     18921     18924     18917     18915     18921     18922
     18917     18915     18921     18923     18917     18915     18921     18924
     18918     18917     18915     18921     18919     18917     18915     18921
     18920     18917     18915     18921     18925     18929     18932     18933
     18925     18929     18932     18963     18925     18971     18968     18963
     18925     18971     18968     18969     18925     18971     18968     18970
     18926     18925     18927     18928     18926     18925     18929     18930
     18926     18925     18929     18931     18926     18925     18929     18932
     18926     18925     18971     18968     18926     18925     18971     18972
     18926     18925     18971     18973     18927     18925     18929     18930
     18927     18925     18929     18931     18927     18925     18929     18932
     18927     18925     18971     18968     18927     18925     18971     18972
     18927     18925     18971     18973     18928     18927     18925     18929
     18928     18927     18925     18971     18929     18925     18971     18968
     18929     18925     18971     18972     18929     18925     18971     18973
     18929     18932     18933     18934     18929     18932     18933     18935
     18929     18932     18963     18961     18929     18932     18963     18964
     18929     18932     18963     18968     18930     18929     18925     18971
     18930     18929     18932     18933     18930     18929     18932     18963
     18931     18929     18925     18971     18931     18929     18932     18933
     18931     18929     18932     18963     18932     18929     18925     18971
     18932     18933     18935     18936     18932     18933     18935     18937
     18932     18933     18935     18938     18932     18963     18961     18938
     18932     18963     18961     18958     18932     18963     18961     18962
     18932     18963     18964     18965     18932     18963     18964     18966
     18932     18963     18964     18967     18932     18963     18968     18969
     18932     18963     18968     18970     18932     18963     18968     18971
     18933     18932     18963     18961     18933     18932     18963     18964
     18933     18932     18963     18968     18933     18935     18938     18939
     18933     18935     18938     18940     18933     18935     18938     18961
     18934     18933     18932     18963     18934     18933     18935     18936
     18934     18933     18935     18937     18934     18933     18935     18938
     18935     18933     18932     18963     18935     18938     18940     18941
     18935     18938     18940     18942     18935     18938     18940     18950
     18935     18938     18961     18958     18935     18938     18961     18962
     18935     18938     18961     18963     18936     18935     18938     18939
     18936     18935     18938     18940     18936     18935     18938     18961
     18937     18935     18938     18939     18937     18935     18938     18940
     18937     18935     18938     18961     18938     18940     18942     18943
     18938     18940     18942     18944     18938     18940     18942     18945
     18938     18940     18950     18948     18938     18940     18950     18951
     18938     18940     18950     18955     18938     18961     18958     18955
     18938     18961     18958     18959     18938     18961     18958     18960
     18938     18961     18963     18964     18938     18961     18963     18968
     18939     18938     18940     18941     18939     18938     18940     18942
     18939     18938     18940     18950     18939     18938     18961     18958
     18939     18938     18961     18962     18939     18938     18961     18963
     18940     18938     18961     18958     18940     18938     18961     18962
     18940     18938     18961     18963     18940     18942     18945     18946
     18940     18942     18945     18947     18940     18942     18945     18948
     18940     18950     18948     18945     18940     18950     18948     18949
     18940     18950     18948     18974     18940     18950     18951     18952
     18940     18950     18951     18953     18940     18950     18951     18954
     18940     18950     18955     18956     18940     18950     18955     18957
     18940     18950     18955     18958     18941     18940     18938     18961
     18941     18940     18942     18943     18941     18940     18942     18944
     18941     18940     18942     18945     18941     18940     18950     18948
     18941     18940     18950     18951     18941     18940     18950     18955
     18942     18940     18938     18961     18942     18940     18950     18948
     18942     18940     18950     18951     18942     18940     18950     18955
     18942     18945     18948     18949     18942     18945     18948     18950
     18942     18945     18948     18974     18943     18942     18940     18950
     18943     18942     18945     18946     18943     18942     18945     18947
     18943     18942     18945     18948     18944     18942     18940     18950
     18944     18942     18945     18946     18944     18942     18945     18947
     18944     18942     18945     18948     18945     18942     18940     18950
     18945     18948     18950     18951     18945     18948     18950     18955
     18945     18948     18974     18975     18945     18948     18974     18976
     18945     18948     18974     18980     18946     18945     18948     18949
     18946     18945     18948     18950     18946     18945     18948     18974
     18947     18945     18948     18949     18947     18945     18948     18950
     18947     18945     18948     18974     18948     18950     18951     18952
     18948     18950     18951     18953     18948     18950     18951     18954
     18948     18950     18955     18956     18948     18950     18955     18957
     18948     18950     18955     18958     18948     18974     18976     18977
     18948     18974     18976     18978     18948     18974     18976     18979
     18948     18974     18980     18981     18948     18974     18980     18982
     18948     18974     18980     18983     18949     18948     18950     18951
     18949     18948     18950     18955     18949     18948     18974     18975
     18949     18948     18974     18976     18949     18948     18974     18980
     18950     18940     18938     18961     18950     18948     18974     18975
     18950     18948     18974     18976     18950     18948     18974     18980
     18950     18955     18958     18959     18950     18955     18958     18960
     18950     18955     18958     18961     18951     18950     18948     18974
     18951     18950     18955     18956     18951     18950     18955     18957
     18951     18950     18955     18958     18952     18951     18950     18955
     18953     18951     18950     18955     18954     18951     18950     18955
     18955     18950     18948     18974     18955     18958     18961     18962
     18955     18958     18961     18963     18956     18955     18958     18959
     18956     18955     18958     18960     18956     18955     18958     18961
     18957     18955     18958     18959     18957     18955     18958     18960
     18957     18955     18958     18961     18958     18961     18963     18964
     18958     18961     18963     18968     18959     18958     18961     18962
     18959     18958     18961     18963     18960     18958     18961     18962
     18960     18958     18961     18963     18961     18963     18964     18965
     18961     18963     18964     18966     18961     18963     18964     18967
     18961     18963     18968     18969     18961     18963     18968     18970
     18961     18963     18968     18971     18962     18961     18963     18964
     18962     18961     18963     18968     18963     18968     18971     18972
     18963     18968     18971     18973     18964     18963     18968     18969
     18964     18963     18968     18970     18964     18963     18968     18971
     18965     18964     18963     18968     18966     18964     18963     18968
     18967     18964     18963     18968     18969     18968     18971     18972
     18969     18968     18971     18973     18970     18968     18971     18972
     18970     18968     18971     18973     18974     18980     18983     18984
     18974     18980     18983     18985     18974     18980     18983     18986
     18975     18974     18976     18977     18975     18974     18976     18978
     18975     18974     18976     18979     18975     18974     18980     18981
     18975     18974     18980     18982     18975     18974     18980     18983
     18976     18974     18980     18981     18976     18974     18980     18982
     18976     18974     18980     18983     18977     18976     18974     18980
     18978     18976     18974     18980     18979     18976     18974     18980
     18980     18983     18986     18987     18980     18983     18986     18988
     18980     18983     18986     18989     18981     18980     18983     18984
     18981     18980     18983     18985     18981     18980     18983     18986
     18982     18980     18983     18984     18982     18980     18983     18985
     18982     18980     18983     18986     18983     18986     18989     18990
     18983     18986     18989     18991     18983     18986     18989     18995
     18984     18983     18986     18987     18984     18983     18986     18988
     18984     18983     18986     18989     18985     18983     18986     18987
     18985     18983     18986     18988     18985     18983     18986     18989
     18986     18989     18991     18992     18986     18989     18991     18993
     18986     18989     18991     18994     18986     18989     18995     18996
     18986     18989     18995     18997     18986     18989     18995     18998
     18987     18986     18989     18990     18987     18986     18989     18991
     18987     18986     18989     18995     18988     18986     18989     18990
     18988     18986     18989     18991     18988     18986     18989     18995
     18990     18989     18991     18992     18990     18989     18991     18993
     18990     18989     18991     18994     18990     18989     18995     18996
     18990     18989     18995     18997     18990     18989     18995     18998
     18991     18989     18995     18996     18991     18989     18995     18997
     18991     18989     18995     18998     18992     18991     18989     18995
     18993     18991     18989     18995     18994     18991     18989     18995
     18999     19003     19006     19007     18999     19003     19006     19037
     18999     19045     19042     19037     18999     19045     19042     19043
     18999     19045     19042     19044     19000     18999     19001     19002
     19000     18999     19003     19004     19000     18999     19003     19005
     19000     18999     19003     19006     19000     18999     19045     19042
     19000     18999     19045     19046     19000     18999     19045     19047
     19001     18999     19003     19004     19001     18999     19003     19005
     19001     18999     19003     19006     19001     18999     19045     19042
     19001     18999     19045     19046     19001     18999     19045     19047
     19002     19001     18999     19003     19002     19001     18999     19045
     19003     18999     19045     19042     19003     18999     19045     19046
     19003     18999     19045     19047     19003     19006     19007     19008
     19003     19006     19007     19009     19003     19006     19037     19035
     19003     19006     19037     19038     19003     19006     19037     19042
     19004     19003     18999     19045     19004     19003     19006     19007
     19004     19003     19006     19037     19005     19003     18999     19045
     19005     19003     19006     19007     19005     19003     19006     19037
     19006     19003     18999     19045     19006     19007     19009     19010
     19006     19007     19009     19011     19006     19007     19009     19012
     19006     19037     19035     19012     19006     19037     19035     19032
     19006     19037     19035     19036     19006     19037     19038     19039
     19006     19037     19038     19040     19006     19037     19038     19041
     19006     19037     19042     19043     19006     19037     19042     19044
     19006     19037     19042     19045     19007     19006     19037     19035
     19007     19006     19037     19038     19007     19006     19037     19042
     19007     19009     19012     19013     19007     19009     19012     19014
     19007     19009     19012     19035     19008     19007     19006     19037
     19008     19007     19009     19010     19008     19007     19009     19011
     19008     19007     19009     19012     19009     19007     19006     19037
     19009     19012     19014     19015     19009     19012     19014     19016
     19009     19012     19014     19024     19009     19012     19035     19032
     19009     19012     19035     19036     19009     19012     19035     19037
     19010     19009     19012     19013     19010     19009     19012     19014
     19010     19009     19012     19035     19011     19009     19012     19013
     19011     19009     19012     19014     19011     19009     19012     19035
     19012     19014     19016     19017     19012     19014     19016     19018
     19012     19014     19016     19019     19012     19014     19024     19022
     19012     19014     19024     19025     19012     19014     19024     19029
     19012     19035     19032     19029     19012     19035     19032     19033
     19012     19035     19032     19034     19012     19035     19037     19038
     19012     19035     19037     19042     19013     19012     19014     19015
     19013     19012     19014     19016     19013     19012     19014     19024
     19013     19012     19035     19032     19013     19012     19035     19036
     19013     19012     19035     19037     19014     19012     19035     19032
     19014     19012     19035     19036     19014     19012     19035     19037
     19014     19016     19019     19020     19014     19016     19019     19021
     19014     19016     19019     19022     19014     19024     19022     19019
     19014     19024     19022     19023     19014     19024     19022     19048
     19014     19024     19025     19026     19014     19024     19025     19027
     19014     19024     19025     19028     19014     19024     19029     19030
     19014     19024     19029     19031     19014     19024     19029     19032
     19015     19014     19012     19035     19015     19014     19016     19017
     19015     19014     19016     19018     19015     19014     19016     19019
     19015     19014     19024     19022     19015     19014     19024     19025
     19015     19014     19024     19029     19016     19014     19012     19035
     19016     19014     19024     19022     19016     19014     19024     19025
     19016     19014     19024     19029     19016     19019     19022     19023
     19016     19019     19022     19024     19016     19019     19022     19048
     19017     19016     19014     19024     19017     19016     19019     19020
     19017     19016     19019     19021     19017     19016     19019     19022
     19018     19016     19014     19024     19018     19016     19019     19020
     19018     19016     19019     19021     19018     19016     19019     19022
     19019     19016     19014     19024     19019     19022     19024     19025
     19019     19022     19024     19029     19019     19022     19048     19049
     19019     19022     19048     19050     19019     19022     19048     19054
     19020     19019     19022     19023     19020     19019     19022     19024
     19020     19019     19022     19048     19021     19019     19022     19023
     19021     19019     19022     19024     19021     19019     19022     19048
     19022     19024     19025     19026     19022     19024     19025     19027
     19022     19024     19025     19028     19022     19024     19029     19030
     19022     19024     19029     19031     19022     19024     19029     19032
     19022     19048     19050     19051     19022     19048     19050     19052
     19022     19048     19050     19053     19022     19048     19054     19055
     19022     19048     19054     19056     19022     19048     19054     19057
     19023     19022     19024     19025     19023     19022     19024     19029
     19023     19022     19048     19049     19023     19022     19048     19050
     19023     19022     19048     19054     19024     19014     19012     19035
     19024     19022     19048     19049     19024     19022     19048     19050
     19024     19022     19048     19054     19024     19029     19032     19033
     19024     19029     19032     19034     19024     19029     19032     19035
     19025     19024     19022     19048     19025     19024     19029     19030
     19025     19024     19029     19031     19025     19024     19029     19032
     19026     19025     19024     19029     19027     19025     19024     19029
     19028     19025     19024     19029     19029     19024     19022     19048
     19029     19032     19035     19036     19029     19032     19035     19037
     19030     19029     19032     19033     19030     19029     19032     19034
     19030     19029     19032     19035     19031     19029     19032     19033
     19031     19029     19032     19034     19031     19029     19032     19035
     19032     19035     19037     19038     19032     19035     19037     19042
     19033     19032     19035     19036     19033     19032     19035     19037
     19034     19032     19035     19036     19034     19032     19035     19037
     19035     19037     19038     19039     19035     19037     19038     19040
     19035     19037     19038     19041     19035     19037     19042     19043
     19035     19037     19042     19044     19035     19037     19042     19045
     19036     19035     19037     19038     19036     19035     19037     19042
     19037     19042     19045     19046     19037     19042     19045     19047
     19038     19037     19042     19043     19038     19037     19042     19044
     19038     19037     19042     19045     19039     19038     19037     19042
     19040     19038     19037     19042     19041     19038     19037     19042
     19043     19042     19045     19046     19043     19042     19045     19047
     19044     19042     19045     19046     19044     19042     19045     19047
     19048     19054     19057     19058     19048     19054     19057     19059
     19048     19054     19057     19060     19049     19048     19050     19051
     19049     19048     19050     19052     19049     19048     19050     19053
     19049     19048     19054     19055     19049     19048     19054     19056
     19049     19048     19054     19057     19050     19048     19054     19055
     19050     19048     19054     19056     19050     19048     19054     19057
     19051     19050     19048     19054     19052     19050     19048     19054
     19053     19050     19048     19054     19054     19057     19060     19061
     19054     19057     19060     19062     19054     19057     19060     19063
     19055     19054     19057     19058     19055     19054     19057     19059
     19055     19054     19057     19060     19056     19054     19057     19058
     19056     19054     19057     19059     19056     19054     19057     19060
     19057     19060     19063     19064     19057     19060     19063     19065
     19057     19060     19063     19069     19058     19057     19060     19061
     19058     19057     19060     19062     19058     19057     19060     19063
     19059     19057     19060     19061     19059     19057     19060     19062
     19059     19057     19060     19063     19060     19063     19065     19066
     19060     19063     19065     19067     19060     19063     19065     19068
     19060     19063     19069     19070     19060     19063     19069     19071
     19060     19063     19069     19072     19061     19060     19063     19064
     19061     19060     19063     19065     19061     19060     19063     19069
     19062     19060     19063     19064     19062     19060     19063     19065
     19062     19060     19063     19069     19064     19063     19065     19066
     19064     19063     19065     19067     19064     19063     19065     19068
     19064     19063     19069     19070     19064     19063     19069     19071
     19064     19063     19069     19072     19065     19063     19069     19070
     19065     19063     19069     19071     19065     19063     19069     19072
     19066     19065     19063     19069     19067     19065     19063     19069
     19068     19065     19063     19069     19073     19077     19080     19081
     19073     19077     19080     19111     19073     19119     19116     19111
     19073     19119     19116     19117     19073     19119     19116     19118
     19074     19073     19075     19076     19074     19073     19077     19078
     19074     19073     19077     19079     19074     19073     19077     19080
     19074     19073     19119     19116     19074     19073     19119     19120
     19074     19073     19119     19121     19075     19073     19077     19078
     19075     19073     19077     19079     19075     19073     19077     19080
     19075     19073     19119     19116     19075     19073     19119     19120
     19075     19073     19119     19121     19076     19075     19073     19077
     19076     19075     19073     19119     19077     19073     19119     19116
     19077     19073     19119     19120     19077     19073     19119     19121
     19077     19080     19081     19082     19077     19080     19081     19083
     19077     19080     19111     19109     19077     19080     19111     19112
     19077     19080     19111     19116     19078     19077     19073     19119
     19078     19077     19080     19081     19078     19077     19080     19111
     19079     19077     19073     19119     19079     19077     19080     19081
     19079     19077     19080     19111     19080     19077     19073     19119
     19080     19081     19083     19084     19080     19081     19083     19085
     19080     19081     19083     19086     19080     19111     19109     19086
     19080     19111     19109     19106     19080     19111     19109     19110
     19080     19111     19112     19113     19080     19111     19112     19114
     19080     19111     19112     19115     19080     19111     19116     19117
     19080     19111     19116     19118     19080     19111     19116     19119
     19081     19080     19111     19109     19081     19080     19111     19112
     19081     19080     19111     19116     19081     19083     19086     19087
     19081     19083     19086     19088     19081     19083     19086     19109
     19082     19081     19080     19111     19082     19081     19083     19084
     19082     19081     19083     19085     19082     19081     19083     19086
     19083     19081     19080     19111     19083     19086     19088     19089
     19083     19086     19088     19090     19083     19086     19088     19098
     19083     19086     19109     19106     19083     19086     19109     19110
     19083     19086     19109     19111     19084     19083     19086     19087
     19084     19083     19086     19088     19084     19083     19086     19109
     19085     19083     19086     19087     19085     19083     19086     19088
     19085     19083     19086     19109     19086     19088     19090     19091
     19086     19088     19090     19092     19086     19088     19090     19093
     19086     19088     19098     19096     19086     19088     19098     19099
     19086     19088     19098     19103     19086     19109     19106     19103
     19086     19109     19106     19107     19086     19109     19106     19108
     19086     19109     19111     19112     19086     19109     19111     19116
     19087     19086     19088     19089     19087     19086     19088     19090
     19087     19086     19088     19098     19087     19086     19109     19106
     19087     19086     19109     19110     19087     19086     19109     19111
     19088     19086     19109     19106     19088     19086     19109     19110
     19088     19086     19109     19111     19088     19090     19093     19094
     19088     19090     19093     19095     19088     19090     19093     19096
     19088     19098     19096     19093     19088     19098     19096     19097
     19088     19098     19096     19122     19088     19098     19099     19100
     19088     19098     19099     19101     19088     19098     19099     19102
     19088     19098     19103     19104     19088     19098     19103     19105
     19088     19098     19103     19106     19089     19088     19086     19109
     19089     19088     19090     19091     19089     19088     19090     19092
     19089     19088     19090     19093     19089     19088     19098     19096
     19089     19088     19098     19099     19089     19088     19098     19103
     19090     19088     19086     19109     19090     19088     19098     19096
     19090     19088     19098     19099     19090     19088     19098     19103
     19090     19093     19096     19097     19090     19093     19096     19098
     19090     19093     19096     19122     19091     19090     19088     19098
     19091     19090     19093     19094     19091     19090     19093     19095
     19091     19090     19093     19096     19092     19090     19088     19098
     19092     19090     19093     19094     19092     19090     19093     19095
     19092     19090     19093     19096     19093     19090     19088     19098
     19093     19096     19098     19099     19093     19096     19098     19103
     19093     19096     19122     19123     19093     19096     19122     19124
     19093     19096     19122     19128     19094     19093     19096     19097
     19094     19093     19096     19098     19094     19093     19096     19122
     19095     19093     19096     19097     19095     19093     19096     19098
     19095     19093     19096     19122     19096     19098     19099     19100
     19096     19098     19099     19101     19096     19098     19099     19102
     19096     19098     19103     19104     19096     19098     19103     19105
     19096     19098     19103     19106     19096     19122     19124     19125
     19096     19122     19124     19126     19096     19122     19124     19127
     19096     19122     19128     19129     19096     19122     19128     19130
     19096     19122     19128     19131     19097     19096     19098     19099
     19097     19096     19098     19103     19097     19096     19122     19123
     19097     19096     19122     19124     19097     19096     19122     19128
     19098     19088     19086     19109     19098     19096     19122     19123
     19098     19096     19122     19124     19098     19096     19122     19128
     19098     19103     19106     19107     19098     19103     19106     19108
     19098     19103     19106     19109     19099     19098     19096     19122
     19099     19098     19103     19104     19099     19098     19103     19105
     19099     19098     19103     19106     19100     19099     19098     19103
     19101     19099     19098     19103     19102     19099     19098     19103
     19103     19098     19096     19122     19103     19106     19109     19110
     19103     19106     19109     19111     19104     19103     19106     19107
     19104     19103     19106     19108     19104     19103     19106     19109
     19105     19103     19106     19107     19105     19103     19106     19108
     19105     19103     19106     19109     19106     19109     19111     19112
     19106     19109     19111     19116     19107     19106     19109     19110
     19107     19106     19109     19111     19108     19106     19109     19110
     19108     19106     19109     19111     19109     19111     19112     19113
     19109     19111     19112     19114     19109     19111     19112     19115
     19109     19111     19116     19117     19109     19111     19116     19118
     19109     19111     19116     19119     19110     19109     19111     19112
     19110     19109     19111     19116     19111     19116     19119     19120
     19111     19116     19119     19121     19112     19111     19116     19117
     19112     19111     19116     19118     19112     19111     19116     19119
     19113     19112     19111     19116     19114     19112     19111     19116
     19115     19112     19111     19116     19117     19116     19119     19120
     19117     19116     19119     19121     19118     19116     19119     19120
     19118     19116     19119     19121     19122     19128     19131     19132
     19122     19128     19131     19133     19122     19128     19131     19134
     19123     19122     19124     19125     19123     19122     19124     19126
     19123     19122     19124     19127     19123     19122     19128     19129
     19123     19122     19128     19130     19123     19122     19128     19131
     19124     19122     19128     19129     19124     19122     19128     19130
     19124     19122     19128     19131     19125     19124     19122     19128
     19126     19124     19122     19128     19127     19124     19122     19128
     19128     19131     19134     19135     19128     19131     19134     19136
     19128     19131     19134     19137     19129     19128     19131     19132
     19129     19128     19131     19133     19129     19128     19131     19134
     19130     19128     19131     19132     19130     19128     19131     19133
     19130     19128     19131     19134     19131     19134     19137     19138
     19131     19134     19137     19139     19131     19134     19137     19143
     19132     19131     19134     19135     19132     19131     19134     19136
     19132     19131     19134     19137     19133     19131     19134     19135
     19133     19131     19134     19136     19133     19131     19134     19137
     19134     19137     19139     19140     19134     19137     19139     19141
     19134     19137     19139     19142     19134     19137     19143     19144
     19134     19137     19143     19145     19134     19137     19143     19146
     19135     19134     19137     19138     19135     19134     19137     19139
     19135     19134     19137     19143     19136     19134     19137     19138
     19136     19134     19137     19139     19136     19134     19137     19143
     19138     19137     19139     19140     19138     19137     19139     19141
     19138     19137     19139     19142     19138     19137     19143     19144
     19138     19137     19143     19145     19138     19137     19143     19146
     19139     19137     19143     19144     19139     19137     19143     19145
     19139     19137     19143     19146     19140     19139     19137     19143
     19141     19139     19137     19143     19142     19139     19137     19143
     19147     19151     19154     19155     19147     19151     19154     19185
     19147     19193     19190     19185     19147     19193     19190     19191
     19147     19193     19190     19192     19148     19147     19149     19150
     19148     19147     19151     19152     19148     19147     19151     19153
     19148     19147     19151     19154     19148     19147     19193     19190
     19148     19147     19193     19194     19148     19147     19193     19195
     19149     19147     19151     19152     19149     19147     19151     19153
     19149     19147     19151     19154     19149     19147     19193     19190
     19149     19147     19193     19194     19149     19147     19193     19195
     19150     19149     19147     19151     19150     19149     19147     19193
     19151     19147     19193     19190     19151     19147     19193     19194
     19151     19147     19193     19195     19151     19154     19155     19156
     19151     19154     19155     19157     19151     19154     19185     19183
     19151     19154     19185     19186     19151     19154     19185     19190
     19152     19151     19147     19193     19152     19151     19154     19155
     19152     19151     19154     19185     19153     19151     19147     19193
     19153     19151     19154     19155     19153     19151     19154     19185
     19154     19151     19147     19193     19154     19155     19157     19158
     19154     19155     19157     19159     19154     19155     19157     19160
     19154     19185     19183     19160     19154     19185     19183     19180
     19154     19185     19183     19184     19154     19185     19186     19187
     19154     19185     19186     19188     19154     19185     19186     19189
     19154     19185     19190     19191     19154     19185     19190     19192
     19154     19185     19190     19193     19155     19154     19185     19183
     19155     19154     19185     19186     19155     19154     19185     19190
     19155     19157     19160     19161     19155     19157     19160     19162
     19155     19157     19160     19183     19156     19155     19154     19185
     19156     19155     19157     19158     19156     19155     19157     19159
     19156     19155     19157     19160     19157     19155     19154     19185
     19157     19160     19162     19163     19157     19160     19162     19164
     19157     19160     19162     19172     19157     19160     19183     19180
     19157     19160     19183     19184     19157     19160     19183     19185
     19158     19157     19160     19161     19158     19157     19160     19162
     19158     19157     19160     19183     19159     19157     19160     19161
     19159     19157     19160     19162     19159     19157     19160     19183
     19160     19162     19164     19165     19160     19162     19164     19166
     19160     19162     19164     19167     19160     19162     19172     19170
     19160     19162     19172     19173     19160     19162     19172     19177
     19160     19183     19180     19177     19160     19183     19180     19181
     19160     19183     19180     19182     19160     19183     19185     19186
     19160     19183     19185     19190     19161     19160     19162     19163
     19161     19160     19162     19164     19161     19160     19162     19172
     19161     19160     19183     19180     19161     19160     19183     19184
     19161     19160     19183     19185     19162     19160     19183     19180
     19162     19160     19183     19184     19162     19160     19183     19185
     19162     19164     19167     19168     19162     19164     19167     19169
     19162     19164     19167     19170     19162     19172     19170     19167
     19162     19172     19170     19171     19162     19172     19170     19196
     19162     19172     19173     19174     19162     19172     19173     19175
     19162     19172     19173     19176     19162     19172     19177     19178
     19162     19172     19177     19179     19162     19172     19177     19180
     19163     19162     19160     19183     19163     19162     19164     19165
     19163     19162     19164     19166     19163     19162     19164     19167
     19163     19162     19172     19170     19163     19162     19172     19173
     19163     19162     19172     19177     19164     19162     19160     19183
     19164     19162     19172     19170     19164     19162     19172     19173
     19164     19162     19172     19177     19164     19167     19170     19171
     19164     19167     19170     19172     19164     19167     19170     19196
     19165     19164     19162     19172     19165     19164     19167     19168
     19165     19164     19167     19169     19165     19164     19167     19170
     19166     19164     19162     19172     19166     19164     19167     19168
     19166     19164     19167     19169     19166     19164     19167     19170
     19167     19164     19162     19172     19167     19170     19172     19173
     19167     19170     19172     19177     19167     19170     19196     19197
     19167     19170     19196     19198     19167     19170     19196     19202
     19168     19167     19170     19171     19168     19167     19170     19172
     19168     19167     19170     19196     19169     19167     19170     19171
     19169     19167     19170     19172     19169     19167     19170     19196
     19170     19172     19173     19174     19170     19172     19173     19175
     19170     19172     19173     19176     19170     19172     19177     19178
     19170     19172     19177     19179     19170     19172     19177     19180
     19170     19196     19198     19199     19170     19196     19198     19200
     19170     19196     19198     19201     19170     19196     19202     19203
     19170     19196     19202     19204     19170     19196     19202     19205
     19171     19170     19172     19173     19171     19170     19172     19177
     19171     19170     19196     19197     19171     19170     19196     19198
     19171     19170     19196     19202     19172     19162     19160     19183
     19172     19170     19196     19197     19172     19170     19196     19198
     19172     19170     19196     19202     19172     19177     19180     19181
     19172     19177     19180     19182     19172     19177     19180     19183
     19173     19172     19170     19196     19173     19172     19177     19178
     19173     19172     19177     19179     19173     19172     19177     19180
     19174     19173     19172     19177     19175     19173     19172     19177
     19176     19173     19172     19177     19177     19172     19170     19196
     19177     19180     19183     19184     19177     19180     19183     19185
     19178     19177     19180     19181     19178     19177     19180     19182
     19178     19177     19180     19183     19179     19177     19180     19181
     19179     19177     19180     19182     19179     19177     19180     19183
     19180     19183     19185     19186     19180     19183     19185     19190
     19181     19180     19183     19184     19181     19180     19183     19185
     19182     19180     19183     19184     19182     19180     19183     19185
     19183     19185     19186     19187     19183     19185     19186     19188
     19183     19185     19186     19189     19183     19185     19190     19191
     19183     19185     19190     19192     19183     19185     19190     19193
     19184     19183     19185     19186     19184     19183     19185     19190
     19185     19190     19193     19194     19185     19190     19193     19195
     19186     19185     19190     19191     19186     19185     19190     19192
     19186     19185     19190     19193     19187     19186     19185     19190
     19188     19186     19185     19190     19189     19186     19185     19190
     19191     19190     19193     19194     19191     19190     19193     19195
     19192     19190     19193     19194     19192     19190     19193     19195
     19196     19202     19205     19206     19196     19202     19205     19207
     19196     19202     19205     19208     19197     19196     19198     19199
     19197     19196     19198     19200     19197     19196     19198     19201
     19197     19196     19202     19203     19197     19196     19202     19204
     19197     19196     19202     19205     19198     19196     19202     19203
     19198     19196     19202     19204     19198     19196     19202     19205
     19199     19198     19196     19202     19200     19198     19196     19202
     19201     19198     19196     19202     19202     19205     19208     19209
     19202     19205     19208     19210     19202     19205     19208     19211
     19203     19202     19205     19206     19203     19202     19205     19207
     19203     19202     19205     19208     19204     19202     19205     19206
     19204     19202     19205     19207     19204     19202     19205     19208
     19205     19208     19211     19212     19205     19208     19211     19213
     19205     19208     19211     19217     19206     19205     19208     19209
     19206     19205     19208     19210     19206     19205     19208     19211
     19207     19205     19208     19209     19207     19205     19208     19210
     19207     19205     19208     19211     19208     19211     19213     19214
     19208     19211     19213     19215     19208     19211     19213     19216
     19208     19211     19217     19218     19208     19211     19217     19219
     19208     19211     19217     19220     19209     19208     19211     19212
     19209     19208     19211     19213     19209     19208     19211     19217
     19210     19208     19211     19212     19210     19208     19211     19213
     19210     19208     19211     19217     19212     19211     19213     19214
     19212     19211     19213     19215     19212     19211     19213     19216
     19212     19211     19217     19218     19212     19211     19217     19219
     19212     19211     19217     19220     19213     19211     19217     19218
     19213     19211     19217     19219     19213     19211     19217     19220
     19214     19213     19211     19217     19215     19213     19211     19217
     19216     19213     19211     19217     19221     19225     19228     19229
     19221     19225     19228     19259     19221     19267     19264     19259
     19221     19267     19264     19265     19221     19267     19264     19266
     19222     19221     19223     19224     19222     19221     19225     19226
     19222     19221     19225     19227     19222     19221     19225     19228
     19222     19221     19267     19264     19222     19221     19267     19268
     19222     19221     19267     19269     19223     19221     19225     19226
     19223     19221     19225     19227     19223     19221     19225     19228
     19223     19221     19267     19264     19223     19221     19267     19268
     19223     19221     19267     19269     19224     19223     19221     19225
     19224     19223     19221     19267     19225     19221     19267     19264
     19225     19221     19267     19268     19225     19221     19267     19269
     19225     19228     19229     19230     19225     19228     19229     19231
     19225     19228     19259     19257     19225     19228     19259     19260
     19225     19228     19259     19264     19226     19225     19221     19267
     19226     19225     19228     19229     19226     19225     19228     19259
     19227     19225     19221     19267     19227     19225     19228     19229
     19227     19225     19228     19259     19228     19225     19221     19267
     19228     19229     19231     19232     19228     19229     19231     19233
     19228     19229     19231     19234     19228     19259     19257     19234
     19228     19259     19257     19254     19228     19259     19257     19258
     19228     19259     19260     19261     19228     19259     19260     19262
     19228     19259     19260     19263     19228     19259     19264     19265
     19228     19259     19264     19266     19228     19259     19264     19267
     19229     19228     19259     19257     19229     19228     19259     19260
     19229     19228     19259     19264     19229     19231     19234     19235
     19229     19231     19234     19236     19229     19231     19234     19257
     19230     19229     19228     19259     19230     19229     19231     19232
     19230     19229     19231     19233     19230     19229     19231     19234
     19231     19229     19228     19259     19231     19234     19236     19237
     19231     19234     19236     19238     19231     19234     19236     19246
     19231     19234     19257     19254     19231     19234     19257     19258
     19231     19234     19257     19259     19232     19231     19234     19235
     19232     19231     19234     19236     19232     19231     19234     19257
     19233     19231     19234     19235     19233     19231     19234     19236
     19233     19231     19234     19257     19234     19236     19238     19239
     19234     19236     19238     19240     19234     19236     19238     19241
     19234     19236     19246     19244     19234     19236     19246     19247
     19234     19236     19246     19251     19234     19257     19254     19251
     19234     19257     19254     19255     19234     19257     19254     19256
     19234     19257     19259     19260     19234     19257     19259     19264
     19235     19234     19236     19237     19235     19234     19236     19238
     19235     19234     19236     19246     19235     19234     19257     19254
     19235     19234     19257     19258     19235     19234     19257     19259
     19236     19234     19257     19254     19236     19234     19257     19258
     19236     19234     19257     19259     19236     19238     19241     19242
     19236     19238     19241     19243     19236     19238     19241     19244
     19236     19246     19244     19241     19236     19246     19244     19245
     19236     19246     19244     19270     19236     19246     19247     19248
     19236     19246     19247     19249     19236     19246     19247     19250
     19236     19246     19251     19252     19236     19246     19251     19253
     19236     19246     19251     19254     19237     19236     19234     19257
     19237     19236     19238     19239     19237     19236     19238     19240
     19237     19236     19238     19241     19237     19236     19246     19244
     19237     19236     19246     19247     19237     19236     19246     19251
     19238     19236     19234     19257     19238     19236     19246     19244
     19238     19236     19246     19247     19238     19236     19246     19251
     19238     19241     19244     19245     19238     19241     19244     19246
     19238     19241     19244     19270     19239     19238     19236     19246
     19239     19238     19241     19242     19239     19238     19241     19243
     19239     19238     19241     19244     19240     19238     19236     19246
     19240     19238     19241     19242     19240     19238     19241     19243
     19240     19238     19241     19244     19241     19238     19236     19246
     19241     19244     19246     19247     19241     19244     19246     19251
     19241     19244     19270     19271     19241     19244     19270     19272
     19241     19244     19270     19276     19242     19241     19244     19245
     19242     19241     19244     19246     19242     19241     19244     19270
     19243     19241     19244     19245     19243     19241     19244     19246
     19243     19241     19244     19270     19244     19246     19247     19248
     19244     19246     19247     19249     19244     19246     19247     19250
     19244     19246     19251     19252     19244     19246     19251     19253
     19244     19246     19251     19254     19244     19270     19272     19273
     19244     19270     19272     19274     19244     19270     19272     19275
     19244     19270     19276     19277     19244     19270     19276     19278
     19244     19270     19276     19279     19245     19244     19246     19247
     19245     19244     19246     19251     19245     19244     19270     19271
     19245     19244     19270     19272     19245     19244     19270     19276
     19246     19236     19234     19257     19246     19244     19270     19271
     19246     19244     19270     19272     19246     19244     19270     19276
     19246     19251     19254     19255     19246     19251     19254     19256
     19246     19251     19254     19257     19247     19246     19244     19270
     19247     19246     19251     19252     19247     19246     19251     19253
     19247     19246     19251     19254     19248     19247     19246     19251
     19249     19247     19246     19251     19250     19247     19246     19251
     19251     19246     19244     19270     19251     19254     19257     19258
     19251     19254     19257     19259     19252     19251     19254     19255
     19252     19251     19254     19256     19252     19251     19254     19257
     19253     19251     19254     19255     19253     19251     19254     19256
     19253     19251     19254     19257     19254     19257     19259     19260
     19254     19257     19259     19264     19255     19254     19257     19258
     19255     19254     19257     19259     19256     19254     19257     19258
     19256     19254     19257     19259     19257     19259     19260     19261
     19257     19259     19260     19262     19257     19259     19260     19263
     19257     19259     19264     19265     19257     19259     19264     19266
     19257     19259     19264     19267     19258     19257     19259     19260
     19258     19257     19259     19264     19259     19264     19267     19268
     19259     19264     19267     19269     19260     19259     19264     19265
     19260     19259     19264     19266     19260     19259     19264     19267
     19261     19260     19259     19264     19262     19260     19259     19264
     19263     19260     19259     19264     19265     19264     19267     19268
     19265     19264     19267     19269     19266     19264     19267     19268
     19266     19264     19267     19269     19270     19276     19279     19280
     19270     19276     19279     19281     19270     19276     19279     19282
     19271     19270     19272     19273     19271     19270     19272     19274
     19271     19270     19272     19275     19271     19270     19276     19277
     19271     19270     19276     19278     19271     19270     19276     19279
     19272     19270     19276     19277     19272     19270     19276     19278
     19272     19270     19276     19279     19273     19272     19270     19276
     19274     19272     19270     19276     19275     19272     19270     19276
     19276     19279     19282     19283     19276     19279     19282     19284
     19276     19279     19282     19285     19277     19276     19279     19280
     19277     19276     19279     19281     19277     19276     19279     19282
     19278     19276     19279     19280     19278     19276     19279     19281
     19278     19276     19279     19282     19279     19282     19285     19286
     19279     19282     19285     19287     19279     19282     19285     19291
     19280     19279     19282     19283     19280     19279     19282     19284
     19280     19279     19282     19285     19281     19279     19282     19283
     19281     19279     19282     19284     19281     19279     19282     19285
     19282     19285     19287     19288     19282     19285     19287     19289
     19282     19285     19287     19290     19282     19285     19291     19292
     19282     19285     19291     19293     19282     19285     19291     19294
     19283     19282     19285     19286     19283     19282     19285     19287
     19283     19282     19285     19291     19284     19282     19285     19286
     19284     19282     19285     19287     19284     19282     19285     19291
     19286     19285     19287     19288     19286     19285     19287     19289
     19286     19285     19287     19290     19286     19285     19291     19292
     19286     19285     19291     19293     19286     19285     19291     19294
     19287     19285     19291     19292     19287     19285     19291     19293
     19287     19285     19291     19294     19288     19287     19285     19291
     19289     19287     19285     19291     19290     19287     19285     19291
     19295     19299     19302     19303     19295     19299     19302     19333
     19295     19341     19338     19333     19295     19341     19338     19339
     19295     19341     19338     19340     19296     19295     19297     19298
     19296     19295     19299     19300     19296     19295     19299     19301
     19296     19295     19299     19302     19296     19295     19341     19338
     19296     19295     19341     19342     19296     19295     19341     19343
     19297     19295     19299     19300     19297     19295     19299     19301
     19297     19295     19299     19302     19297     19295     19341     19338
     19297     19295     19341     19342     19297     19295     19341     19343
     19298     19297     19295     19299     19298     19297     19295     19341
     19299     19295     19341     19338     19299     19295     19341     19342
     19299     19295     19341     19343     19299     19302     19303     19304
     19299     19302     19303     19305     19299     19302     19333     19331
     19299     19302     19333     19334     19299     19302     19333     19338
     19300     19299     19295     19341     19300     19299     19302     19303
     19300     19299     19302     19333     19301     19299     19295     19341
     19301     19299     19302     19303     19301     19299     19302     19333
     19302     19299     19295     19341     19302     19303     19305     19306
     19302     19303     19305     19307     19302     19303     19305     19308
     19302     19333     19331     19308     19302     19333     19331     19328
     19302     19333     19331     19332     19302     19333     19334     19335
     19302     19333     19334     19336     19302     19333     19334     19337
     19302     19333     19338     19339     19302     19333     19338     19340
     19302     19333     19338     19341     19303     19302     19333     19331
     19303     19302     19333     19334     19303     19302     19333     19338
     19303     19305     19308     19309     19303     19305     19308     19310
     19303     19305     19308     19331     19304     19303     19302     19333
     19304     19303     19305     19306     19304     19303     19305     19307
     19304     19303     19305     19308     19305     19303     19302     19333
     19305     19308     19310     19311     19305     19308     19310     19312
     19305     19308     19310     19320     19305     19308     19331     19328
     19305     19308     19331     19332     19305     19308     19331     19333
     19306     19305     19308     19309     19306     19305     19308     19310
     19306     19305     19308     19331     19307     19305     19308     19309
     19307     19305     19308     19310     19307     19305     19308     19331
     19308     19310     19312     19313     19308     19310     19312     19314
     19308     19310     19312     19315     19308     19310     19320     19318
     19308     19310     19320     19321     19308     19310     19320     19325
     19308     19331     19328     19325     19308     19331     19328     19329
     19308     19331     19328     19330     19308     19331     19333     19334
     19308     19331     19333     19338     19309     19308     19310     19311
     19309     19308     19310     19312     19309     19308     19310     19320
     19309     19308     19331     19328     19309     19308     19331     19332
     19309     19308     19331     19333     19310     19308     19331     19328
     19310     19308     19331     19332     19310     19308     19331     19333
     19310     19312     19315     19316     19310     19312     19315     19317
     19310     19312     19315     19318     19310     19320     19318     19315
     19310     19320     19318     19319     19310     19320     19318     19344
     19310     19320     19321     19322     19310     19320     19321     19323
     19310     19320     19321     19324     19310     19320     19325     19326
     19310     19320     19325     19327     19310     19320     19325     19328
     19311     19310     19308     19331     19311     19310     19312     19313
     19311     19310     19312     19314     19311     19310     19312     19315
     19311     19310     19320     19318     19311     19310     19320     19321
     19311     19310     19320     19325     19312     19310     19308     19331
     19312     19310     19320     19318     19312     19310     19320     19321
     19312     19310     19320     19325     19312     19315     19318     19319
     19312     19315     19318     19320     19312     19315     19318     19344
     19313     19312     19310     19320     19313     19312     19315     19316
     19313     19312     19315     19317     19313     19312     19315     19318
     19314     19312     19310     19320     19314     19312     19315     19316
     19314     19312     19315     19317     19314     19312     19315     19318
     19315     19312     19310     19320     19315     19318     19320     19321
     19315     19318     19320     19325     19315     19318     19344     19345
     19315     19318     19344     19346     19315     19318     19344     19350
     19316     19315     19318     19319     19316     19315     19318     19320
     19316     19315     19318     19344     19317     19315     19318     19319
     19317     19315     19318     19320     19317     19315     19318     19344
     19318     19320     19321     19322     19318     19320     19321     19323
     19318     19320     19321     19324     19318     19320     19325     19326
     19318     19320     19325     19327     19318     19320     19325     19328
     19318     19344     19346     19347     19318     19344     19346     19348
     19318     19344     19346     19349     19318     19344     19350     19351
     19318     19344     19350     19352     19318     19344     19350     19353
     19319     19318     19320     19321     19319     19318     19320     19325
     19319     19318     19344     19345     19319     19318     19344     19346
     19319     19318     19344     19350     19320     19310     19308     19331
     19320     19318     19344     19345     19320     19318     19344     19346
     19320     19318     19344     19350     19320     19325     19328     19329
     19320     19325     19328     19330     19320     19325     19328     19331
     19321     19320     19318     19344     19321     19320     19325     19326
     19321     19320     19325     19327     19321     19320     19325     19328
     19322     19321     19320     19325     19323     19321     19320     19325
     19324     19321     19320     19325     19325     19320     19318     19344
     19325     19328     19331     19332     19325     19328     19331     19333
     19326     19325     19328     19329     19326     19325     19328     19330
     19326     19325     19328     19331     19327     19325     19328     19329
     19327     19325     19328     19330     19327     19325     19328     19331
     19328     19331     19333     19334     19328     19331     19333     19338
     19329     19328     19331     19332     19329     19328     19331     19333
     19330     19328     19331     19332     19330     19328     19331     19333
     19331     19333     19334     19335     19331     19333     19334     19336
     19331     19333     19334     19337     19331     19333     19338     19339
     19331     19333     19338     19340     19331     19333     19338     19341
     19332     19331     19333     19334     19332     19331     19333     19338
     19333     19338     19341     19342     19333     19338     19341     19343
     19334     19333     19338     19339     19334     19333     19338     19340
     19334     19333     19338     19341     19335     19334     19333     19338
     19336     19334     19333     19338     19337     19334     19333     19338
     19339     19338     19341     19342     19339     19338     19341     19343
     19340     19338     19341     19342     19340     19338     19341     19343
     19344     19350     19353     19354     19344     19350     19353     19355
     19344     19350     19353     19356     19345     19344     19346     19347
     19345     19344     19346     19348     19345     19344     19346     19349
     19345     19344     19350     19351     19345     19344     19350     19352
     19345     19344     19350     19353     19346     19344     19350     19351
     19346     19344     19350     19352     19346     19344     19350     19353
     19347     19346     19344     19350     19348     19346     19344     19350
     19349     19346     19344     19350     19350     19353     19356     19357
     19350     19353     19356     19358     19350     19353     19356     19359
     19351     19350     19353     19354     19351     19350     19353     19355
     19351     19350     19353     19356     19352     19350     19353     19354
     19352     19350     19353     19355     19352     19350     19353     19356
     19353     19356     19359     19360     19353     19356     19359     19361
     19353     19356     19359     19365     19354     19353     19356     19357
     19354     19353     19356     19358     19354     19353     19356     19359
     19355     19353     19356     19357     19355     19353     19356     19358
     19355     19353     19356     19359     19356     19359     19361     19362
     19356     19359     19361     19363     19356     19359     19361     19364
     19356     19359     19365     19366     19356     19359     19365     19367
     19356     19359     19365     19368     19357     19356     19359     19360
     19357     19356     19359     19361     19357     19356     19359     19365
     19358     19356     19359     19360     19358     19356     19359     19361
     19358     19356     19359     19365     19360     19359     19361     19362
     19360     19359     19361     19363     19360     19359     19361     19364
     19360     19359     19365     19366     19360     19359     19365     19367
     19360     19359     19365     19368     19361     19359     19365     19366
     19361     19359     19365     19367     19361     19359     19365     19368
     19362     19361     19359     19365     19363     19361     19359     19365
     19364     19361     19359     19365     19369     19373     19376     19377
     19369     19373     19376     19407     19369     19415     19412     19407
     19369     19415     19412     19413     19369     19415     19412     19414
     19370     19369     19371     19372     19370     19369     19373     19374
     19370     19369     19373     19375     19370     19369     19373     19376
     19370     19369     19415     19412     19370     19369     19415     19416
     19370     19369     19415     19417     19371     19369     19373     19374
     19371     19369     19373     19375     19371     19369     19373     19376
     19371     19369     19415     19412     19371     19369     19415     19416
     19371     19369     19415     19417     19372     19371     19369     19373
     19372     19371     19369     19415     19373     19369     19415     19412
     19373     19369     19415     19416     19373     19369     19415     19417
     19373     19376     19377     19378     19373     19376     19377     19379
     19373     19376     19407     19405     19373     19376     19407     19408
     19373     19376     19407     19412     19374     19373     19369     19415
     19374     19373     19376     19377     19374     19373     19376     19407
     19375     19373     19369     19415     19375     19373     19376     19377
     19375     19373     19376     19407     19376     19373     19369     19415
     19376     19377     19379     19380     19376     19377     19379     19381
     19376     19377     19379     19382     19376     19407     19405     19382
     19376     19407     19405     19402     19376     19407     19405     19406
     19376     19407     19408     19409     19376     19407     19408     19410
     19376     19407     19408     19411     19376     19407     19412     19413
     19376     19407     19412     19414     19376     19407     19412     19415
     19377     19376     19407     19405     19377     19376     19407     19408
     19377     19376     19407     19412     19377     19379     19382     19383
     19377     19379     19382     19384     19377     19379     19382     19405
     19378     19377     19376     19407     19378     19377     19379     19380
     19378     19377     19379     19381     19378     19377     19379     19382
     19379     19377     19376     19407     19379     19382     19384     19385
     19379     19382     19384     19386     19379     19382     19384     19394
     19379     19382     19405     19402     19379     19382     19405     19406
     19379     19382     19405     19407     19380     19379     19382     19383
     19380     19379     19382     19384     19380     19379     19382     19405
     19381     19379     19382     19383     19381     19379     19382     19384
     19381     19379     19382     19405     19382     19384     19386     19387
     19382     19384     19386     19388     19382     19384     19386     19389
     19382     19384     19394     19392     19382     19384     19394     19395
     19382     19384     19394     19399     19382     19405     19402     19399
     19382     19405     19402     19403     19382     19405     19402     19404
     19382     19405     19407     19408     19382     19405     19407     19412
     19383     19382     19384     19385     19383     19382     19384     19386
     19383     19382     19384     19394     19383     19382     19405     19402
     19383     19382     19405     19406     19383     19382     19405     19407
     19384     19382     19405     19402     19384     19382     19405     19406
     19384     19382     19405     19407     19384     19386     19389     19390
     19384     19386     19389     19391     19384     19386     19389     19392
     19384     19394     19392     19389     19384     19394     19392     19393
     19384     19394     19392     19418     19384     19394     19395     19396
     19384     19394     19395     19397     19384     19394     19395     19398
     19384     19394     19399     19400     19384     19394     19399     19401
     19384     19394     19399     19402     19385     19384     19382     19405
     19385     19384     19386     19387     19385     19384     19386     19388
     19385     19384     19386     19389     19385     19384     19394     19392
     19385     19384     19394     19395     19385     19384     19394     19399
     19386     19384     19382     19405     19386     19384     19394     19392
     19386     19384     19394     19395     19386     19384     19394     19399
     19386     19389     19392     19393     19386     19389     19392     19394
     19386     19389     19392     19418     19387     19386     19384     19394
     19387     19386     19389     19390     19387     19386     19389     19391
     19387     19386     19389     19392     19388     19386     19384     19394
     19388     19386     19389     19390     19388     19386     19389     19391
     19388     19386     19389     19392     19389     19386     19384     19394
     19389     19392     19394     19395     19389     19392     19394     19399
     19389     19392     19418     19419     19389     19392     19418     19420
     19389     19392     19418     19424     19390     19389     19392     19393
     19390     19389     19392     19394     19390     19389     19392     19418
     19391     19389     19392     19393     19391     19389     19392     19394
     19391     19389     19392     19418     19392     19394     19395     19396
     19392     19394     19395     19397     19392     19394     19395     19398
     19392     19394     19399     19400     19392     19394     19399     19401
     19392     19394     19399     19402     19392     19418     19420     19421
     19392     19418     19420     19422     19392     19418     19420     19423
     19392     19418     19424     19425     19392     19418     19424     19426
     19392     19418     19424     19427     19393     19392     19394     19395
     19393     19392     19394     19399     19393     19392     19418     19419
     19393     19392     19418     19420     19393     19392     19418     19424
     19394     19384     19382     19405     19394     19392     19418     19419
     19394     19392     19418     19420     19394     19392     19418     19424
     19394     19399     19402     19403     19394     19399     19402     19404
     19394     19399     19402     19405     19395     19394     19392     19418
     19395     19394     19399     19400     19395     19394     19399     19401
     19395     19394     19399     19402     19396     19395     19394     19399
     19397     19395     19394     19399     19398     19395     19394     19399
     19399     19394     19392     19418     19399     19402     19405     19406
     19399     19402     19405     19407     19400     19399     19402     19403
     19400     19399     19402     19404     19400     19399     19402     19405
     19401     19399     19402     19403     19401     19399     19402     19404
     19401     19399     19402     19405     19402     19405     19407     19408
     19402     19405     19407     19412     19403     19402     19405     19406
     19403     19402     19405     19407     19404     19402     19405     19406
     19404     19402     19405     19407     19405     19407     19408     19409
     19405     19407     19408     19410     19405     19407     19408     19411
     19405     19407     19412     19413     19405     19407     19412     19414
     19405     19407     19412     19415     19406     19405     19407     19408
     19406     19405     19407     19412     19407     19412     19415     19416
     19407     19412     19415     19417     19408     19407     19412     19413
     19408     19407     19412     19414     19408     19407     19412     19415
     19409     19408     19407     19412     19410     19408     19407     19412
     19411     19408     19407     19412     19413     19412     19415     19416
     19413     19412     19415     19417     19414     19412     19415     19416
     19414     19412     19415     19417     19418     19424     19427     19428
     19418     19424     19427     19429     19418     19424     19427     19430
     19419     19418     19420     19421     19419     19418     19420     19422
     19419     19418     19420     19423     19419     19418     19424     19425
     19419     19418     19424     19426     19419     19418     19424     19427
     19420     19418     19424     19425     19420     19418     19424     19426
     19420     19418     19424     19427     19421     19420     19418     19424
     19422     19420     19418     19424     19423     19420     19418     19424
     19424     19427     19430     19431     19424     19427     19430     19432
     19424     19427     19430     19433     19425     19424     19427     19428
     19425     19424     19427     19429     19425     19424     19427     19430
     19426     19424     19427     19428     19426     19424     19427     19429
     19426     19424     19427     19430     19427     19430     19433     19434
     19427     19430     19433     19435     19427     19430     19433     19439
     19428     19427     19430     19431     19428     19427     19430     19432
     19428     19427     19430     19433     19429     19427     19430     19431
     19429     19427     19430     19432     19429     19427     19430     19433
     19430     19433     19435     19436     19430     19433     19435     19437
     19430     19433     19435     19438     19430     19433     19439     19440
     19430     19433     19439     19441     19430     19433     19439     19442
     19431     19430     19433     19434     19431     19430     19433     19435
     19431     19430     19433     19439     19432     19430     19433     19434
     19432     19430     19433     19435     19432     19430     19433     19439
     19434     19433     19435     19436     19434     19433     19435     19437
     19434     19433     19435     19438     19434     19433     19439     19440
     19434     19433     19439     19441     19434     19433     19439     19442
     19435     19433     19439     19440     19435     19433     19439     19441
     19435     19433     19439     19442     19436     19435     19433     19439
     19437     19435     19433     19439     19438     19435     19433     19439
     19443     19447     19450     19451     19443     19447     19450     19481
     19443     19489     19486     19481     19443     19489     19486     19487
     19443     19489     19486     19488     19444     19443     19445     19446
     19444     19443     19447     19448     19444     19443     19447     19449
     19444     19443     19447     19450     19444     19443     19489     19486
     19444     19443     19489     19490     19444     19443     19489     19491
     19445     19443     19447     19448     19445     19443     19447     19449
     19445     19443     19447     19450     19445     19443     19489     19486
     19445     19443     19489     19490     19445     19443     19489     19491
     19446     19445     19443     19447     19446     19445     19443     19489
     19447     19443     19489     19486     19447     19443     19489     19490
     19447     19443     19489     19491     19447     19450     19451     19452
     19447     19450     19451     19453     19447     19450     19481     19479
     19447     19450     19481     19482     19447     19450     19481     19486
     19448     19447     19443     19489     19448     19447     19450     19451
     19448     19447     19450     19481     19449     19447     19443     19489
     19449     19447     19450     19451     19449     19447     19450     19481
     19450     19447     19443     19489     19450     19451     19453     19454
     19450     19451     19453     19455     19450     19451     19453     19456
     19450     19481     19479     19456     19450     19481     19479     19476
     19450     19481     19479     19480     19450     19481     19482     19483
     19450     19481     19482     19484     19450     19481     19482     19485
     19450     19481     19486     19487     19450     19481     19486     19488
     19450     19481     19486     19489     19451     19450     19481     19479
     19451     19450     19481     19482     19451     19450     19481     19486
     19451     19453     19456     19457     19451     19453     19456     19458
     19451     19453     19456     19479     19452     19451     19450     19481
     19452     19451     19453     19454     19452     19451     19453     19455
     19452     19451     19453     19456     19453     19451     19450     19481
     19453     19456     19458     19459     19453     19456     19458     19460
     19453     19456     19458     19468     19453     19456     19479     19476
     19453     19456     19479     19480     19453     19456     19479     19481
     19454     19453     19456     19457     19454     19453     19456     19458
     19454     19453     19456     19479     19455     19453     19456     19457
     19455     19453     19456     19458     19455     19453     19456     19479
     19456     19458     19460     19461     19456     19458     19460     19462
     19456     19458     19460     19463     19456     19458     19468     19466
     19456     19458     19468     19469     19456     19458     19468     19473
     19456     19479     19476     19473     19456     19479     19476     19477
     19456     19479     19476     19478     19456     19479     19481     19482
     19456     19479     19481     19486     19457     19456     19458     19459
     19457     19456     19458     19460     19457     19456     19458     19468
     19457     19456     19479     19476     19457     19456     19479     19480
     19457     19456     19479     19481     19458     19456     19479     19476
     19458     19456     19479     19480     19458     19456     19479     19481
     19458     19460     19463     19464     19458     19460     19463     19465
     19458     19460     19463     19466     19458     19468     19466     19463
     19458     19468     19466     19467     19458     19468     19466     19492
     19458     19468     19469     19470     19458     19468     19469     19471
     19458     19468     19469     19472     19458     19468     19473     19474
     19458     19468     19473     19475     19458     19468     19473     19476
     19459     19458     19456     19479     19459     19458     19460     19461
     19459     19458     19460     19462     19459     19458     19460     19463
     19459     19458     19468     19466     19459     19458     19468     19469
     19459     19458     19468     19473     19460     19458     19456     19479
     19460     19458     19468     19466     19460     19458     19468     19469
     19460     19458     19468     19473     19460     19463     19466     19467
     19460     19463     19466     19468     19460     19463     19466     19492
     19461     19460     19458     19468     19461     19460     19463     19464
     19461     19460     19463     19465     19461     19460     19463     19466
     19462     19460     19458     19468     19462     19460     19463     19464
     19462     19460     19463     19465     19462     19460     19463     19466
     19463     19460     19458     19468     19463     19466     19468     19469
     19463     19466     19468     19473     19463     19466     19492     19493
     19463     19466     19492     19494     19463     19466     19492     19498
     19464     19463     19466     19467     19464     19463     19466     19468
     19464     19463     19466     19492     19465     19463     19466     19467
     19465     19463     19466     19468     19465     19463     19466     19492
     19466     19468     19469     19470     19466     19468     19469     19471
     19466     19468     19469     19472     19466     19468     19473     19474
     19466     19468     19473     19475     19466     19468     19473     19476
     19466     19492     19494     19495     19466     19492     19494     19496
     19466     19492     19494     19497     19466     19492     19498     19499
     19466     19492     19498     19500     19466     19492     19498     19501
     19467     19466     19468     19469     19467     19466     19468     19473
     19467     19466     19492     19493     19467     19466     19492     19494
     19467     19466     19492     19498     19468     19458     19456     19479
     19468     19466     19492     19493     19468     19466     19492     19494
     19468     19466     19492     19498     19468     19473     19476     19477
     19468     19473     19476     19478     19468     19473     19476     19479
     19469     19468     19466     19492     19469     19468     19473     19474
     19469     19468     19473     19475     19469     19468     19473     19476
     19470     19469     19468     19473     19471     19469     19468     19473
     19472     19469     19468     19473     19473     19468     19466     19492
     19473     19476     19479     19480     19473     19476     19479     19481
     19474     19473     19476     19477     19474     19473     19476     19478
     19474     19473     19476     19479     19475     19473     19476     19477
     19475     19473     19476     19478     19475     19473     19476     19479
     19476     19479     19481     19482     19476     19479     19481     19486
     19477     19476     19479     19480     19477     19476     19479     19481
     19478     19476     19479     19480     19478     19476     19479     19481
     19479     19481     19482     19483     19479     19481     19482     19484
     19479     19481     19482     19485     19479     19481     19486     19487
     19479     19481     19486     19488     19479     19481     19486     19489
     19480     19479     19481     19482     19480     19479     19481     19486
     19481     19486     19489     19490     19481     19486     19489     19491
     19482     19481     19486     19487     19482     19481     19486     19488
     19482     19481     19486     19489     19483     19482     19481     19486
     19484     19482     19481     19486     19485     19482     19481     19486
     19487     19486     19489     19490     19487     19486     19489     19491
     19488     19486     19489     19490     19488     19486     19489     19491
     19492     19498     19501     19502     19492     19498     19501     19503
     19492     19498     19501     19504     19493     19492     19494     19495
     19493     19492     19494     19496     19493     19492     19494     19497
     19493     19492     19498     19499     19493     19492     19498     19500
     19493     19492     19498     19501     19494     19492     19498     19499
     19494     19492     19498     19500     19494     19492     19498     19501
     19495     19494     19492     19498     19496     19494     19492     19498
     19497     19494     19492     19498     19498     19501     19504     19505
     19498     19501     19504     19506     19498     19501     19504     19507
     19499     19498     19501     19502     19499     19498     19501     19503
     19499     19498     19501     19504     19500     19498     19501     19502
     19500     19498     19501     19503     19500     19498     19501     19504
     19501     19504     19507     19508     19501     19504     19507     19509
     19501     19504     19507     19513     19502     19501     19504     19505
     19502     19501     19504     19506     19502     19501     19504     19507
     19503     19501     19504     19505     19503     19501     19504     19506
     19503     19501     19504     19507     19504     19507     19509     19510
     19504     19507     19509     19511     19504     19507     19509     19512
     19504     19507     19513     19514     19504     19507     19513     19515
     19504     19507     19513     19516     19505     19504     19507     19508
     19505     19504     19507     19509     19505     19504     19507     19513
     19506     19504     19507     19508     19506     19504     19507     19509
     19506     19504     19507     19513     19508     19507     19509     19510
     19508     19507     19509     19511     19508     19507     19509     19512
     19508     19507     19513     19514     19508     19507     19513     19515
     19508     19507     19513     19516     19509     19507     19513     19514
     19509     19507     19513     19515     19509     19507     19513     19516
     19510     19509     19507     19513     19511     19509     19507     19513
     19512     19509     19507     19513     19517     19521     19524     19525
     19517     19521     19524     19555     19517     19563     19560     19555
     19517     19563     19560     19561     19517     19563     19560     19562
     19518     19517     19519     19520     19518     19517     19521     19522
     19518     19517     19521     19523     19518     19517     19521     19524
     19518     19517     19563     19560     19518     19517     19563     19564
     19518     19517     19563     19565     19519     19517     19521     19522
     19519     19517     19521     19523     19519     19517     19521     19524
     19519     19517     19563     19560     19519     19517     19563     19564
     19519     19517     19563     19565     19520     19519     19517     19521
     19520     19519     19517     19563     19521     19517     19563     19560
     19521     19517     19563     19564     19521     19517     19563     19565
     19521     19524     19525     19526     19521     19524     19525     19527
     19521     19524     19555     19553     19521     19524     19555     19556
     19521     19524     19555     19560     19522     19521     19517     19563
     19522     19521     19524     19525     19522     19521     19524     19555
     19523     19521     19517     19563     19523     19521     19524     19525
     19523     19521     19524     19555     19524     19521     19517     19563
     19524     19525     19527     19528     19524     19525     19527     19529
     19524     19525     19527     19530     19524     19555     19553     19530
     19524     19555     19553     19550     19524     19555     19553     19554
     19524     19555     19556     19557     19524     19555     19556     19558
     19524     19555     19556     19559     19524     19555     19560     19561
     19524     19555     19560     19562     19524     19555     19560     19563
     19525     19524     19555     19553     19525     19524     19555     19556
     19525     19524     19555     19560     19525     19527     19530     19531
     19525     19527     19530     19532     19525     19527     19530     19553
     19526     19525     19524     19555     19526     19525     19527     19528
     19526     19525     19527     19529     19526     19525     19527     19530
     19527     19525     19524     19555     19527     19530     19532     19533
     19527     19530     19532     19534     19527     19530     19532     19542
     19527     19530     19553     19550     19527     19530     19553     19554
     19527     19530     19553     19555     19528     19527     19530     19531
     19528     19527     19530     19532     19528     19527     19530     19553
     19529     19527     19530     19531     19529     19527     19530     19532
     19529     19527     19530     19553     19530     19532     19534     19535
     19530     19532     19534     19536     19530     19532     19534     19537
     19530     19532     19542     19540     19530     19532     19542     19543
     19530     19532     19542     19547     19530     19553     19550     19547
     19530     19553     19550     19551     19530     19553     19550     19552
     19530     19553     19555     19556     19530     19553     19555     19560
     19531     19530     19532     19533     19531     19530     19532     19534
     19531     19530     19532     19542     19531     19530     19553     19550
     19531     19530     19553     19554     19531     19530     19553     19555
     19532     19530     19553     19550     19532     19530     19553     19554
     19532     19530     19553     19555     19532     19534     19537     19538
     19532     19534     19537     19539     19532     19534     19537     19540
     19532     19542     19540     19537     19532     19542     19540     19541
     19532     19542     19540     19566     19532     19542     19543     19544
     19532     19542     19543     19545     19532     19542     19543     19546
     19532     19542     19547     19548     19532     19542     19547     19549
     19532     19542     19547     19550     19533     19532     19530     19553
     19533     19532     19534     19535     19533     19532     19534     19536
     19533     19532     19534     19537     19533     19532     19542     19540
     19533     19532     19542     19543     19533     19532     19542     19547
     19534     19532     19530     19553     19534     19532     19542     19540
     19534     19532     19542     19543     19534     19532     19542     19547
     19534     19537     19540     19541     19534     19537     19540     19542
     19534     19537     19540     19566     19535     19534     19532     19542
     19535     19534     19537     19538     19535     19534     19537     19539
     19535     19534     19537     19540     19536     19534     19532     19542
     19536     19534     19537     19538     19536     19534     19537     19539
     19536     19534     19537     19540     19537     19534     19532     19542
     19537     19540     19542     19543     19537     19540     19542     19547
     19537     19540     19566     19567     19537     19540     19566     19568
     19537     19540     19566     19572     19538     19537     19540     19541
     19538     19537     19540     19542     19538     19537     19540     19566
     19539     19537     19540     19541     19539     19537     19540     19542
     19539     19537     19540     19566     19540     19542     19543     19544
     19540     19542     19543     19545     19540     19542     19543     19546
     19540     19542     19547     19548     19540     19542     19547     19549
     19540     19542     19547     19550     19540     19566     19568     19569
     19540     19566     19568     19570     19540     19566     19568     19571
     19540     19566     19572     19573     19540     19566     19572     19574
     19540     19566     19572     19575     19541     19540     19542     19543
     19541     19540     19542     19547     19541     19540     19566     19567
     19541     19540     19566     19568     19541     19540     19566     19572
     19542     19532     19530     19553     19542     19540     19566     19567
     19542     19540     19566     19568     19542     19540     19566     19572
     19542     19547     19550     19551     19542     19547     19550     19552
     19542     19547     19550     19553     19543     19542     19540     19566
     19543     19542     19547     19548     19543     19542     19547     19549
     19543     19542     19547     19550     19544     19543     19542     19547
     19545     19543     19542     19547     19546     19543     19542     19547
     19547     19542     19540     19566     19547     19550     19553     19554
     19547     19550     19553     19555     19548     19547     19550     19551
     19548     19547     19550     19552     19548     19547     19550     19553
     19549     19547     19550     19551     19549     19547     19550     19552
     19549     19547     19550     19553     19550     19553     19555     19556
     19550     19553     19555     19560     19551     19550     19553     19554
     19551     19550     19553     19555     19552     19550     19553     19554
     19552     19550     19553     19555     19553     19555     19556     19557
     19553     19555     19556     19558     19553     19555     19556     19559
     19553     19555     19560     19561     19553     19555     19560     19562
     19553     19555     19560     19563     19554     19553     19555     19556
     19554     19553     19555     19560     19555     19560     19563     19564
     19555     19560     19563     19565     19556     19555     19560     19561
     19556     19555     19560     19562     19556     19555     19560     19563
     19557     19556     19555     19560     19558     19556     19555     19560
     19559     19556     19555     19560     19561     19560     19563     19564
     19561     19560     19563     19565     19562     19560     19563     19564
     19562     19560     19563     19565     19566     19572     19575     19576
     19566     19572     19575     19577     19566     19572     19575     19578
     19567     19566     19568     19569     19567     19566     19568     19570
     19567     19566     19568     19571     19567     19566     19572     19573
     19567     19566     19572     19574     19567     19566     19572     19575
     19568     19566     19572     19573     19568     19566     19572     19574
     19568     19566     19572     19575     19569     19568     19566     19572
     19570     19568     19566     19572     19571     19568     19566     19572
     19572     19575     19578     19579     19572     19575     19578     19580
     19572     19575     19578     19581     19573     19572     19575     19576
     19573     19572     19575     19577     19573     19572     19575     19578
     19574     19572     19575     19576     19574     19572     19575     19577
     19574     19572     19575     19578     19575     19578     19581     19582
     19575     19578     19581     19583     19575     19578     19581     19587
     19576     19575     19578     19579     19576     19575     19578     19580
     19576     19575     19578     19581     19577     19575     19578     19579
     19577     19575     19578     19580     19577     19575     19578     19581
     19578     19581     19583     19584     19578     19581     19583     19585
     19578     19581     19583     19586     19578     19581     19587     19588
     19578     19581     19587     19589     19578     19581     19587     19590
     19579     19578     19581     19582     19579     19578     19581     19583
     19579     19578     19581     19587     19580     19578     19581     19582
     19580     19578     19581     19583     19580     19578     19581     19587
     19582     19581     19583     19584     19582     19581     19583     19585
     19582     19581     19583     19586     19582     19581     19587     19588
     19582     19581     19587     19589     19582     19581     19587     19590
     19583     19581     19587     19588     19583     19581     19587     19589
     19583     19581     19587     19590     19584     19583     19581     19587
     19585     19583     19581     19587     19586     19583     19581     19587
     19591     19595     19598     19599     19591     19595     19598     19629
     19591     19637     19634     19629     19591     19637     19634     19635
     19591     19637     19634     19636     19592     19591     19593     19594
     19592     19591     19595     19596     19592     19591     19595     19597
     19592     19591     19595     19598     19592     19591     19637     19634
     19592     19591     19637     19638     19592     19591     19637     19639
     19593     19591     19595     19596     19593     19591     19595     19597
     19593     19591     19595     19598     19593     19591     19637     19634
     19593     19591     19637     19638     19593     19591     19637     19639
     19594     19593     19591     19595     19594     19593     19591     19637
     19595     19591     19637     19634     19595     19591     19637     19638
     19595     19591     19637     19639     19595     19598     19599     19600
     19595     19598     19599     19601     19595     19598     19629     19627
     19595     19598     19629     19630     19595     19598     19629     19634
     19596     19595     19591     19637     19596     19595     19598     19599
     19596     19595     19598     19629     19597     19595     19591     19637
     19597     19595     19598     19599     19597     19595     19598     19629
     19598     19595     19591     19637     19598     19599     19601     19602
     19598     19599     19601     19603     19598     19599     19601     19604
     19598     19629     19627     19604     19598     19629     19627     19624
     19598     19629     19627     19628     19598     19629     19630     19631
     19598     19629     19630     19632     19598     19629     19630     19633
     19598     19629     19634     19635     19598     19629     19634     19636
     19598     19629     19634     19637     19599     19598     19629     19627
     19599     19598     19629     19630     19599     19598     19629     19634
     19599     19601     19604     19605     19599     19601     19604     19606
     19599     19601     19604     19627     19600     19599     19598     19629
     19600     19599     19601     19602     19600     19599     19601     19603
     19600     19599     19601     19604     19601     19599     19598     19629
     19601     19604     19606     19607     19601     19604     19606     19608
     19601     19604     19606     19616     19601     19604     19627     19624
     19601     19604     19627     19628     19601     19604     19627     19629
     19602     19601     19604     19605     19602     19601     19604     19606
     19602     19601     19604     19627     19603     19601     19604     19605
     19603     19601     19604     19606     19603     19601     19604     19627
     19604     19606     19608     19609     19604     19606     19608     19610
     19604     19606     19608     19611     19604     19606     19616     19614
     19604     19606     19616     19617     19604     19606     19616     19621
     19604     19627     19624     19621     19604     19627     19624     19625
     19604     19627     19624     19626     19604     19627     19629     19630
     19604     19627     19629     19634     19605     19604     19606     19607
     19605     19604     19606     19608     19605     19604     19606     19616
     19605     19604     19627     19624     19605     19604     19627     19628
     19605     19604     19627     19629     19606     19604     19627     19624
     19606     19604     19627     19628     19606     19604     19627     19629
     19606     19608     19611     19612     19606     19608     19611     19613
     19606     19608     19611     19614     19606     19616     19614     19611
     19606     19616     19614     19615     19606     19616     19614     19640
     19606     19616     19617     19618     19606     19616     19617     19619
     19606     19616     19617     19620     19606     19616     19621     19622
     19606     19616     19621     19623     19606     19616     19621     19624
     19607     19606     19604     19627     19607     19606     19608     19609
     19607     19606     19608     19610     19607     19606     19608     19611
     19607     19606     19616     19614     19607     19606     19616     19617
     19607     19606     19616     19621     19608     19606     19604     19627
     19608     19606     19616     19614     19608     19606     19616     19617
     19608     19606     19616     19621     19608     19611     19614     19615
     19608     19611     19614     19616     19608     19611     19614     19640
     19609     19608     19606     19616     19609     19608     19611     19612
     19609     19608     19611     19613     19609     19608     19611     19614
     19610     19608     19606     19616     19610     19608     19611     19612
     19610     19608     19611     19613     19610     19608     19611     19614
     19611     19608     19606     19616     19611     19614     19616     19617
     19611     19614     19616     19621     19611     19614     19640     19641
     19611     19614     19640     19642     19611     19614     19640     19646
     19612     19611     19614     19615     19612     19611     19614     19616
     19612     19611     19614     19640     19613     19611     19614     19615
     19613     19611     19614     19616     19613     19611     19614     19640
     19614     19616     19617     19618     19614     19616     19617     19619
     19614     19616     19617     19620     19614     19616     19621     19622
     19614     19616     19621     19623     19614     19616     19621     19624
     19614     19640     19642     19643     19614     19640     19642     19644
     19614     19640     19642     19645     19614     19640     19646     19647
     19614     19640     19646     19648     19614     19640     19646     19649
     19615     19614     19616     19617     19615     19614     19616     19621
     19615     19614     19640     19641     19615     19614     19640     19642
     19615     19614     19640     19646     19616     19606     19604     19627
     19616     19614     19640     19641     19616     19614     19640     19642
     19616     19614     19640     19646     19616     19621     19624     19625
     19616     19621     19624     19626     19616     19621     19624     19627
     19617     19616     19614     19640     19617     19616     19621     19622
     19617     19616     19621     19623     19617     19616     19621     19624
     19618     19617     19616     19621     19619     19617     19616     19621
     19620     19617     19616     19621     19621     19616     19614     19640
     19621     19624     19627     19628     19621     19624     19627     19629
     19622     19621     19624     19625     19622     19621     19624     19626
     19622     19621     19624     19627     19623     19621     19624     19625
     19623     19621     19624     19626     19623     19621     19624     19627
     19624     19627     19629     19630     19624     19627     19629     19634
     19625     19624     19627     19628     19625     19624     19627     19629
     19626     19624     19627     19628     19626     19624     19627     19629
     19627     19629     19630     19631     19627     19629     19630     19632
     19627     19629     19630     19633     19627     19629     19634     19635
     19627     19629     19634     19636     19627     19629     19634     19637
     19628     19627     19629     19630     19628     19627     19629     19634
     19629     19634     19637     19638     19629     19634     19637     19639
     19630     19629     19634     19635     19630     19629     19634     19636
     19630     19629     19634     19637     19631     19630     19629     19634
     19632     19630     19629     19634     19633     19630     19629     19634
     19635     19634     19637     19638     19635     19634     19637     19639
     19636     19634     19637     19638     19636     19634     19637     19639
     19640     19646     19649     19650     19640     19646     19649     19651
     19640     19646     19649     19652     19641     19640     19642     19643
     19641     19640     19642     19644     19641     19640     19642     19645
     19641     19640     19646     19647     19641     19640     19646     19648
     19641     19640     19646     19649     19642     19640     19646     19647
     19642     19640     19646     19648     19642     19640     19646     19649
     19643     19642     19640     19646     19644     19642     19640     19646
     19645     19642     19640     19646     19646     19649     19652     19653
     19646     19649     19652     19654     19646     19649     19652     19655
     19647     19646     19649     19650     19647     19646     19649     19651
     19647     19646     19649     19652     19648     19646     19649     19650
     19648     19646     19649     19651     19648     19646     19649     19652
     19649     19652     19655     19656     19649     19652     19655     19657
     19649     19652     19655     19661     19650     19649     19652     19653
     19650     19649     19652     19654     19650     19649     19652     19655
     19651     19649     19652     19653     19651     19649     19652     19654
     19651     19649     19652     19655     19652     19655     19657     19658
     19652     19655     19657     19659     19652     19655     19657     19660
     19652     19655     19661     19662     19652     19655     19661     19663
     19652     19655     19661     19664     19653     19652     19655     19656
     19653     19652     19655     19657     19653     19652     19655     19661
     19654     19652     19655     19656     19654     19652     19655     19657
     19654     19652     19655     19661     19656     19655     19657     19658
     19656     19655     19657     19659     19656     19655     19657     19660
     19656     19655     19661     19662     19656     19655     19661     19663
     19656     19655     19661     19664     19657     19655     19661     19662
     19657     19655     19661     19663     19657     19655     19661     19664
     19658     19657     19655     19661     19659     19657     19655     19661
     19660     19657     19655     19661     19665     19669     19672     19673
     19665     19669     19672     19703     19665     19711     19708     19703
     19665     19711     19708     19709     19665     19711     19708     19710
     19666     19665     19667     19668     19666     19665     19669     19670
     19666     19665     19669     19671     19666     19665     19669     19672
     19666     19665     19711     19708     19666     19665     19711     19712
     19666     19665     19711     19713     19667     19665     19669     19670
     19667     19665     19669     19671     19667     19665     19669     19672
     19667     19665     19711     19708     19667     19665     19711     19712
     19667     19665     19711     19713     19668     19667     19665     19669
     19668     19667     19665     19711     19669     19665     19711     19708
     19669     19665     19711     19712     19669     19665     19711     19713
     19669     19672     19673     19674     19669     19672     19673     19675
     19669     19672     19703     19701     19669     19672     19703     19704
     19669     19672     19703     19708     19670     19669     19665     19711
     19670     19669     19672     19673     19670     19669     19672     19703
     19671     19669     19665     19711     19671     19669     19672     19673
     19671     19669     19672     19703     19672     19669     19665     19711
     19672     19673     19675     19676     19672     19673     19675     19677
     19672     19673     19675     19678     19672     19703     19701     19678
     19672     19703     19701     19698     19672     19703     19701     19702
     19672     19703     19704     19705     19672     19703     19704     19706
     19672     19703     19704     19707     19672     19703     19708     19709
     19672     19703     19708     19710     19672     19703     19708     19711
     19673     19672     19703     19701     19673     19672     19703     19704
     19673     19672     19703     19708     19673     19675     19678     19679
     19673     19675     19678     19680     19673     19675     19678     19701
     19674     19673     19672     19703     19674     19673     19675     19676
     19674     19673     19675     19677     19674     19673     19675     19678
     19675     19673     19672     19703     19675     19678     19680     19681
     19675     19678     19680     19682     19675     19678     19680     19690
     19675     19678     19701     19698     19675     19678     19701     19702
     19675     19678     19701     19703     19676     19675     19678     19679
     19676     19675     19678     19680     19676     19675     19678     19701
     19677     19675     19678     19679     19677     19675     19678     19680
     19677     19675     19678     19701     19678     19680     19682     19683
     19678     19680     19682     19684     19678     19680     19682     19685
     19678     19680     19690     19688     19678     19680     19690     19691
     19678     19680     19690     19695     19678     19701     19698     19695
     19678     19701     19698     19699     19678     19701     19698     19700
     19678     19701     19703     19704     19678     19701     19703     19708
     19679     19678     19680     19681     19679     19678     19680     19682
     19679     19678     19680     19690     19679     19678     19701     19698
     19679     19678     19701     19702     19679     19678     19701     19703
     19680     19678     19701     19698     19680     19678     19701     19702
     19680     19678     19701     19703     19680     19682     19685     19686
     19680     19682     19685     19687     19680     19682     19685     19688
     19680     19690     19688     19685     19680     19690     19688     19689
     19680     19690     19688     19714     19680     19690     19691     19692
     19680     19690     19691     19693     19680     19690     19691     19694
     19680     19690     19695     19696     19680     19690     19695     19697
     19680     19690     19695     19698     19681     19680     19678     19701
     19681     19680     19682     19683     19681     19680     19682     19684
     19681     19680     19682     19685     19681     19680     19690     19688
     19681     19680     19690     19691     19681     19680     19690     19695
     19682     19680     19678     19701     19682     19680     19690     19688
     19682     19680     19690     19691     19682     19680     19690     19695
     19682     19685     19688     19689     19682     19685     19688     19690
     19682     19685     19688     19714     19683     19682     19680     19690
     19683     19682     19685     19686     19683     19682     19685     19687
     19683     19682     19685     19688     19684     19682     19680     19690
     19684     19682     19685     19686     19684     19682     19685     19687
     19684     19682     19685     19688     19685     19682     19680     19690
     19685     19688     19690     19691     19685     19688     19690     19695
     19685     19688     19714     19715     19685     19688     19714     19716
     19685     19688     19714     19720     19686     19685     19688     19689
     19686     19685     19688     19690     19686     19685     19688     19714
     19687     19685     19688     19689     19687     19685     19688     19690
     19687     19685     19688     19714     19688     19690     19691     19692
     19688     19690     19691     19693     19688     19690     19691     19694
     19688     19690     19695     19696     19688     19690     19695     19697
     19688     19690     19695     19698     19688     19714     19716     19717
     19688     19714     19716     19718     19688     19714     19716     19719
     19688     19714     19720     19721     19688     19714     19720     19722
     19688     19714     19720     19723     19689     19688     19690     19691
     19689     19688     19690     19695     19689     19688     19714     19715
     19689     19688     19714     19716     19689     19688     19714     19720
     19690     19680     19678     19701     19690     19688     19714     19715
     19690     19688     19714     19716     19690     19688     19714     19720
     19690     19695     19698     19699     19690     19695     19698     19700
     19690     19695     19698     19701     19691     19690     19688     19714
     19691     19690     19695     19696     19691     19690     19695     19697
     19691     19690     19695     19698     19692     19691     19690     19695
     19693     19691     19690     19695     19694     19691     19690     19695
     19695     19690     19688     19714     19695     19698     19701     19702
     19695     19698     19701     19703     19696     19695     19698     19699
     19696     19695     19698     19700     19696     19695     19698     19701
     19697     19695     19698     19699     19697     19695     19698     19700
     19697     19695     19698     19701     19698     19701     19703     19704
     19698     19701     19703     19708     19699     19698     19701     19702
     19699     19698     19701     19703     19700     19698     19701     19702
     19700     19698     19701     19703     19701     19703     19704     19705
     19701     19703     19704     19706     19701     19703     19704     19707
     19701     19703     19708     19709     19701     19703     19708     19710
     19701     19703     19708     19711     19702     19701     19703     19704
     19702     19701     19703     19708     19703     19708     19711     19712
     19703     19708     19711     19713     19704     19703     19708     19709
     19704     19703     19708     19710     19704     19703     19708     19711
     19705     19704     19703     19708     19706     19704     19703     19708
     19707     19704     19703     19708     19709     19708     19711     19712
     19709     19708     19711     19713     19710     19708     19711     19712
     19710     19708     19711     19713     19714     19720     19723     19724
     19714     19720     19723     19725     19714     19720     19723     19726
     19715     19714     19716     19717     19715     19714     19716     19718
     19715     19714     19716     19719     19715     19714     19720     19721
     19715     19714     19720     19722     19715     19714     19720     19723
     19716     19714     19720     19721     19716     19714     19720     19722
     19716     19714     19720     19723     19717     19716     19714     19720
     19718     19716     19714     19720     19719     19716     19714     19720
     19720     19723     19726     19727     19720     19723     19726     19728
     19720     19723     19726     19729     19721     19720     19723     19724
     19721     19720     19723     19725     19721     19720     19723     19726
     19722     19720     19723     19724     19722     19720     19723     19725
     19722     19720     19723     19726     19723     19726     19729     19730
     19723     19726     19729     19731     19723     19726     19729     19735
     19724     19723     19726     19727     19724     19723     19726     19728
     19724     19723     19726     19729     19725     19723     19726     19727
     19725     19723     19726     19728     19725     19723     19726     19729
     19726     19729     19731     19732     19726     19729     19731     19733
     19726     19729     19731     19734     19726     19729     19735     19736
     19726     19729     19735     19737     19726     19729     19735     19738
     19727     19726     19729     19730     19727     19726     19729     19731
     19727     19726     19729     19735     19728     19726     19729     19730
     19728     19726     19729     19731     19728     19726     19729     19735
     19730     19729     19731     19732     19730     19729     19731     19733
     19730     19729     19731     19734     19730     19729     19735     19736
     19730     19729     19735     19737     19730     19729     19735     19738
     19731     19729     19735     19736     19731     19729     19735     19737
     19731     19729     19735     19738     19732     19731     19729     19735
     19733     19731     19729     19735     19734     19731     19729     19735
     19739     19743     19746     19747     19739     19743     19746     19777
     19739     19785     19782     19777     19739     19785     19782     19783
     19739     19785     19782     19784     19740     19739     19741     19742
     19740     19739     19743     19744     19740     19739     19743     19745
     19740     19739     19743     19746     19740     19739     19785     19782
     19740     19739     19785     19786     19740     19739     19785     19787
     19741     19739     19743     19744     19741     19739     19743     19745
     19741     19739     19743     19746     19741     19739     19785     19782
     19741     19739     19785     19786     19741     19739     19785     19787
     19742     19741     19739     19743     19742     19741     19739     19785
     19743     19739     19785     19782     19743     19739     19785     19786
     19743     19739     19785     19787     19743     19746     19747     19748
     19743     19746     19747     19749     19743     19746     19777     19775
     19743     19746     19777     19778     19743     19746     19777     19782
     19744     19743     19739     19785     19744     19743     19746     19747
     19744     19743     19746     19777     19745     19743     19739     19785
     19745     19743     19746     19747     19745     19743     19746     19777
     19746     19743     19739     19785     19746     19747     19749     19750
     19746     19747     19749     19751     19746     19747     19749     19752
     19746     19777     19775     19752     19746     19777     19775     19772
     19746     19777     19775     19776     19746     19777     19778     19779
     19746     19777     19778     19780     19746     19777     19778     19781
     19746     19777     19782     19783     19746     19777     19782     19784
     19746     19777     19782     19785     19747     19746     19777     19775
     19747     19746     19777     19778     19747     19746     19777     19782
     19747     19749     19752     19753     19747     19749     19752     19754
     19747     19749     19752     19775     19748     19747     19746     19777
     19748     19747     19749     19750     19748     19747     19749     19751
     19748     19747     19749     19752     19749     19747     19746     19777
     19749     19752     19754     19755     19749     19752     19754     19756
     19749     19752     19754     19764     19749     19752     19775     19772
     19749     19752     19775     19776     19749     19752     19775     19777
     19750     19749     19752     19753     19750     19749     19752     19754
     19750     19749     19752     19775     19751     19749     19752     19753
     19751     19749     19752     19754     19751     19749     19752     19775
     19752     19754     19756     19757     19752     19754     19756     19758
     19752     19754     19756     19759     19752     19754     19764     19762
     19752     19754     19764     19765     19752     19754     19764     19769
     19752     19775     19772     19769     19752     19775     19772     19773
     19752     19775     19772     19774     19752     19775     19777     19778
     19752     19775     19777     19782     19753     19752     19754     19755
     19753     19752     19754     19756     19753     19752     19754     19764
     19753     19752     19775     19772     19753     19752     19775     19776
     19753     19752     19775     19777     19754     19752     19775     19772
     19754     19752     19775     19776     19754     19752     19775     19777
     19754     19756     19759     19760     19754     19756     19759     19761
     19754     19756     19759     19762     19754     19764     19762     19759
     19754     19764     19762     19763     19754     19764     19762     19788
     19754     19764     19765     19766     19754     19764     19765     19767
     19754     19764     19765     19768     19754     19764     19769     19770
     19754     19764     19769     19771     19754     19764     19769     19772
     19755     19754     19752     19775     19755     19754     19756     19757
     19755     19754     19756     19758     19755     19754     19756     19759
     19755     19754     19764     19762     19755     19754     19764     19765
     19755     19754     19764     19769     19756     19754     19752     19775
     19756     19754     19764     19762     19756     19754     19764     19765
     19756     19754     19764     19769     19756     19759     19762     19763
     19756     19759     19762     19764     19756     19759     19762     19788
     19757     19756     19754     19764     19757     19756     19759     19760
     19757     19756     19759     19761     19757     19756     19759     19762
     19758     19756     19754     19764     19758     19756     19759     19760
     19758     19756     19759     19761     19758     19756     19759     19762
     19759     19756     19754     19764     19759     19762     19764     19765
     19759     19762     19764     19769     19759     19762     19788     19789
     19759     19762     19788     19790     19759     19762     19788     19794
     19760     19759     19762     19763     19760     19759     19762     19764
     19760     19759     19762     19788     19761     19759     19762     19763
     19761     19759     19762     19764     19761     19759     19762     19788
     19762     19764     19765     19766     19762     19764     19765     19767
     19762     19764     19765     19768     19762     19764     19769     19770
     19762     19764     19769     19771     19762     19764     19769     19772
     19762     19788     19790     19791     19762     19788     19790     19792
     19762     19788     19790     19793     19762     19788     19794     19795
     19762     19788     19794     19796     19762     19788     19794     19797
     19763     19762     19764     19765     19763     19762     19764     19769
     19763     19762     19788     19789     19763     19762     19788     19790
     19763     19762     19788     19794     19764     19754     19752     19775
     19764     19762     19788     19789     19764     19762     19788     19790
     19764     19762     19788     19794     19764     19769     19772     19773
     19764     19769     19772     19774     19764     19769     19772     19775
     19765     19764     19762     19788     19765     19764     19769     19770
     19765     19764     19769     19771     19765     19764     19769     19772
     19766     19765     19764     19769     19767     19765     19764     19769
     19768     19765     19764     19769     19769     19764     19762     19788
     19769     19772     19775     19776     19769     19772     19775     19777
     19770     19769     19772     19773     19770     19769     19772     19774
     19770     19769     19772     19775     19771     19769     19772     19773
     19771     19769     19772     19774     19771     19769     19772     19775
     19772     19775     19777     19778     19772     19775     19777     19782
     19773     19772     19775     19776     19773     19772     19775     19777
     19774     19772     19775     19776     19774     19772     19775     19777
     19775     19777     19778     19779     19775     19777     19778     19780
     19775     19777     19778     19781     19775     19777     19782     19783
     19775     19777     19782     19784     19775     19777     19782     19785
     19776     19775     19777     19778     19776     19775     19777     19782
     19777     19782     19785     19786     19777     19782     19785     19787
     19778     19777     19782     19783     19778     19777     19782     19784
     19778     19777     19782     19785     19779     19778     19777     19782
     19780     19778     19777     19782     19781     19778     19777     19782
     19783     19782     19785     19786     19783     19782     19785     19787
     19784     19782     19785     19786     19784     19782     19785     19787
     19788     19794     19797     19798     19788     19794     19797     19799
     19788     19794     19797     19800     19789     19788     19790     19791
     19789     19788     19790     19792     19789     19788     19790     19793
     19789     19788     19794     19795     19789     19788     19794     19796
     19789     19788     19794     19797     19790     19788     19794     19795
     19790     19788     19794     19796     19790     19788     19794     19797
     19791     19790     19788     19794     19792     19790     19788     19794
     19793     19790     19788     19794     19794     19797     19800     19801
     19794     19797     19800     19802     19794     19797     19800     19803
     19795     19794     19797     19798     19795     19794     19797     19799
     19795     19794     19797     19800     19796     19794     19797     19798
     19796     19794     19797     19799     19796     19794     19797     19800
     19797     19800     19803     19804     19797     19800     19803     19805
     19797     19800     19803     19809     19798     19797     19800     19801
     19798     19797     19800     19802     19798     19797     19800     19803
     19799     19797     19800     19801     19799     19797     19800     19802
     19799     19797     19800     19803     19800     19803     19805     19806
     19800     19803     19805     19807     19800     19803     19805     19808
     19800     19803     19809     19810     19800     19803     19809     19811
     19800     19803     19809     19812     19801     19800     19803     19804
     19801     19800     19803     19805     19801     19800     19803     19809
     19802     19800     19803     19804     19802     19800     19803     19805
     19802     19800     19803     19809     19804     19803     19805     19806
     19804     19803     19805     19807     19804     19803     19805     19808
     19804     19803     19809     19810     19804     19803     19809     19811
     19804     19803     19809     19812     19805     19803     19809     19810
     19805     19803     19809     19811     19805     19803     19809     19812
     19806     19805     19803     19809     19807     19805     19803     19809
     19808     19805     19803     19809     19813     19817     19820     19821
     19813     19817     19820     19851     19813     19859     19856     19851
     19813     19859     19856     19857     19813     19859     19856     19858
     19814     19813     19815     19816     19814     19813     19817     19818
     19814     19813     19817     19819     19814     19813     19817     19820
     19814     19813     19859     19856     19814     19813     19859     19860
     19814     19813     19859     19861     19815     19813     19817     19818
     19815     19813     19817     19819     19815     19813     19817     19820
     19815     19813     19859     19856     19815     19813     19859     19860
     19815     19813     19859     19861     19816     19815     19813     19817
     19816     19815     19813     19859     19817     19813     19859     19856
     19817     19813     19859     19860     19817     19813     19859     19861
     19817     19820     19821     19822     19817     19820     19821     19823
     19817     19820     19851     19849     19817     19820     19851     19852
     19817     19820     19851     19856     19818     19817     19813     19859
     19818     19817     19820     19821     19818     19817     19820     19851
     19819     19817     19813     19859     19819     19817     19820     19821
     19819     19817     19820     19851     19820     19817     19813     19859
     19820     19821     19823     19824     19820     19821     19823     19825
     19820     19821     19823     19826     19820     19851     19849     19826
     19820     19851     19849     19846     19820     19851     19849     19850
     19820     19851     19852     19853     19820     19851     19852     19854
     19820     19851     19852     19855     19820     19851     19856     19857
     19820     19851     19856     19858     19820     19851     19856     19859
     19821     19820     19851     19849     19821     19820     19851     19852
     19821     19820     19851     19856     19821     19823     19826     19827
     19821     19823     19826     19828     19821     19823     19826     19849
     19822     19821     19820     19851     19822     19821     19823     19824
     19822     19821     19823     19825     19822     19821     19823     19826
     19823     19821     19820     19851     19823     19826     19828     19829
     19823     19826     19828     19830     19823     19826     19828     19838
     19823     19826     19849     19846     19823     19826     19849     19850
     19823     19826     19849     19851     19824     19823     19826     19827
     19824     19823     19826     19828     19824     19823     19826     19849
     19825     19823     19826     19827     19825     19823     19826     19828
     19825     19823     19826     19849     19826     19828     19830     19831
     19826     19828     19830     19832     19826     19828     19830     19833
     19826     19828     19838     19836     19826     19828     19838     19839
     19826     19828     19838     19843     19826     19849     19846     19843
     19826     19849     19846     19847     19826     19849     19846     19848
     19826     19849     19851     19852     19826     19849     19851     19856
     19827     19826     19828     19829     19827     19826     19828     19830
     19827     19826     19828     19838     19827     19826     19849     19846
     19827     19826     19849     19850     19827     19826     19849     19851
     19828     19826     19849     19846     19828     19826     19849     19850
     19828     19826     19849     19851     19828     19830     19833     19834
     19828     19830     19833     19835     19828     19830     19833     19836
     19828     19838     19836     19833     19828     19838     19836     19837
     19828     19838     19836     19862     19828     19838     19839     19840
     19828     19838     19839     19841     19828     19838     19839     19842
     19828     19838     19843     19844     19828     19838     19843     19845
     19828     19838     19843     19846     19829     19828     19826     19849
     19829     19828     19830     19831     19829     19828     19830     19832
     19829     19828     19830     19833     19829     19828     19838     19836
     19829     19828     19838     19839     19829     19828     19838     19843
     19830     19828     19826     19849     19830     19828     19838     19836
     19830     19828     19838     19839     19830     19828     19838     19843
     19830     19833     19836     19837     19830     19833     19836     19838
     19830     19833     19836     19862     19831     19830     19828     19838
     19831     19830     19833     19834     19831     19830     19833     19835
     19831     19830     19833     19836     19832     19830     19828     19838
     19832     19830     19833     19834     19832     19830     19833     19835
     19832     19830     19833     19836     19833     19830     19828     19838
     19833     19836     19838     19839     19833     19836     19838     19843
     19833     19836     19862     19863     19833     19836     19862     19864
     19833     19836     19862     19868     19834     19833     19836     19837
     19834     19833     19836     19838     19834     19833     19836     19862
     19835     19833     19836     19837     19835     19833     19836     19838
     19835     19833     19836     19862     19836     19838     19839     19840
     19836     19838     19839     19841     19836     19838     19839     19842
     19836     19838     19843     19844     19836     19838     19843     19845
     19836     19838     19843     19846     19836     19862     19864     19865
     19836     19862     19864     19866     19836     19862     19864     19867
     19836     19862     19868     19869     19836     19862     19868     19870
     19836     19862     19868     19871     19837     19836     19838     19839
     19837     19836     19838     19843     19837     19836     19862     19863
     19837     19836     19862     19864     19837     19836     19862     19868
     19838     19828     19826     19849     19838     19836     19862     19863
     19838     19836     19862     19864     19838     19836     19862     19868
     19838     19843     19846     19847     19838     19843     19846     19848
     19838     19843     19846     19849     19839     19838     19836     19862
     19839     19838     19843     19844     19839     19838     19843     19845
     19839     19838     19843     19846     19840     19839     19838     19843
     19841     19839     19838     19843     19842     19839     19838     19843
     19843     19838     19836     19862     19843     19846     19849     19850
     19843     19846     19849     19851     19844     19843     19846     19847
     19844     19843     19846     19848     19844     19843     19846     19849
     19845     19843     19846     19847     19845     19843     19846     19848
     19845     19843     19846     19849     19846     19849     19851     19852
     19846     19849     19851     19856     19847     19846     19849     19850
     19847     19846     19849     19851     19848     19846     19849     19850
     19848     19846     19849     19851     19849     19851     19852     19853
     19849     19851     19852     19854     19849     19851     19852     19855
     19849     19851     19856     19857     19849     19851     19856     19858
     19849     19851     19856     19859     19850     19849     19851     19852
     19850     19849     19851     19856     19851     19856     19859     19860
     19851     19856     19859     19861     19852     19851     19856     19857
     19852     19851     19856     19858     19852     19851     19856     19859
     19853     19852     19851     19856     19854     19852     19851     19856
     19855     19852     19851     19856     19857     19856     19859     19860
     19857     19856     19859     19861     19858     19856     19859     19860
     19858     19856     19859     19861     19862     19868     19871     19872
     19862     19868     19871     19873     19862     19868     19871     19874
     19863     19862     19864     19865     19863     19862     19864     19866
     19863     19862     19864     19867     19863     19862     19868     19869
     19863     19862     19868     19870     19863     19862     19868     19871
     19864     19862     19868     19869     19864     19862     19868     19870
     19864     19862     19868     19871     19865     19864     19862     19868
     19866     19864     19862     19868     19867     19864     19862     19868
     19868     19871     19874     19875     19868     19871     19874     19876
     19868     19871     19874     19877     19869     19868     19871     19872
     19869     19868     19871     19873     19869     19868     19871     19874
     19870     19868     19871     19872     19870     19868     19871     19873
     19870     19868     19871     19874     19871     19874     19877     19878
     19871     19874     19877     19879     19871     19874     19877     19883
     19872     19871     19874     19875     19872     19871     19874     19876
     19872     19871     19874     19877     19873     19871     19874     19875
     19873     19871     19874     19876     19873     19871     19874     19877
     19874     19877     19879     19880     19874     19877     19879     19881
     19874     19877     19879     19882     19874     19877     19883     19884
     19874     19877     19883     19885     19874     19877     19883     19886
     19875     19874     19877     19878     19875     19874     19877     19879
     19875     19874     19877     19883     19876     19874     19877     19878
     19876     19874     19877     19879     19876     19874     19877     19883
     19878     19877     19879     19880     19878     19877     19879     19881
     19878     19877     19879     19882     19878     19877     19883     19884
     19878     19877     19883     19885     19878     19877     19883     19886
     19879     19877     19883     19884     19879     19877     19883     19885
     19879     19877     19883     19886     19880     19879     19877     19883
     19881     19879     19877     19883     19882     19879     19877     19883
     19887     19891     19894     19895     19887     19891     19894     19925
     19887     19933     19930     19925     19887     19933     19930     19931
     19887     19933     19930     19932     19888     19887     19889     19890
     19888     19887     19891     19892     19888     19887     19891     19893
     19888     19887     19891     19894     19888     19887     19933     19930
     19888     19887     19933     19934     19888     19887     19933     19935
     19889     19887     19891     19892     19889     19887     19891     19893
     19889     19887     19891     19894     19889     19887     19933     19930
     19889     19887     19933     19934     19889     19887     19933     19935
     19890     19889     19887     19891     19890     19889     19887     19933
     19891     19887     19933     19930     19891     19887     19933     19934
     19891     19887     19933     19935     19891     19894     19895     19896
     19891     19894     19895     19897     19891     19894     19925     19923
     19891     19894     19925     19926     19891     19894     19925     19930
     19892     19891     19887     19933     19892     19891     19894     19895
     19892     19891     19894     19925     19893     19891     19887     19933
     19893     19891     19894     19895     19893     19891     19894     19925
     19894     19891     19887     19933     19894     19895     19897     19898
     19894     19895     19897     19899     19894     19895     19897     19900
     19894     19925     19923     19900     19894     19925     19923     19920
     19894     19925     19923     19924     19894     19925     19926     19927
     19894     19925     19926     19928     19894     19925     19926     19929
     19894     19925     19930     19931     19894     19925     19930     19932
     19894     19925     19930     19933     19895     19894     19925     19923
     19895     19894     19925     19926     19895     19894     19925     19930
     19895     19897     19900     19901     19895     19897     19900     19902
     19895     19897     19900     19923     19896     19895     19894     19925
     19896     19895     19897     19898     19896     19895     19897     19899
     19896     19895     19897     19900     19897     19895     19894     19925
     19897     19900     19902     19903     19897     19900     19902     19904
     19897     19900     19902     19912     19897     19900     19923     19920
     19897     19900     19923     19924     19897     19900     19923     19925
     19898     19897     19900     19901     19898     19897     19900     19902
     19898     19897     19900     19923     19899     19897     19900     19901
     19899     19897     19900     19902     19899     19897     19900     19923
     19900     19902     19904     19905     19900     19902     19904     19906
     19900     19902     19904     19907     19900     19902     19912     19910
     19900     19902     19912     19913     19900     19902     19912     19917
     19900     19923     19920     19917     19900     19923     19920     19921
     19900     19923     19920     19922     19900     19923     19925     19926
     19900     19923     19925     19930     19901     19900     19902     19903
     19901     19900     19902     19904     19901     19900     19902     19912
     19901     19900     19923     19920     19901     19900     19923     19924
     19901     19900     19923     19925     19902     19900     19923     19920
     19902     19900     19923     19924     19902     19900     19923     19925
     19902     19904     19907     19908     19902     19904     19907     19909
     19902     19904     19907     19910     19902     19912     19910     19907
     19902     19912     19910     19911     19902     19912     19910     19936
     19902     19912     19913     19914     19902     19912     19913     19915
     19902     19912     19913     19916     19902     19912     19917     19918
     19902     19912     19917     19919     19902     19912     19917     19920
     19903     19902     19900     19923     19903     19902     19904     19905
     19903     19902     19904     19906     19903     19902     19904     19907
     19903     19902     19912     19910     19903     19902     19912     19913
     19903     19902     19912     19917     19904     19902     19900     19923
     19904     19902     19912     19910     19904     19902     19912     19913
     19904     19902     19912     19917     19904     19907     19910     19911
     19904     19907     19910     19912     19904     19907     19910     19936
     19905     19904     19902     19912     19905     19904     19907     19908
     19905     19904     19907     19909     19905     19904     19907     19910
     19906     19904     19902     19912     19906     19904     19907     19908
     19906     19904     19907     19909     19906     19904     19907     19910
     19907     19904     19902     19912     19907     19910     19912     19913
     19907     19910     19912     19917     19907     19910     19936     19937
     19907     19910     19936     19938     19907     19910     19936     19942
     19908     19907     19910     19911     19908     19907     19910     19912
     19908     19907     19910     19936     19909     19907     19910     19911
     19909     19907     19910     19912     19909     19907     19910     19936
     19910     19912     19913     19914     19910     19912     19913     19915
     19910     19912     19913     19916     19910     19912     19917     19918
     19910     19912     19917     19919     19910     19912     19917     19920
     19910     19936     19938     19939     19910     19936     19938     19940
     19910     19936     19938     19941     19910     19936     19942     19943
     19910     19936     19942     19944     19910     19936     19942     19945
     19911     19910     19912     19913     19911     19910     19912     19917
     19911     19910     19936     19937     19911     19910     19936     19938
     19911     19910     19936     19942     19912     19902     19900     19923
     19912     19910     19936     19937     19912     19910     19936     19938
     19912     19910     19936     19942     19912     19917     19920     19921
     19912     19917     19920     19922     19912     19917     19920     19923
     19913     19912     19910     19936     19913     19912     19917     19918
     19913     19912     19917     19919     19913     19912     19917     19920
     19914     19913     19912     19917     19915     19913     19912     19917
     19916     19913     19912     19917     19917     19912     19910     19936
     19917     19920     19923     19924     19917     19920     19923     19925
     19918     19917     19920     19921     19918     19917     19920     19922
     19918     19917     19920     19923     19919     19917     19920     19921
     19919     19917     19920     19922     19919     19917     19920     19923
     19920     19923     19925     19926     19920     19923     19925     19930
     19921     19920     19923     19924     19921     19920     19923     19925
     19922     19920     19923     19924     19922     19920     19923     19925
     19923     19925     19926     19927     19923     19925     19926     19928
     19923     19925     19926     19929     19923     19925     19930     19931
     19923     19925     19930     19932     19923     19925     19930     19933
     19924     19923     19925     19926     19924     19923     19925     19930
     19925     19930     19933     19934     19925     19930     19933     19935
     19926     19925     19930     19931     19926     19925     19930     19932
     19926     19925     19930     19933     19927     19926     19925     19930
     19928     19926     19925     19930     19929     19926     19925     19930
     19931     19930     19933     19934     19931     19930     19933     19935
     19932     19930     19933     19934     19932     19930     19933     19935
     19936     19942     19945     19946     19936     19942     19945     19947
     19936     19942     19945     19948     19937     19936     19938     19939
     19937     19936     19938     19940     19937     19936     19938     19941
     19937     19936     19942     19943     19937     19936     19942     19944
     19937     19936     19942     19945     19938     19936     19942     19943
     19938     19936     19942     19944     19938     19936     19942     19945
     19939     19938     19936     19942     19940     19938     19936     19942
     19941     19938     19936     19942     19942     19945     19948     19949
     19942     19945     19948     19950     19942     19945     19948     19951
     19943     19942     19945     19946     19943     19942     19945     19947
     19943     19942     19945     19948     19944     19942     19945     19946
     19944     19942     19945     19947     19944     19942     19945     19948
     19945     19948     19951     19952     19945     19948     19951     19953
     19945     19948     19951     19957     19946     19945     19948     19949
     19946     19945     19948     19950     19946     19945     19948     19951
     19947     19945     19948     19949     19947     19945     19948     19950
     19947     19945     19948     19951     19948     19951     19953     19954
     19948     19951     19953     19955     19948     19951     19953     19956
     19948     19951     19957     19958     19948     19951     19957     19959
     19948     19951     19957     19960     19949     19948     19951     19952
     19949     19948     19951     19953     19949     19948     19951     19957
     19950     19948     19951     19952     19950     19948     19951     19953
     19950     19948     19951     19957     19952     19951     19953     19954
     19952     19951     19953     19955     19952     19951     19953     19956
     19952     19951     19957     19958     19952     19951     19957     19959
     19952     19951     19957     19960     19953     19951     19957     19958
     19953     19951     19957     19959     19953     19951     19957     19960
     19954     19953     19951     19957     19955     19953     19951     19957
     19956     19953     19951     19957     19961     19965     19968     19969
     19961     19965     19968     19999     19961     20007     20004     19999
     19961     20007     20004     20005     19961     20007     20004     20006
     19962     19961     19963     19964     19962     19961     19965     19966
     19962     19961     19965     19967     19962     19961     19965     19968
     19962     19961     20007     20004     19962     19961     20007     20008
     19962     19961     20007     20009     19963     19961     19965     19966
     19963     19961     19965     19967     19963     19961     19965     19968
     19963     19961     20007     20004     19963     19961     20007     20008
     19963     19961     20007     20009     19964     19963     19961     19965
     19964     19963     19961     20007     19965     19961     20007     20004
     19965     19961     20007     20008     19965     19961     20007     20009
     19965     19968     19969     19970     19965     19968     19969     19971
     19965     19968     19999     19997     19965     19968     19999     20000
     19965     19968     19999     20004     19966     19965     19961     20007
     19966     19965     19968     19969     19966     19965     19968     19999
     19967     19965     19961     20007     19967     19965     19968     19969
     19967     19965     19968     19999     19968     19965     19961     20007
     19968     19969     19971     19972     19968     19969     19971     19973
     19968     19969     19971     19974     19968     19999     19997     19974
     19968     19999     19997     19994     19968     19999     19997     19998
     19968     19999     20000     20001     19968     19999     20000     20002
     19968     19999     20000     20003     19968     19999     20004     20005
     19968     19999     20004     20006     19968     19999     20004     20007
     19969     19968     19999     19997     19969     19968     19999     20000
     19969     19968     19999     20004     19969     19971     19974     19975
     19969     19971     19974     19976     19969     19971     19974     19997
     19970     19969     19968     19999     19970     19969     19971     19972
     19970     19969     19971     19973     19970     19969     19971     19974
     19971     19969     19968     19999     19971     19974     19976     19977
     19971     19974     19976     19978     19971     19974     19976     19986
     19971     19974     19997     19994     19971     19974     19997     19998
     19971     19974     19997     19999     19972     19971     19974     19975
     19972     19971     19974     19976     19972     19971     19974     19997
     19973     19971     19974     19975     19973     19971     19974     19976
     19973     19971     19974     19997     19974     19976     19978     19979
     19974     19976     19978     19980     19974     19976     19978     19981
     19974     19976     19986     19984     19974     19976     19986     19987
     19974     19976     19986     19991     19974     19997     19994     19991
     19974     19997     19994     19995     19974     19997     19994     19996
     19974     19997     19999     20000     19974     19997     19999     20004
     19975     19974     19976     19977     19975     19974     19976     19978
     19975     19974     19976     19986     19975     19974     19997     19994
     19975     19974     19997     19998     19975     19974     19997     19999
     19976     19974     19997     19994     19976     19974     19997     19998
     19976     19974     19997     19999     19976     19978     19981     19982
     19976     19978     19981     19983     19976     19978     19981     19984
     19976     19986     19984     19981     19976     19986     19984     19985
     19976     19986     19984     20010     19976     19986     19987     19988
     19976     19986     19987     19989     19976     19986     19987     19990
     19976     19986     19991     19992     19976     19986     19991     19993
     19976     19986     19991     19994     19977     19976     19974     19997
     19977     19976     19978     19979     19977     19976     19978     19980
     19977     19976     19978     19981     19977     19976     19986     19984
     19977     19976     19986     19987     19977     19976     19986     19991
     19978     19976     19974     19997     19978     19976     19986     19984
     19978     19976     19986     19987     19978     19976     19986     19991
     19978     19981     19984     19985     19978     19981     19984     19986
     19978     19981     19984     20010     19979     19978     19976     19986
     19979     19978     19981     19982     19979     19978     19981     19983
     19979     19978     19981     19984     19980     19978     19976     19986
     19980     19978     19981     19982     19980     19978     19981     19983
     19980     19978     19981     19984     19981     19978     19976     19986
     19981     19984     19986     19987     19981     19984     19986     19991
     19981     19984     20010     20011     19981     19984     20010     20012
     19981     19984     20010     20016     19982     19981     19984     19985
     19982     19981     19984     19986     19982     19981     19984     20010
     19983     19981     19984     19985     19983     19981     19984     19986
     19983     19981     19984     20010     19984     19986     19987     19988
     19984     19986     19987     19989     19984     19986     19987     19990
     19984     19986     19991     19992     19984     19986     19991     19993
     19984     19986     19991     19994     19984     20010     20012     20013
     19984     20010     20012     20014     19984     20010     20012     20015
     19984     20010     20016     20017     19984     20010     20016     20018
     19984     20010     20016     20019     19985     19984     19986     19987
     19985     19984     19986     19991     19985     19984     20010     20011
     19985     19984     20010     20012     19985     19984     20010     20016
     19986     19976     19974     19997     19986     19984     20010     20011
     19986     19984     20010     20012     19986     19984     20010     20016
     19986     19991     19994     19995     19986     19991     19994     19996
     19986     19991     19994     19997     19987     19986     19984     20010
     19987     19986     19991     19992     19987     19986     19991     19993
     19987     19986     19991     19994     19988     19987     19986     19991
     19989     19987     19986     19991     19990     19987     19986     19991
     19991     19986     19984     20010     19991     19994     19997     19998
     19991     19994     19997     19999     19992     19991     19994     19995
     19992     19991     19994     19996     19992     19991     19994     19997
     19993     19991     19994     19995     19993     19991     19994     19996
     19993     19991     19994     19997     19994     19997     19999     20000
     19994     19997     19999     20004     19995     19994     19997     19998
     19995     19994     19997     19999     19996     19994     19997     19998
     19996     19994     19997     19999     19997     19999     20000     20001
     19997     19999     20000     20002     19997     19999     20000     20003
     19997     19999     20004     20005     19997     19999     20004     20006
     19997     19999     20004     20007     19998     19997     19999     20000
     19998     19997     19999     20004     19999     20004     20007     20008
     19999     20004     20007     20009     20000     19999     20004     20005
     20000     19999     20004     20006     20000     19999     20004     20007
     20001     20000     19999     20004     20002     20000     19999     20004
     20003     20000     19999     20004     20005     20004     20007     20008
     20005     20004     20007     20009     20006     20004     20007     20008
     20006     20004     20007     20009     20010     20016     20019     20020
     20010     20016     20019     20021     20010     20016     20019     20022
     20011     20010     20012     20013     20011     20010     20012     20014
     20011     20010     20012     20015     20011     20010     20016     20017
     20011     20010     20016     20018     20011     20010     20016     20019
     20012     20010     20016     20017     20012     20010     20016     20018
     20012     20010     20016     20019     20013     20012     20010     20016
     20014     20012     20010     20016     20015     20012     20010     20016
     20016     20019     20022     20023     20016     20019     20022     20024
     20016     20019     20022     20025     20017     20016     20019     20020
     20017     20016     20019     20021     20017     20016     20019     20022
     20018     20016     20019     20020     20018     20016     20019     20021
     20018     20016     20019     20022     20019     20022     20025     20026
     20019     20022     20025     20027     20019     20022     20025     20031
     20020     20019     20022     20023     20020     20019     20022     20024
     20020     20019     20022     20025     20021     20019     20022     20023
     20021     20019     20022     20024     20021     20019     20022     20025
     20022     20025     20027     20028     20022     20025     20027     20029
     20022     20025     20027     20030     20022     20025     20031     20032
     20022     20025     20031     20033     20022     20025     20031     20034
     20023     20022     20025     20026     20023     20022     20025     20027
     20023     20022     20025     20031     20024     20022     20025     20026
     20024     20022     20025     20027     20024     20022     20025     20031
     20026     20025     20027     20028     20026     20025     20027     20029
     20026     20025     20027     20030     20026     20025     20031     20032
     20026     20025     20031     20033     20026     20025     20031     20034
     20027     20025     20031     20032     20027     20025     20031     20033
     20027     20025     20031     20034     20028     20027     20025     20031
     20029     20027     20025     20031     20030     20027     20025     20031
     20035     20039     20042     20043     20035     20039     20042     20073
     20035     20081     20078     20073     20035     20081     20078     20079
     20035     20081     20078     20080     20036     20035     20037     20038
     20036     20035     20039     20040     20036     20035     20039     20041
     20036     20035     20039     20042     20036     20035     20081     20078
     20036     20035     20081     20082     20036     20035     20081     20083
     20037     20035     20039     20040     20037     20035     20039     20041
     20037     20035     20039     20042     20037     20035     20081     20078
     20037     20035     20081     20082     20037     20035     20081     20083
     20038     20037     20035     20039     20038     20037     20035     20081
     20039     20035     20081     20078     20039     20035     20081     20082
     20039     20035     20081     20083     20039     20042     20043     20044
     20039     20042     20043     20045     20039     20042     20073     20071
     20039     20042     20073     20074     20039     20042     20073     20078
     20040     20039     20035     20081     20040     20039     20042     20043
     20040     20039     20042     20073     20041     20039     20035     20081
     20041     20039     20042     20043     20041     20039     20042     20073
     20042     20039     20035     20081     20042     20043     20045     20046
     20042     20043     20045     20047     20042     20043     20045     20048
     20042     20073     20071     20048     20042     20073     20071     20068
     20042     20073     20071     20072     20042     20073     20074     20075
     20042     20073     20074     20076     20042     20073     20074     20077
     20042     20073     20078     20079     20042     20073     20078     20080
     20042     20073     20078     20081     20043     20042     20073     20071
     20043     20042     20073     20074     20043     20042     20073     20078
     20043     20045     20048     20049     20043     20045     20048     20050
     20043     20045     20048     20071     20044     20043     20042     20073
     20044     20043     20045     20046     20044     20043     20045     20047
     20044     20043     20045     20048     20045     20043     20042     20073
     20045     20048     20050     20051     20045     20048     20050     20052
     20045     20048     20050     20060     20045     20048     20071     20068
     20045     20048     20071     20072     20045     20048     20071     20073
     20046     20045     20048     20049     20046     20045     20048     20050
     20046     20045     20048     20071     20047     20045     20048     20049
     20047     20045     20048     20050     20047     20045     20048     20071
     20048     20050     20052     20053     20048     20050     20052     20054
     20048     20050     20052     20055     20048     20050     20060     20058
     20048     20050     20060     20061     20048     20050     20060     20065
     20048     20071     20068     20065     20048     20071     20068     20069
     20048     20071     20068     20070     20048     20071     20073     20074
     20048     20071     20073     20078     20049     20048     20050     20051
     20049     20048     20050     20052     20049     20048     20050     20060
     20049     20048     20071     20068     20049     20048     20071     20072
     20049     20048     20071     20073     20050     20048     20071     20068
     20050     20048     20071     20072     20050     20048     20071     20073
     20050     20052     20055     20056     20050     20052     20055     20057
     20050     20052     20055     20058     20050     20060     20058     20055
     20050     20060     20058     20059     20050     20060     20058     20084
     20050     20060     20061     20062     20050     20060     20061     20063
     20050     20060     20061     20064     20050     20060     20065     20066
     20050     20060     20065     20067     20050     20060     20065     20068
     20051     20050     20048     20071     20051     20050     20052     20053
     20051     20050     20052     20054     20051     20050     20052     20055
     20051     20050     20060     20058     20051     20050     20060     20061
     20051     20050     20060     20065     20052     20050     20048     20071
     20052     20050     20060     20058     20052     20050     20060     20061
     20052     20050     20060     20065     20052     20055     20058     20059
     20052     20055     20058     20060     20052     20055     20058     20084
     20053     20052     20050     20060     20053     20052     20055     20056
     20053     20052     20055     20057     20053     20052     20055     20058
     20054     20052     20050     20060     20054     20052     20055     20056
     20054     20052     20055     20057     20054     20052     20055     20058
     20055     20052     20050     20060     20055     20058     20060     20061
     20055     20058     20060     20065     20055     20058     20084     20085
     20055     20058     20084     20086     20055     20058     20084     20090
     20056     20055     20058     20059     20056     20055     20058     20060
     20056     20055     20058     20084     20057     20055     20058     20059
     20057     20055     20058     20060     20057     20055     20058     20084
     20058     20060     20061     20062     20058     20060     20061     20063
     20058     20060     20061     20064     20058     20060     20065     20066
     20058     20060     20065     20067     20058     20060     20065     20068
     20058     20084     20086     20087     20058     20084     20086     20088
     20058     20084     20086     20089     20058     20084     20090     20091
     20058     20084     20090     20092     20058     20084     20090     20093
     20059     20058     20060     20061     20059     20058     20060     20065
     20059     20058     20084     20085     20059     20058     20084     20086
     20059     20058     20084     20090     20060     20050     20048     20071
     20060     20058     20084     20085     20060     20058     20084     20086
     20060     20058     20084     20090     20060     20065     20068     20069
     20060     20065     20068     20070     20060     20065     20068     20071
     20061     20060     20058     20084     20061     20060     20065     20066
     20061     20060     20065     20067     20061     20060     20065     20068
     20062     20061     20060     20065     20063     20061     20060     20065
     20064     20061     20060     20065     20065     20060     20058     20084
     20065     20068     20071     20072     20065     20068     20071     20073
     20066     20065     20068     20069     20066     20065     20068     20070
     20066     20065     20068     20071     20067     20065     20068     20069
     20067     20065     20068     20070     20067     20065     20068     20071
     20068     20071     20073     20074     20068     20071     20073     20078
     20069     20068     20071     20072     20069     20068     20071     20073
     20070     20068     20071     20072     20070     20068     20071     20073
     20071     20073     20074     20075     20071     20073     20074     20076
     20071     20073     20074     20077     20071     20073     20078     20079
     20071     20073     20078     20080     20071     20073     20078     20081
     20072     20071     20073     20074     20072     20071     20073     20078
     20073     20078     20081     20082     20073     20078     20081     20083
     20074     20073     20078     20079     20074     20073     20078     20080
     20074     20073     20078     20081     20075     20074     20073     20078
     20076     20074     20073     20078     20077     20074     20073     20078
     20079     20078     20081     20082     20079     20078     20081     20083
     20080     20078     20081     20082     20080     20078     20081     20083
     20084     20090     20093     20094     20084     20090     20093     20095
     20084     20090     20093     20096     20085     20084     20086     20087
     20085     20084     20086     20088     20085     20084     20086     20089
     20085     20084     20090     20091     20085     20084     20090     20092
     20085     20084     20090     20093     20086     20084     20090     20091
     20086     20084     20090     20092     20086     20084     20090     20093
     20087     20086     20084     20090     20088     20086     20084     20090
     20089     20086     20084     20090     20090     20093     20096     20097
     20090     20093     20096     20098     20090     20093     20096     20099
     20091     20090     20093     20094     20091     20090     20093     20095
     20091     20090     20093     20096     20092     20090     20093     20094
     20092     20090     20093     20095     20092     20090     20093     20096
     20093     20096     20099     20100     20093     20096     20099     20101
     20093     20096     20099     20105     20094     20093     20096     20097
     20094     20093     20096     20098     20094     20093     20096     20099
     20095     20093     20096     20097     20095     20093     20096     20098
     20095     20093     20096     20099     20096     20099     20101     20102
     20096     20099     20101     20103     20096     20099     20101     20104
     20096     20099     20105     20106     20096     20099     20105     20107
     20096     20099     20105     20108     20097     20096     20099     20100
     20097     20096     20099     20101     20097     20096     20099     20105
     20098     20096     20099     20100     20098     20096     20099     20101
     20098     20096     20099     20105     20100     20099     20101     20102
     20100     20099     20101     20103     20100     20099     20101     20104
     20100     20099     20105     20106     20100     20099     20105     20107
     20100     20099     20105     20108     20101     20099     20105     20106
     20101     20099     20105     20107     20101     20099     20105     20108
     20102     20101     20099     20105     20103     20101     20099     20105
     20104     20101     20099     20105     20109     20113     20116     20117
     20109     20113     20116     20147     20109     20155     20152     20147
     20109     20155     20152     20153     20109     20155     20152     20154
     20110     20109     20111     20112     20110     20109     20113     20114
     20110     20109     20113     20115     20110     20109     20113     20116
     20110     20109     20155     20152     20110     20109     20155     20156
     20110     20109     20155     20157     20111     20109     20113     20114
     20111     20109     20113     20115     20111     20109     20113     20116
     20111     20109     20155     20152     20111     20109     20155     20156
     20111     20109     20155     20157     20112     20111     20109     20113
     20112     20111     20109     20155     20113     20109     20155     20152
     20113     20109     20155     20156     20113     20109     20155     20157
     20113     20116     20117     20118     20113     20116     20117     20119
     20113     20116     20147     20145     20113     20116     20147     20148
     20113     20116     20147     20152     20114     20113     20109     20155
     20114     20113     20116     20117     20114     20113     20116     20147
     20115     20113     20109     20155     20115     20113     20116     20117
     20115     20113     20116     20147     20116     20113     20109     20155
     20116     20117     20119     20120     20116     20117     20119     20121
     20116     20117     20119     20122     20116     20147     20145     20122
     20116     20147     20145     20142     20116     20147     20145     20146
     20116     20147     20148     20149     20116     20147     20148     20150
     20116     20147     20148     20151     20116     20147     20152     20153
     20116     20147     20152     20154     20116     20147     20152     20155
     20117     20116     20147     20145     20117     20116     20147     20148
     20117     20116     20147     20152     20117     20119     20122     20123
     20117     20119     20122     20124     20117     20119     20122     20145
     20118     20117     20116     20147     20118     20117     20119     20120
     20118     20117     20119     20121     20118     20117     20119     20122
     20119     20117     20116     20147     20119     20122     20124     20125
     20119     20122     20124     20126     20119     20122     20124     20134
     20119     20122     20145     20142     20119     20122     20145     20146
     20119     20122     20145     20147     20120     20119     20122     20123
     20120     20119     20122     20124     20120     20119     20122     20145
     20121     20119     20122     20123     20121     20119     20122     20124
     20121     20119     20122     20145     20122     20124     20126     20127
     20122     20124     20126     20128     20122     20124     20126     20129
     20122     20124     20134     20132     20122     20124     20134     20135
     20122     20124     20134     20139     20122     20145     20142     20139
     20122     20145     20142     20143     20122     20145     20142     20144
     20122     20145     20147     20148     20122     20145     20147     20152
     20123     20122     20124     20125     20123     20122     20124     20126
     20123     20122     20124     20134     20123     20122     20145     20142
     20123     20122     20145     20146     20123     20122     20145     20147
     20124     20122     20145     20142     20124     20122     20145     20146
     20124     20122     20145     20147     20124     20126     20129     20130
     20124     20126     20129     20131     20124     20126     20129     20132
     20124     20134     20132     20129     20124     20134     20132     20133
     20124     20134     20132     20158     20124     20134     20135     20136
     20124     20134     20135     20137     20124     20134     20135     20138
     20124     20134     20139     20140     20124     20134     20139     20141
     20124     20134     20139     20142     20125     20124     20122     20145
     20125     20124     20126     20127     20125     20124     20126     20128
     20125     20124     20126     20129     20125     20124     20134     20132
     20125     20124     20134     20135     20125     20124     20134     20139
     20126     20124     20122     20145     20126     20124     20134     20132
     20126     20124     20134     20135     20126     20124     20134     20139
     20126     20129     20132     20133     20126     20129     20132     20134
     20126     20129     20132     20158     20127     20126     20124     20134
     20127     20126     20129     20130     20127     20126     20129     20131
     20127     20126     20129     20132     20128     20126     20124     20134
     20128     20126     20129     20130     20128     20126     20129     20131
     20128     20126     20129     20132     20129     20126     20124     20134
     20129     20132     20134     20135     20129     20132     20134     20139
     20129     20132     20158     20159     20129     20132     20158     20160
     20129     20132     20158     20164     20130     20129     20132     20133
     20130     20129     20132     20134     20130     20129     20132     20158
     20131     20129     20132     20133     20131     20129     20132     20134
     20131     20129     20132     20158     20132     20134     20135     20136
     20132     20134     20135     20137     20132     20134     20135     20138
     20132     20134     20139     20140     20132     20134     20139     20141
     20132     20134     20139     20142     20132     20158     20160     20161
     20132     20158     20160     20162     20132     20158     20160     20163
     20132     20158     20164     20165     20132     20158     20164     20166
     20132     20158     20164     20167     20133     20132     20134     20135
     20133     20132     20134     20139     20133     20132     20158     20159
     20133     20132     20158     20160     20133     20132     20158     20164
     20134     20124     20122     20145     20134     20132     20158     20159
     20134     20132     20158     20160     20134     20132     20158     20164
     20134     20139     20142     20143     20134     20139     20142     20144
     20134     20139     20142     20145     20135     20134     20132     20158
     20135     20134     20139     20140     20135     20134     20139     20141
     20135     20134     20139     20142     20136     20135     20134     20139
     20137     20135     20134     20139     20138     20135     20134     20139
     20139     20134     20132     20158     20139     20142     20145     20146
     20139     20142     20145     20147     20140     20139     20142     20143
     20140     20139     20142     20144     20140     20139     20142     20145
     20141     20139     20142     20143     20141     20139     20142     20144
     20141     20139     20142     20145     20142     20145     20147     20148
     20142     20145     20147     20152     20143     20142     20145     20146
     20143     20142     20145     20147     20144     20142     20145     20146
     20144     20142     20145     20147     20145     20147     20148     20149
     20145     20147     20148     20150     20145     20147     20148     20151
     20145     20147     20152     20153     20145     20147     20152     20154
     20145     20147     20152     20155     20146     20145     20147     20148
     20146     20145     20147     20152     20147     20152     20155     20156
     20147     20152     20155     20157     20148     20147     20152     20153
     20148     20147     20152     20154     20148     20147     20152     20155
     20149     20148     20147     20152     20150     20148     20147     20152
     20151     20148     20147     20152     20153     20152     20155     20156
     20153     20152     20155     20157     20154     20152     20155     20156
     20154     20152     20155     20157     20158     20164     20167     20168
     20158     20164     20167     20169     20158     20164     20167     20170
     20159     20158     20160     20161     20159     20158     20160     20162
     20159     20158     20160     20163     20159     20158     20164     20165
     20159     20158     20164     20166     20159     20158     20164     20167
     20160     20158     20164     20165     20160     20158     20164     20166
     20160     20158     20164     20167     20161     20160     20158     20164
     20162     20160     20158     20164     20163     20160     20158     20164
     20164     20167     20170     20171     20164     20167     20170     20172
     20164     20167     20170     20173     20165     20164     20167     20168
     20165     20164     20167     20169     20165     20164     20167     20170
     20166     20164     20167     20168     20166     20164     20167     20169
     20166     20164     20167     20170     20167     20170     20173     20174
     20167     20170     20173     20175     20167     20170     20173     20179
     20168     20167     20170     20171     20168     20167     20170     20172
     20168     20167     20170     20173     20169     20167     20170     20171
     20169     20167     20170     20172     20169     20167     20170     20173
     20170     20173     20175     20176     20170     20173     20175     20177
     20170     20173     20175     20178     20170     20173     20179     20180
     20170     20173     20179     20181     20170     20173     20179     20182
     20171     20170     20173     20174     20171     20170     20173     20175
     20171     20170     20173     20179     20172     20170     20173     20174
     20172     20170     20173     20175     20172     20170     20173     20179
     20174     20173     20175     20176     20174     20173     20175     20177
     20174     20173     20175     20178     20174     20173     20179     20180
     20174     20173     20179     20181     20174     20173     20179     20182
     20175     20173     20179     20180     20175     20173     20179     20181
     20175     20173     20179     20182     20176     20175     20173     20179
     20177     20175     20173     20179     20178     20175     20173     20179
     20183     20187     20190     20191     20183     20187     20190     20221
     20183     20229     20226     20221     20183     20229     20226     20227
     20183     20229     20226     20228     20184     20183     20185     20186
     20184     20183     20187     20188     20184     20183     20187     20189
     20184     20183     20187     20190     20184     20183     20229     20226
     20184     20183     20229     20230     20184     20183     20229     20231
     20185     20183     20187     20188     20185     20183     20187     20189
     20185     20183     20187     20190     20185     20183     20229     20226
     20185     20183     20229     20230     20185     20183     20229     20231
     20186     20185     20183     20187     20186     20185     20183     20229
     20187     20183     20229     20226     20187     20183     20229     20230
     20187     20183     20229     20231     20187     20190     20191     20192
     20187     20190     20191     20193     20187     20190     20221     20219
     20187     20190     20221     20222     20187     20190     20221     20226
     20188     20187     20183     20229     20188     20187     20190     20191
     20188     20187     20190     20221     20189     20187     20183     20229
     20189     20187     20190     20191     20189     20187     20190     20221
     20190     20187     20183     20229     20190     20191     20193     20194
     20190     20191     20193     20195     20190     20191     20193     20196
     20190     20221     20219     20196     20190     20221     20219     20216
     20190     20221     20219     20220     20190     20221     20222     20223
     20190     20221     20222     20224     20190     20221     20222     20225
     20190     20221     20226     20227     20190     20221     20226     20228
     20190     20221     20226     20229     20191     20190     20221     20219
     20191     20190     20221     20222     20191     20190     20221     20226
     20191     20193     20196     20197     20191     20193     20196     20198
     20191     20193     20196     20219     20192     20191     20190     20221
     20192     20191     20193     20194     20192     20191     20193     20195
     20192     20191     20193     20196     20193     20191     20190     20221
     20193     20196     20198     20199     20193     20196     20198     20200
     20193     20196     20198     20208     20193     20196     20219     20216
     20193     20196     20219     20220     20193     20196     20219     20221
     20194     20193     20196     20197     20194     20193     20196     20198
     20194     20193     20196     20219     20195     20193     20196     20197
     20195     20193     20196     20198     20195     20193     20196     20219
     20196     20198     20200     20201     20196     20198     20200     20202
     20196     20198     20200     20203     20196     20198     20208     20206
     20196     20198     20208     20209     20196     20198     20208     20213
     20196     20219     20216     20213     20196     20219     20216     20217
     20196     20219     20216     20218     20196     20219     20221     20222
     20196     20219     20221     20226     20197     20196     20198     20199
     20197     20196     20198     20200     20197     20196     20198     20208
     20197     20196     20219     20216     20197     20196     20219     20220
     20197     20196     20219     20221     20198     20196     20219     20216
     20198     20196     20219     20220     20198     20196     20219     20221
     20198     20200     20203     20204     20198     20200     20203     20205
     20198     20200     20203     20206     20198     20208     20206     20203
     20198     20208     20206     20207     20198     20208     20206     20232
     20198     20208     20209     20210     20198     20208     20209     20211
     20198     20208     20209     20212     20198     20208     20213     20214
     20198     20208     20213     20215     20198     20208     20213     20216
     20199     20198     20196     20219     20199     20198     20200     20201
     20199     20198     20200     20202     20199     20198     20200     20203
     20199     20198     20208     20206     20199     20198     20208     20209
     20199     20198     20208     20213     20200     20198     20196     20219
     20200     20198     20208     20206     20200     20198     20208     20209
     20200     20198     20208     20213     20200     20203     20206     20207
     20200     20203     20206     20208     20200     20203     20206     20232
     20201     20200     20198     20208     20201     20200     20203     20204
     20201     20200     20203     20205     20201     20200     20203     20206
     20202     20200     20198     20208     20202     20200     20203     20204
     20202     20200     20203     20205     20202     20200     20203     20206
     20203     20200     20198     20208     20203     20206     20208     20209
     20203     20206     20208     20213     20203     20206     20232     20233
     20203     20206     20232     20234     20203     20206     20232     20238
     20204     20203     20206     20207     20204     20203     20206     20208
     20204     20203     20206     20232     20205     20203     20206     20207
     20205     20203     20206     20208     20205     20203     20206     20232
     20206     20208     20209     20210     20206     20208     20209     20211
     20206     20208     20209     20212     20206     20208     20213     20214
     20206     20208     20213     20215     20206     20208     20213     20216
     20206     20232     20234     20235     20206     20232     20234     20236
     20206     20232     20234     20237     20206     20232     20238     20239
     20206     20232     20238     20240     20206     20232     20238     20241
     20207     20206     20208     20209     20207     20206     20208     20213
     20207     20206     20232     20233     20207     20206     20232     20234
     20207     20206     20232     20238     20208     20198     20196     20219
     20208     20206     20232     20233     20208     20206     20232     20234
     20208     20206     20232     20238     20208     20213     20216     20217
     20208     20213     20216     20218     20208     20213     20216     20219
     20209     20208     20206     20232     20209     20208     20213     20214
     20209     20208     20213     20215     20209     20208     20213     20216
     20210     20209     20208     20213     20211     20209     20208     20213
     20212     20209     20208     20213     20213     20208     20206     20232
     20213     20216     20219     20220     20213     20216     20219     20221
     20214     20213     20216     20217     20214     20213     20216     20218
     20214     20213     20216     20219     20215     20213     20216     20217
     20215     20213     20216     20218     20215     20213     20216     20219
     20216     20219     20221     20222     20216     20219     20221     20226
     20217     20216     20219     20220     20217     20216     20219     20221
     20218     20216     20219     20220     20218     20216     20219     20221
     20219     20221     20222     20223     20219     20221     20222     20224
     20219     20221     20222     20225     20219     20221     20226     20227
     20219     20221     20226     20228     20219     20221     20226     20229
     20220     20219     20221     20222     20220     20219     20221     20226
     20221     20226     20229     20230     20221     20226     20229     20231
     20222     20221     20226     20227     20222     20221     20226     20228
     20222     20221     20226     20229     20223     20222     20221     20226
     20224     20222     20221     20226     20225     20222     20221     20226
     20227     20226     20229     20230     20227     20226     20229     20231
     20228     20226     20229     20230     20228     20226     20229     20231
     20232     20238     20241     20242     20232     20238     20241     20243
     20232     20238     20241     20244     20233     20232     20234     20235
     20233     20232     20234     20236     20233     20232     20234     20237
     20233     20232     20238     20239     20233     20232     20238     20240
     20233     20232     20238     20241     20234     20232     20238     20239
     20234     20232     20238     20240     20234     20232     20238     20241
     20235     20234     20232     20238     20236     20234     20232     20238
     20237     20234     20232     20238     20238     20241     20244     20245
     20238     20241     20244     20246     20238     20241     20244     20247
     20239     20238     20241     20242     20239     20238     20241     20243
     20239     20238     20241     20244     20240     20238     20241     20242
     20240     20238     20241     20243     20240     20238     20241     20244
     20241     20244     20247     20248     20241     20244     20247     20249
     20241     20244     20247     20253     20242     20241     20244     20245
     20242     20241     20244     20246     20242     20241     20244     20247
     20243     20241     20244     20245     20243     20241     20244     20246
     20243     20241     20244     20247     20244     20247     20249     20250
     20244     20247     20249     20251     20244     20247     20249     20252
     20244     20247     20253     20254     20244     20247     20253     20255
     20244     20247     20253     20256     20245     20244     20247     20248
     20245     20244     20247     20249     20245     20244     20247     20253
     20246     20244     20247     20248     20246     20244     20247     20249
     20246     20244     20247     20253     20248     20247     20249     20250
     20248     20247     20249     20251     20248     20247     20249     20252
     20248     20247     20253     20254     20248     20247     20253     20255
     20248     20247     20253     20256     20249     20247     20253     20254
     20249     20247     20253     20255     20249     20247     20253     20256
     20250     20249     20247     20253     20251     20249     20247     20253
     20252     20249     20247     20253     20257     20261     20264     20265
     20257     20261     20264     20295     20257     20303     20300     20295
     20257     20303     20300     20301     20257     20303     20300     20302
     20258     20257     20259     20260     20258     20257     20261     20262
     20258     20257     20261     20263     20258     20257     20261     20264
     20258     20257     20303     20300     20258     20257     20303     20304
     20258     20257     20303     20305     20259     20257     20261     20262
     20259     20257     20261     20263     20259     20257     20261     20264
     20259     20257     20303     20300     20259     20257     20303     20304
     20259     20257     20303     20305     20260     20259     20257     20261
     20260     20259     20257     20303     20261     20257     20303     20300
     20261     20257     20303     20304     20261     20257     20303     20305
     20261     20264     20265     20266     20261     20264     20265     20267
     20261     20264     20295     20293     20261     20264     20295     20296
     20261     20264     20295     20300     20262     20261     20257     20303
     20262     20261     20264     20265     20262     20261     20264     20295
     20263     20261     20257     20303     20263     20261     20264     20265
     20263     20261     20264     20295     20264     20261     20257     20303
     20264     20265     20267     20268     20264     20265     20267     20269
     20264     20265     20267     20270     20264     20295     20293     20270
     20264     20295     20293     20290     20264     20295     20293     20294
     20264     20295     20296     20297     20264     20295     20296     20298
     20264     20295     20296     20299     20264     20295     20300     20301
     20264     20295     20300     20302     20264     20295     20300     20303
     20265     20264     20295     20293     20265     20264     20295     20296
     20265     20264     20295     20300     20265     20267     20270     20271
     20265     20267     20270     20272     20265     20267     20270     20293
     20266     20265     20264     20295     20266     20265     20267     20268
     20266     20265     20267     20269     20266     20265     20267     20270
     20267     20265     20264     20295     20267     20270     20272     20273
     20267     20270     20272     20274     20267     20270     20272     20282
     20267     20270     20293     20290     20267     20270     20293     20294
     20267     20270     20293     20295     20268     20267     20270     20271
     20268     20267     20270     20272     20268     20267     20270     20293
     20269     20267     20270     20271     20269     20267     20270     20272
     20269     20267     20270     20293     20270     20272     20274     20275
     20270     20272     20274     20276     20270     20272     20274     20277
     20270     20272     20282     20280     20270     20272     20282     20283
     20270     20272     20282     20287     20270     20293     20290     20287
     20270     20293     20290     20291     20270     20293     20290     20292
     20270     20293     20295     20296     20270     20293     20295     20300
     20271     20270     20272     20273     20271     20270     20272     20274
     20271     20270     20272     20282     20271     20270     20293     20290
     20271     20270     20293     20294     20271     20270     20293     20295
     20272     20270     20293     20290     20272     20270     20293     20294
     20272     20270     20293     20295     20272     20274     20277     20278
     20272     20274     20277     20279     20272     20274     20277     20280
     20272     20282     20280     20277     20272     20282     20280     20281
     20272     20282     20280     20306     20272     20282     20283     20284
     20272     20282     20283     20285     20272     20282     20283     20286
     20272     20282     20287     20288     20272     20282     20287     20289
     20272     20282     20287     20290     20273     20272     20270     20293
     20273     20272     20274     20275     20273     20272     20274     20276
     20273     20272     20274     20277     20273     20272     20282     20280
     20273     20272     20282     20283     20273     20272     20282     20287
     20274     20272     20270     20293     20274     20272     20282     20280
     20274     20272     20282     20283     20274     20272     20282     20287
     20274     20277     20280     20281     20274     20277     20280     20282
     20274     20277     20280     20306     20275     20274     20272     20282
     20275     20274     20277     20278     20275     20274     20277     20279
     20275     20274     20277     20280     20276     20274     20272     20282
     20276     20274     20277     20278     20276     20274     20277     20279
     20276     20274     20277     20280     20277     20274     20272     20282
     20277     20280     20282     20283     20277     20280     20282     20287
     20277     20280     20306     20307     20277     20280     20306     20308
     20277     20280     20306     20312     20278     20277     20280     20281
     20278     20277     20280     20282     20278     20277     20280     20306
     20279     20277     20280     20281     20279     20277     20280     20282
     20279     20277     20280     20306     20280     20282     20283     20284
     20280     20282     20283     20285     20280     20282     20283     20286
     20280     20282     20287     20288     20280     20282     20287     20289
     20280     20282     20287     20290     20280     20306     20308     20309
     20280     20306     20308     20310     20280     20306     20308     20311
     20280     20306     20312     20313     20280     20306     20312     20314
     20280     20306     20312     20315     20281     20280     20282     20283
     20281     20280     20282     20287     20281     20280     20306     20307
     20281     20280     20306     20308     20281     20280     20306     20312
     20282     20272     20270     20293     20282     20280     20306     20307
     20282     20280     20306     20308     20282     20280     20306     20312
     20282     20287     20290     20291     20282     20287     20290     20292
     20282     20287     20290     20293     20283     20282     20280     20306
     20283     20282     20287     20288     20283     20282     20287     20289
     20283     20282     20287     20290     20284     20283     20282     20287
     20285     20283     20282     20287     20286     20283     20282     20287
     20287     20282     20280     20306     20287     20290     20293     20294
     20287     20290     20293     20295     20288     20287     20290     20291
     20288     20287     20290     20292     20288     20287     20290     20293
     20289     20287     20290     20291     20289     20287     20290     20292
     20289     20287     20290     20293     20290     20293     20295     20296
     20290     20293     20295     20300     20291     20290     20293     20294
     20291     20290     20293     20295     20292     20290     20293     20294
     20292     20290     20293     20295     20293     20295     20296     20297
     20293     20295     20296     20298     20293     20295     20296     20299
     20293     20295     20300     20301     20293     20295     20300     20302
     20293     20295     20300     20303     20294     20293     20295     20296
     20294     20293     20295     20300     20295     20300     20303     20304
     20295     20300     20303     20305     20296     20295     20300     20301
     20296     20295     20300     20302     20296     20295     20300     20303
     20297     20296     20295     20300     20298     20296     20295     20300
     20299     20296     20295     20300     20301     20300     20303     20304
     20301     20300     20303     20305     20302     20300     20303     20304
     20302     20300     20303     20305     20306     20312     20315     20316
     20306     20312     20315     20317     20306     20312     20315     20318
     20307     20306     20308     20309     20307     20306     20308     20310
     20307     20306     20308     20311     20307     20306     20312     20313
     20307     20306     20312     20314     20307     20306     20312     20315
     20308     20306     20312     20313     20308     20306     20312     20314
     20308     20306     20312     20315     20309     20308     20306     20312
     20310     20308     20306     20312     20311     20308     20306     20312
     20312     20315     20318     20319     20312     20315     20318     20320
     20312     20315     20318     20321     20313     20312     20315     20316
     20313     20312     20315     20317     20313     20312     20315     20318
     20314     20312     20315     20316     20314     20312     20315     20317
     20314     20312     20315     20318     20315     20318     20321     20322
     20315     20318     20321     20323     20315     20318     20321     20327
     20316     20315     20318     20319     20316     20315     20318     20320
     20316     20315     20318     20321     20317     20315     20318     20319
     20317     20315     20318     20320     20317     20315     20318     20321
     20318     20321     20323     20324     20318     20321     20323     20325
     20318     20321     20323     20326     20318     20321     20327     20328
     20318     20321     20327     20329     20318     20321     20327     20330
     20319     20318     20321     20322     20319     20318     20321     20323
     20319     20318     20321     20327     20320     20318     20321     20322
     20320     20318     20321     20323     20320     20318     20321     20327
     20322     20321     20323     20324     20322     20321     20323     20325
     20322     20321     20323     20326     20322     20321     20327     20328
     20322     20321     20327     20329     20322     20321     20327     20330
     20323     20321     20327     20328     20323     20321     20327     20329
     20323     20321     20327     20330     20324     20323     20321     20327
     20325     20323     20321     20327     20326     20323     20321     20327
     20331     20335     20338     20339     20331     20335     20338     20369
     20331     20377     20374     20369     20331     20377     20374     20375
     20331     20377     20374     20376     20332     20331     20333     20334
     20332     20331     20335     20336     20332     20331     20335     20337
     20332     20331     20335     20338     20332     20331     20377     20374
     20332     20331     20377     20378     20332     20331     20377     20379
     20333     20331     20335     20336     20333     20331     20335     20337
     20333     20331     20335     20338     20333     20331     20377     20374
     20333     20331     20377     20378     20333     20331     20377     20379
     20334     20333     20331     20335     20334     20333     20331     20377
     20335     20331     20377     20374     20335     20331     20377     20378
     20335     20331     20377     20379     20335     20338     20339     20340
     20335     20338     20339     20341     20335     20338     20369     20367
     20335     20338     20369     20370     20335     20338     20369     20374
     20336     20335     20331     20377     20336     20335     20338     20339
     20336     20335     20338     20369     20337     20335     20331     20377
     20337     20335     20338     20339     20337     20335     20338     20369
     20338     20335     20331     20377     20338     20339     20341     20342
     20338     20339     20341     20343     20338     20339     20341     20344
     20338     20369     20367     20344     20338     20369     20367     20364
     20338     20369     20367     20368     20338     20369     20370     20371
     20338     20369     20370     20372     20338     20369     20370     20373
     20338     20369     20374     20375     20338     20369     20374     20376
     20338     20369     20374     20377     20339     20338     20369     20367
     20339     20338     20369     20370     20339     20338     20369     20374
     20339     20341     20344     20345     20339     20341     20344     20346
     20339     20341     20344     20367     20340     20339     20338     20369
     20340     20339     20341     20342     20340     20339     20341     20343
     20340     20339     20341     20344     20341     20339     20338     20369
     20341     20344     20346     20347     20341     20344     20346     20348
     20341     20344     20346     20356     20341     20344     20367     20364
     20341     20344     20367     20368     20341     20344     20367     20369
     20342     20341     20344     20345     20342     20341     20344     20346
     20342     20341     20344     20367     20343     20341     20344     20345
     20343     20341     20344     20346     20343     20341     20344     20367
     20344     20346     20348     20349     20344     20346     20348     20350
     20344     20346     20348     20351     20344     20346     20356     20354
     20344     20346     20356     20357     20344     20346     20356     20361
     20344     20367     20364     20361     20344     20367     20364     20365
     20344     20367     20364     20366     20344     20367     20369     20370
     20344     20367     20369     20374     20345     20344     20346     20347
     20345     20344     20346     20348     20345     20344     20346     20356
     20345     20344     20367     20364     20345     20344     20367     20368
     20345     20344     20367     20369     20346     20344     20367     20364
     20346     20344     20367     20368     20346     20344     20367     20369
     20346     20348     20351     20352     20346     20348     20351     20353
     20346     20348     20351     20354     20346     20356     20354     20351
     20346     20356     20354     20355     20346     20356     20354     20380
     20346     20356     20357     20358     20346     20356     20357     20359
     20346     20356     20357     20360     20346     20356     20361     20362
     20346     20356     20361     20363     20346     20356     20361     20364
     20347     20346     20344     20367     20347     20346     20348     20349
     20347     20346     20348     20350     20347     20346     20348     20351
     20347     20346     20356     20354     20347     20346     20356     20357
     20347     20346     20356     20361     20348     20346     20344     20367
     20348     20346     20356     20354     20348     20346     20356     20357
     20348     20346     20356     20361     20348     20351     20354     20355
     20348     20351     20354     20356     20348     20351     20354     20380
     20349     20348     20346     20356     20349     20348     20351     20352
     20349     20348     20351     20353     20349     20348     20351     20354
     20350     20348     20346     20356     20350     20348     20351     20352
     20350     20348     20351     20353     20350     20348     20351     20354
     20351     20348     20346     20356     20351     20354     20356     20357
     20351     20354     20356     20361     20351     20354     20380     20381
     20351     20354     20380     20382     20351     20354     20380     20386
     20352     20351     20354     20355     20352     20351     20354     20356
     20352     20351     20354     20380     20353     20351     20354     20355
     20353     20351     20354     20356     20353     20351     20354     20380
     20354     20356     20357     20358     20354     20356     20357     20359
     20354     20356     20357     20360     20354     20356     20361     20362
     20354     20356     20361     20363     20354     20356     20361     20364
     20354     20380     20382     20383     20354     20380     20382     20384
     20354     20380     20382     20385     20354     20380     20386     20387
     20354     20380     20386     20388     20354     20380     20386     20389
     20355     20354     20356     20357     20355     20354     20356     20361
     20355     20354     20380     20381     20355     20354     20380     20382
     20355     20354     20380     20386     20356     20346     20344     20367
     20356     20354     20380     20381     20356     20354     20380     20382
     20356     20354     20380     20386     20356     20361     20364     20365
     20356     20361     20364     20366     20356     20361     20364     20367
     20357     20356     20354     20380     20357     20356     20361     20362
     20357     20356     20361     20363     20357     20356     20361     20364
     20358     20357     20356     20361     20359     20357     20356     20361
     20360     20357     20356     20361     20361     20356     20354     20380
     20361     20364     20367     20368     20361     20364     20367     20369
     20362     20361     20364     20365     20362     20361     20364     20366
     20362     20361     20364     20367     20363     20361     20364     20365
     20363     20361     20364     20366     20363     20361     20364     20367
     20364     20367     20369     20370     20364     20367     20369     20374
     20365     20364     20367     20368     20365     20364     20367     20369
     20366     20364     20367     20368     20366     20364     20367     20369
     20367     20369     20370     20371     20367     20369     20370     20372
     20367     20369     20370     20373     20367     20369     20374     20375
     20367     20369     20374     20376     20367     20369     20374     20377
     20368     20367     20369     20370     20368     20367     20369     20374
     20369     20374     20377     20378     20369     20374     20377     20379
     20370     20369     20374     20375     20370     20369     20374     20376
     20370     20369     20374     20377     20371     20370     20369     20374
     20372     20370     20369     20374     20373     20370     20369     20374
     20375     20374     20377     20378     20375     20374     20377     20379
     20376     20374     20377     20378     20376     20374     20377     20379
     20380     20386     20389     20390     20380     20386     20389     20391
     20380     20386     20389     20392     20381     20380     20382     20383
     20381     20380     20382     20384     20381     20380     20382     20385
     20381     20380     20386     20387     20381     20380     20386     20388
     20381     20380     20386     20389     20382     20380     20386     20387
     20382     20380     20386     20388     20382     20380     20386     20389
     20383     20382     20380     20386     20384     20382     20380     20386
     20385     20382     20380     20386     20386     20389     20392     20393
     20386     20389     20392     20394     20386     20389     20392     20395
     20387     20386     20389     20390     20387     20386     20389     20391
     20387     20386     20389     20392     20388     20386     20389     20390
     20388     20386     20389     20391     20388     20386     20389     20392
     20389     20392     20395     20396     20389     20392     20395     20397
     20389     20392     20395     20401     20390     20389     20392     20393
     20390     20389     20392     20394     20390     20389     20392     20395
     20391     20389     20392     20393     20391     20389     20392     20394
     20391     20389     20392     20395     20392     20395     20397     20398
     20392     20395     20397     20399     20392     20395     20397     20400
     20392     20395     20401     20402     20392     20395     20401     20403
     20392     20395     20401     20404     20393     20392     20395     20396
     20393     20392     20395     20397     20393     20392     20395     20401
     20394     20392     20395     20396     20394     20392     20395     20397
     20394     20392     20395     20401     20396     20395     20397     20398
     20396     20395     20397     20399     20396     20395     20397     20400
     20396     20395     20401     20402     20396     20395     20401     20403
     20396     20395     20401     20404     20397     20395     20401     20402
     20397     20395     20401     20403     20397     20395     20401     20404
     20398     20397     20395     20401     20399     20397     20395     20401
     20400     20397     20395     20401     20405     20409     20412     20413
     20405     20409     20412     20443     20405     20451     20448     20443
     20405     20451     20448     20449     20405     20451     20448     20450
     20406     20405     20407     20408     20406     20405     20409     20410
     20406     20405     20409     20411     20406     20405     20409     20412
     20406     20405     20451     20448     20406     20405     20451     20452
     20406     20405     20451     20453     20407     20405     20409     20410
     20407     20405     20409     20411     20407     20405     20409     20412
     20407     20405     20451     20448     20407     20405     20451     20452
     20407     20405     20451     20453     20408     20407     20405     20409
     20408     20407     20405     20451     20409     20405     20451     20448
     20409     20405     20451     20452     20409     20405     20451     20453
     20409     20412     20413     20414     20409     20412     20413     20415
     20409     20412     20443     20441     20409     20412     20443     20444
     20409     20412     20443     20448     20410     20409     20405     20451
     20410     20409     20412     20413     20410     20409     20412     20443
     20411     20409     20405     20451     20411     20409     20412     20413
     20411     20409     20412     20443     20412     20409     20405     20451
     20412     20413     20415     20416     20412     20413     20415     20417
     20412     20413     20415     20418     20412     20443     20441     20418
     20412     20443     20441     20438     20412     20443     20441     20442
     20412     20443     20444     20445     20412     20443     20444     20446
     20412     20443     20444     20447     20412     20443     20448     20449
     20412     20443     20448     20450     20412     20443     20448     20451
     20413     20412     20443     20441     20413     20412     20443     20444
     20413     20412     20443     20448     20413     20415     20418     20419
     20413     20415     20418     20420     20413     20415     20418     20441
     20414     20413     20412     20443     20414     20413     20415     20416
     20414     20413     20415     20417     20414     20413     20415     20418
     20415     20413     20412     20443     20415     20418     20420     20421
     20415     20418     20420     20422     20415     20418     20420     20430
     20415     20418     20441     20438     20415     20418     20441     20442
     20415     20418     20441     20443     20416     20415     20418     20419
     20416     20415     20418     20420     20416     20415     20418     20441
     20417     20415     20418     20419     20417     20415     20418     20420
     20417     20415     20418     20441     20418     20420     20422     20423
     20418     20420     20422     20424     20418     20420     20422     20425
     20418     20420     20430     20428     20418     20420     20430     20431
     20418     20420     20430     20435     20418     20441     20438     20435
     20418     20441     20438     20439     20418     20441     20438     20440
     20418     20441     20443     20444     20418     20441     20443     20448
     20419     20418     20420     20421     20419     20418     20420     20422
     20419     20418     20420     20430     20419     20418     20441     20438
     20419     20418     20441     20442     20419     20418     20441     20443
     20420     20418     20441     20438     20420     20418     20441     20442
     20420     20418     20441     20443     20420     20422     20425     20426
     20420     20422     20425     20427     20420     20422     20425     20428
     20420     20430     20428     20425     20420     20430     20428     20429
     20420     20430     20428     20454     20420     20430     20431     20432
     20420     20430     20431     20433     20420     20430     20431     20434
     20420     20430     20435     20436     20420     20430     20435     20437
     20420     20430     20435     20438     20421     20420     20418     20441
     20421     20420     20422     20423     20421     20420     20422     20424
     20421     20420     20422     20425     20421     20420     20430     20428
     20421     20420     20430     20431     20421     20420     20430     20435
     20422     20420     20418     20441     20422     20420     20430     20428
     20422     20420     20430     20431     20422     20420     20430     20435
     20422     20425     20428     20429     20422     20425     20428     20430
     20422     20425     20428     20454     20423     20422     20420     20430
     20423     20422     20425     20426     20423     20422     20425     20427
     20423     20422     20425     20428     20424     20422     20420     20430
     20424     20422     20425     20426     20424     20422     20425     20427
     20424     20422     20425     20428     20425     20422     20420     20430
     20425     20428     20430     20431     20425     20428     20430     20435
     20425     20428     20454     20455     20425     20428     20454     20456
     20425     20428     20454     20460     20426     20425     20428     20429
     20426     20425     20428     20430     20426     20425     20428     20454
     20427     20425     20428     20429     20427     20425     20428     20430
     20427     20425     20428     20454     20428     20430     20431     20432
     20428     20430     20431     20433     20428     20430     20431     20434
     20428     20430     20435     20436     20428     20430     20435     20437
     20428     20430     20435     20438     20428     20454     20456     20457
     20428     20454     20456     20458     20428     20454     20456     20459
     20428     20454     20460     20461     20428     20454     20460     20462
     20428     20454     20460     20463     20429     20428     20430     20431
     20429     20428     20430     20435     20429     20428     20454     20455
     20429     20428     20454     20456     20429     20428     20454     20460
     20430     20420     20418     20441     20430     20428     20454     20455
     20430     20428     20454     20456     20430     20428     20454     20460
     20430     20435     20438     20439     20430     20435     20438     20440
     20430     20435     20438     20441     20431     20430     20428     20454
     20431     20430     20435     20436     20431     20430     20435     20437
     20431     20430     20435     20438     20432     20431     20430     20435
     20433     20431     20430     20435     20434     20431     20430     20435
     20435     20430     20428     20454     20435     20438     20441     20442
     20435     20438     20441     20443     20436     20435     20438     20439
     20436     20435     20438     20440     20436     20435     20438     20441
     20437     20435     20438     20439     20437     20435     20438     20440
     20437     20435     20438     20441     20438     20441     20443     20444
     20438     20441     20443     20448     20439     20438     20441     20442
     20439     20438     20441     20443     20440     20438     20441     20442
     20440     20438     20441     20443     20441     20443     20444     20445
     20441     20443     20444     20446     20441     20443     20444     20447
     20441     20443     20448     20449     20441     20443     20448     20450
     20441     20443     20448     20451     20442     20441     20443     20444
     20442     20441     20443     20448     20443     20448     20451     20452
     20443     20448     20451     20453     20444     20443     20448     20449
     20444     20443     20448     20450     20444     20443     20448     20451
     20445     20444     20443     20448     20446     20444     20443     20448
     20447     20444     20443     20448     20449     20448     20451     20452
     20449     20448     20451     20453     20450     20448     20451     20452
     20450     20448     20451     20453     20454     20460     20463     20464
     20454     20460     20463     20465     20454     20460     20463     20466
     20455     20454     20456     20457     20455     20454     20456     20458
     20455     20454     20456     20459     20455     20454     20460     20461
     20455     20454     20460     20462     20455     20454     20460     20463
     20456     20454     20460     20461     20456     20454     20460     20462
     20456     20454     20460     20463     20457     20456     20454     20460
     20458     20456     20454     20460     20459     20456     20454     20460
     20460     20463     20466     20467     20460     20463     20466     20468
     20460     20463     20466     20469     20461     20460     20463     20464
     20461     20460     20463     20465     20461     20460     20463     20466
     20462     20460     20463     20464     20462     20460     20463     20465
     20462     20460     20463     20466     20463     20466     20469     20470
     20463     20466     20469     20471     20463     20466     20469     20475
     20464     20463     20466     20467     20464     20463     20466     20468
     20464     20463     20466     20469     20465     20463     20466     20467
     20465     20463     20466     20468     20465     20463     20466     20469
     20466     20469     20471     20472     20466     20469     20471     20473
     20466     20469     20471     20474     20466     20469     20475     20476
     20466     20469     20475     20477     20466     20469     20475     20478
     20467     20466     20469     20470     20467     20466     20469     20471
     20467     20466     20469     20475     20468     20466     20469     20470
     20468     20466     20469     20471     20468     20466     20469     20475
     20470     20469     20471     20472     20470     20469     20471     20473
     20470     20469     20471     20474     20470     20469     20475     20476
     20470     20469     20475     20477     20470     20469     20475     20478
     20471     20469     20475     20476     20471     20469     20475     20477
     20471     20469     20475     20478     20472     20471     20469     20475
     20473     20471     20469     20475     20474     20471     20469     20475
     20479     20483     20486     20487     20479     20483     20486     20517
     20479     20525     20522     20517     20479     20525     20522     20523
     20479     20525     20522     20524     20480     20479     20481     20482
     20480     20479     20483     20484     20480     20479     20483     20485
     20480     20479     20483     20486     20480     20479     20525     20522
     20480     20479     20525     20526     20480     20479     20525     20527
     20481     20479     20483     20484     20481     20479     20483     20485
     20481     20479     20483     20486     20481     20479     20525     20522
     20481     20479     20525     20526     20481     20479     20525     20527
     20482     20481     20479     20483     20482     20481     20479     20525
     20483     20479     20525     20522     20483     20479     20525     20526
     20483     20479     20525     20527     20483     20486     20487     20488
     20483     20486     20487     20489     20483     20486     20517     20515
     20483     20486     20517     20518     20483     20486     20517     20522
     20484     20483     20479     20525     20484     20483     20486     20487
     20484     20483     20486     20517     20485     20483     20479     20525
     20485     20483     20486     20487     20485     20483     20486     20517
     20486     20483     20479     20525     20486     20487     20489     20490
     20486     20487     20489     20491     20486     20487     20489     20492
     20486     20517     20515     20492     20486     20517     20515     20512
     20486     20517     20515     20516     20486     20517     20518     20519
     20486     20517     20518     20520     20486     20517     20518     20521
     20486     20517     20522     20523     20486     20517     20522     20524
     20486     20517     20522     20525     20487     20486     20517     20515
     20487     20486     20517     20518     20487     20486     20517     20522
     20487     20489     20492     20493     20487     20489     20492     20494
     20487     20489     20492     20515     20488     20487     20486     20517
     20488     20487     20489     20490     20488     20487     20489     20491
     20488     20487     20489     20492     20489     20487     20486     20517
     20489     20492     20494     20495     20489     20492     20494     20496
     20489     20492     20494     20504     20489     20492     20515     20512
     20489     20492     20515     20516     20489     20492     20515     20517
     20490     20489     20492     20493     20490     20489     20492     20494
     20490     20489     20492     20515     20491     20489     20492     20493
     20491     20489     20492     20494     20491     20489     20492     20515
     20492     20494     20496     20497     20492     20494     20496     20498
     20492     20494     20496     20499     20492     20494     20504     20502
     20492     20494     20504     20505     20492     20494     20504     20509
     20492     20515     20512     20509     20492     20515     20512     20513
     20492     20515     20512     20514     20492     20515     20517     20518
     20492     20515     20517     20522     20493     20492     20494     20495
     20493     20492     20494     20496     20493     20492     20494     20504
     20493     20492     20515     20512     20493     20492     20515     20516
     20493     20492     20515     20517     20494     20492     20515     20512
     20494     20492     20515     20516     20494     20492     20515     20517
     20494     20496     20499     20500     20494     20496     20499     20501
     20494     20496     20499     20502     20494     20504     20502     20499
     20494     20504     20502     20503     20494     20504     20502     20528
     20494     20504     20505     20506     20494     20504     20505     20507
     20494     20504     20505     20508     20494     20504     20509     20510
     20494     20504     20509     20511     20494     20504     20509     20512
     20495     20494     20492     20515     20495     20494     20496     20497
     20495     20494     20496     20498     20495     20494     20496     20499
     20495     20494     20504     20502     20495     20494     20504     20505
     20495     20494     20504     20509     20496     20494     20492     20515
     20496     20494     20504     20502     20496     20494     20504     20505
     20496     20494     20504     20509     20496     20499     20502     20503
     20496     20499     20502     20504     20496     20499     20502     20528
     20497     20496     20494     20504     20497     20496     20499     20500
     20497     20496     20499     20501     20497     20496     20499     20502
     20498     20496     20494     20504     20498     20496     20499     20500
     20498     20496     20499     20501     20498     20496     20499     20502
     20499     20496     20494     20504     20499     20502     20504     20505
     20499     20502     20504     20509     20499     20502     20528     20529
     20499     20502     20528     20530     20499     20502     20528     20534
     20500     20499     20502     20503     20500     20499     20502     20504
     20500     20499     20502     20528     20501     20499     20502     20503
     20501     20499     20502     20504     20501     20499     20502     20528
     20502     20504     20505     20506     20502     20504     20505     20507
     20502     20504     20505     20508     20502     20504     20509     20510
     20502     20504     20509     20511     20502     20504     20509     20512
     20502     20528     20530     20531     20502     20528     20530     20532
     20502     20528     20530     20533     20502     20528     20534     20535
     20502     20528     20534     20536     20502     20528     20534     20537
     20503     20502     20504     20505     20503     20502     20504     20509
     20503     20502     20528     20529     20503     20502     20528     20530
     20503     20502     20528     20534     20504     20494     20492     20515
     20504     20502     20528     20529     20504     20502     20528     20530
     20504     20502     20528     20534     20504     20509     20512     20513
     20504     20509     20512     20514     20504     20509     20512     20515
     20505     20504     20502     20528     20505     20504     20509     20510
     20505     20504     20509     20511     20505     20504     20509     20512
     20506     20505     20504     20509     20507     20505     20504     20509
     20508     20505     20504     20509     20509     20504     20502     20528
     20509     20512     20515     20516     20509     20512     20515     20517
     20510     20509     20512     20513     20510     20509     20512     20514
     20510     20509     20512     20515     20511     20509     20512     20513
     20511     20509     20512     20514     20511     20509     20512     20515
     20512     20515     20517     20518     20512     20515     20517     20522
     20513     20512     20515     20516     20513     20512     20515     20517
     20514     20512     20515     20516     20514     20512     20515     20517
     20515     20517     20518     20519     20515     20517     20518     20520
     20515     20517     20518     20521     20515     20517     20522     20523
     20515     20517     20522     20524     20515     20517     20522     20525
     20516     20515     20517     20518     20516     20515     20517     20522
     20517     20522     20525     20526     20517     20522     20525     20527
     20518     20517     20522     20523     20518     20517     20522     20524
     20518     20517     20522     20525     20519     20518     20517     20522
     20520     20518     20517     20522     20521     20518     20517     20522
     20523     20522     20525     20526     20523     20522     20525     20527
     20524     20522     20525     20526     20524     20522     20525     20527
     20528     20534     20537     20538     20528     20534     20537     20539
     20528     20534     20537     20540     20529     20528     20530     20531
     20529     20528     20530     20532     20529     20528     20530     20533
     20529     20528     20534     20535     20529     20528     20534     20536
     20529     20528     20534     20537     20530     20528     20534     20535
     20530     20528     20534     20536     20530     20528     20534     20537
     20531     20530     20528     20534     20532     20530     20528     20534
     20533     20530     20528     20534     20534     20537     20540     20541
     20534     20537     20540     20542     20534     20537     20540     20543
     20535     20534     20537     20538     20535     20534     20537     20539
     20535     20534     20537     20540     20536     20534     20537     20538
     20536     20534     20537     20539     20536     20534     20537     20540
     20537     20540     20543     20544     20537     20540     20543     20545
     20537     20540     20543     20549     20538     20537     20540     20541
     20538     20537     20540     20542     20538     20537     20540     20543
     20539     20537     20540     20541     20539     20537     20540     20542
     20539     20537     20540     20543     20540     20543     20545     20546
     20540     20543     20545     20547     20540     20543     20545     20548
     20540     20543     20549     20550     20540     20543     20549     20551
     20540     20543     20549     20552     20541     20540     20543     20544
     20541     20540     20543     20545     20541     20540     20543     20549
     20542     20540     20543     20544     20542     20540     20543     20545
     20542     20540     20543     20549     20544     20543     20545     20546
     20544     20543     20545     20547     20544     20543     20545     20548
     20544     20543     20549     20550     20544     20543     20549     20551
     20544     20543     20549     20552     20545     20543     20549     20550
     20545     20543     20549     20551     20545     20543     20549     20552
     20546     20545     20543     20549     20547     20545     20543     20549
     20548     20545     20543     20549     20553     20557     20560     20561
     20553     20557     20560     20591     20553     20599     20596     20591
     20553     20599     20596     20597     20553     20599     20596     20598
     20554     20553     20555     20556     20554     20553     20557     20558
     20554     20553     20557     20559     20554     20553     20557     20560
     20554     20553     20599     20596     20554     20553     20599     20600
     20554     20553     20599     20601     20555     20553     20557     20558
     20555     20553     20557     20559     20555     20553     20557     20560
     20555     20553     20599     20596     20555     20553     20599     20600
     20555     20553     20599     20601     20556     20555     20553     20557
     20556     20555     20553     20599     20557     20553     20599     20596
     20557     20553     20599     20600     20557     20553     20599     20601
     20557     20560     20561     20562     20557     20560     20561     20563
     20557     20560     20591     20589     20557     20560     20591     20592
     20557     20560     20591     20596     20558     20557     20553     20599
     20558     20557     20560     20561     20558     20557     20560     20591
     20559     20557     20553     20599     20559     20557     20560     20561
     20559     20557     20560     20591     20560     20557     20553     20599
     20560     20561     20563     20564     20560     20561     20563     20565
     20560     20561     20563     20566     20560     20591     20589     20566
     20560     20591     20589     20586     20560     20591     20589     20590
     20560     20591     20592     20593     20560     20591     20592     20594
     20560     20591     20592     20595     20560     20591     20596     20597
     20560     20591     20596     20598     20560     20591     20596     20599
     20561     20560     20591     20589     20561     20560     20591     20592
     20561     20560     20591     20596     20561     20563     20566     20567
     20561     20563     20566     20568     20561     20563     20566     20589
     20562     20561     20560     20591     20562     20561     20563     20564
     20562     20561     20563     20565     20562     20561     20563     20566
     20563     20561     20560     20591     20563     20566     20568     20569
     20563     20566     20568     20570     20563     20566     20568     20578
     20563     20566     20589     20586     20563     20566     20589     20590
     20563     20566     20589     20591     20564     20563     20566     20567
     20564     20563     20566     20568     20564     20563     20566     20589
     20565     20563     20566     20567     20565     20563     20566     20568
     20565     20563     20566     20589     20566     20568     20570     20571
     20566     20568     20570     20572     20566     20568     20570     20573
     20566     20568     20578     20576     20566     20568     20578     20579
     20566     20568     20578     20583     20566     20589     20586     20583
     20566     20589     20586     20587     20566     20589     20586     20588
     20566     20589     20591     20592     20566     20589     20591     20596
     20567     20566     20568     20569     20567     20566     20568     20570
     20567     20566     20568     20578     20567     20566     20589     20586
     20567     20566     20589     20590     20567     20566     20589     20591
     20568     20566     20589     20586     20568     20566     20589     20590
     20568     20566     20589     20591     20568     20570     20573     20574
     20568     20570     20573     20575     20568     20570     20573     20576
     20568     20578     20576     20573     20568     20578     20576     20577
     20568     20578     20576     20602     20568     20578     20579     20580
     20568     20578     20579     20581     20568     20578     20579     20582
     20568     20578     20583     20584     20568     20578     20583     20585
     20568     20578     20583     20586     20569     20568     20566     20589
     20569     20568     20570     20571     20569     20568     20570     20572
     20569     20568     20570     20573     20569     20568     20578     20576
     20569     20568     20578     20579     20569     20568     20578     20583
     20570     20568     20566     20589     20570     20568     20578     20576
     20570     20568     20578     20579     20570     20568     20578     20583
     20570     20573     20576     20577     20570     20573     20576     20578
     20570     20573     20576     20602     20571     20570     20568     20578
     20571     20570     20573     20574     20571     20570     20573     20575
     20571     20570     20573     20576     20572     20570     20568     20578
     20572     20570     20573     20574     20572     20570     20573     20575
     20572     20570     20573     20576     20573     20570     20568     20578
     20573     20576     20578     20579     20573     20576     20578     20583
     20573     20576     20602     20603     20573     20576     20602     20604
     20573     20576     20602     20608     20574     20573     20576     20577
     20574     20573     20576     20578     20574     20573     20576     20602
     20575     20573     20576     20577     20575     20573     20576     20578
     20575     20573     20576     20602     20576     20578     20579     20580
     20576     20578     20579     20581     20576     20578     20579     20582
     20576     20578     20583     20584     20576     20578     20583     20585
     20576     20578     20583     20586     20576     20602     20604     20605
     20576     20602     20604     20606     20576     20602     20604     20607
     20576     20602     20608     20609     20576     20602     20608     20610
     20576     20602     20608     20611     20577     20576     20578     20579
     20577     20576     20578     20583     20577     20576     20602     20603
     20577     20576     20602     20604     20577     20576     20602     20608
     20578     20568     20566     20589     20578     20576     20602     20603
     20578     20576     20602     20604     20578     20576     20602     20608
     20578     20583     20586     20587     20578     20583     20586     20588
     20578     20583     20586     20589     20579     20578     20576     20602
     20579     20578     20583     20584     20579     20578     20583     20585
     20579     20578     20583     20586     20580     20579     20578     20583
     20581     20579     20578     20583     20582     20579     20578     20583
     20583     20578     20576     20602     20583     20586     20589     20590
     20583     20586     20589     20591     20584     20583     20586     20587
     20584     20583     20586     20588     20584     20583     20586     20589
     20585     20583     20586     20587     20585     20583     20586     20588
     20585     20583     20586     20589     20586     20589     20591     20592
     20586     20589     20591     20596     20587     20586     20589     20590
     20587     20586     20589     20591     20588     20586     20589     20590
     20588     20586     20589     20591     20589     20591     20592     20593
     20589     20591     20592     20594     20589     20591     20592     20595
     20589     20591     20596     20597     20589     20591     20596     20598
     20589     20591     20596     20599     20590     20589     20591     20592
     20590     20589     20591     20596     20591     20596     20599     20600
     20591     20596     20599     20601     20592     20591     20596     20597
     20592     20591     20596     20598     20592     20591     20596     20599
     20593     20592     20591     20596     20594     20592     20591     20596
     20595     20592     20591     20596     20597     20596     20599     20600
     20597     20596     20599     20601     20598     20596     20599     20600
     20598     20596     20599     20601     20602     20608     20611     20612
     20602     20608     20611     20613     20602     20608     20611     20614
     20603     20602     20604     20605     20603     20602     20604     20606
     20603     20602     20604     20607     20603     20602     20608     20609
     20603     20602     20608     20610     20603     20602     20608     20611
     20604     20602     20608     20609     20604     20602     20608     20610
     20604     20602     20608     20611     20605     20604     20602     20608
     20606     20604     20602     20608     20607     20604     20602     20608
     20608     20611     20614     20615     20608     20611     20614     20616
     20608     20611     20614     20617     20609     20608     20611     20612
     20609     20608     20611     20613     20609     20608     20611     20614
     20610     20608     20611     20612     20610     20608     20611     20613
     20610     20608     20611     20614     20611     20614     20617     20618
     20611     20614     20617     20619     20611     20614     20617     20623
     20612     20611     20614     20615     20612     20611     20614     20616
     20612     20611     20614     20617     20613     20611     20614     20615
     20613     20611     20614     20616     20613     20611     20614     20617
     20614     20617     20619     20620     20614     20617     20619     20621
     20614     20617     20619     20622     20614     20617     20623     20624
     20614     20617     20623     20625     20614     20617     20623     20626
     20615     20614     20617     20618     20615     20614     20617     20619
     20615     20614     20617     20623     20616     20614     20617     20618
     20616     20614     20617     20619     20616     20614     20617     20623
     20618     20617     20619     20620     20618     20617     20619     20621
     20618     20617     20619     20622     20618     20617     20623     20624
     20618     20617     20623     20625     20618     20617     20623     20626
     20619     20617     20623     20624     20619     20617     20623     20625
     20619     20617     20623     20626     20620     20619     20617     20623
     20621     20619     20617     20623     20622     20619     20617     20623
     20627     20631     20634     20635     20627     20631     20634     20665
     20627     20673     20670     20665     20627     20673     20670     20671
     20627     20673     20670     20672     20628     20627     20629     20630
     20628     20627     20631     20632     20628     20627     20631     20633
     20628     20627     20631     20634     20628     20627     20673     20670
     20628     20627     20673     20674     20628     20627     20673     20675
     20629     20627     20631     20632     20629     20627     20631     20633
     20629     20627     20631     20634     20629     20627     20673     20670
     20629     20627     20673     20674     20629     20627     20673     20675
     20630     20629     20627     20631     20630     20629     20627     20673
     20631     20627     20673     20670     20631     20627     20673     20674
     20631     20627     20673     20675     20631     20634     20635     20636
     20631     20634     20635     20637     20631     20634     20665     20663
     20631     20634     20665     20666     20631     20634     20665     20670
     20632     20631     20627     20673     20632     20631     20634     20635
     20632     20631     20634     20665     20633     20631     20627     20673
     20633     20631     20634     20635     20633     20631     20634     20665
     20634     20631     20627     20673     20634     20635     20637     20638
     20634     20635     20637     20639     20634     20635     20637     20640
     20634     20665     20663     20640     20634     20665     20663     20660
     20634     20665     20663     20664     20634     20665     20666     20667
     20634     20665     20666     20668     20634     20665     20666     20669
     20634     20665     20670     20671     20634     20665     20670     20672
     20634     20665     20670     20673     20635     20634     20665     20663
     20635     20634     20665     20666     20635     20634     20665     20670
     20635     20637     20640     20641     20635     20637     20640     20642
     20635     20637     20640     20663     20636     20635     20634     20665
     20636     20635     20637     20638     20636     20635     20637     20639
     20636     20635     20637     20640     20637     20635     20634     20665
     20637     20640     20642     20643     20637     20640     20642     20644
     20637     20640     20642     20652     20637     20640     20663     20660
     20637     20640     20663     20664     20637     20640     20663     20665
     20638     20637     20640     20641     20638     20637     20640     20642
     20638     20637     20640     20663     20639     20637     20640     20641
     20639     20637     20640     20642     20639     20637     20640     20663
     20640     20642     20644     20645     20640     20642     20644     20646
     20640     20642     20644     20647     20640     20642     20652     20650
     20640     20642     20652     20653     20640     20642     20652     20657
     20640     20663     20660     20657     20640     20663     20660     20661
     20640     20663     20660     20662     20640     20663     20665     20666
     20640     20663     20665     20670     20641     20640     20642     20643
     20641     20640     20642     20644     20641     20640     20642     20652
     20641     20640     20663     20660     20641     20640     20663     20664
     20641     20640     20663     20665     20642     20640     20663     20660
     20642     20640     20663     20664     20642     20640     20663     20665
     20642     20644     20647     20648     20642     20644     20647     20649
     20642     20644     20647     20650     20642     20652     20650     20647
     20642     20652     20650     20651     20642     20652     20650     20676
     20642     20652     20653     20654     20642     20652     20653     20655
     20642     20652     20653     20656     20642     20652     20657     20658
     20642     20652     20657     20659     20642     20652     20657     20660
     20643     20642     20640     20663     20643     20642     20644     20645
     20643     20642     20644     20646     20643     20642     20644     20647
     20643     20642     20652     20650     20643     20642     20652     20653
     20643     20642     20652     20657     20644     20642     20640     20663
     20644     20642     20652     20650     20644     20642     20652     20653
     20644     20642     20652     20657     20644     20647     20650     20651
     20644     20647     20650     20652     20644     20647     20650     20676
     20645     20644     20642     20652     20645     20644     20647     20648
     20645     20644     20647     20649     20645     20644     20647     20650
     20646     20644     20642     20652     20646     20644     20647     20648
     20646     20644     20647     20649     20646     20644     20647     20650
     20647     20644     20642     20652     20647     20650     20652     20653
     20647     20650     20652     20657     20647     20650     20676     20677
     20647     20650     20676     20678     20647     20650     20676     20682
     20648     20647     20650     20651     20648     20647     20650     20652
     20648     20647     20650     20676     20649     20647     20650     20651
     20649     20647     20650     20652     20649     20647     20650     20676
     20650     20652     20653     20654     20650     20652     20653     20655
     20650     20652     20653     20656     20650     20652     20657     20658
     20650     20652     20657     20659     20650     20652     20657     20660
     20650     20676     20678     20679     20650     20676     20678     20680
     20650     20676     20678     20681     20650     20676     20682     20683
     20650     20676     20682     20684     20650     20676     20682     20685
     20651     20650     20652     20653     20651     20650     20652     20657
     20651     20650     20676     20677     20651     20650     20676     20678
     20651     20650     20676     20682     20652     20642     20640     20663
     20652     20650     20676     20677     20652     20650     20676     20678
     20652     20650     20676     20682     20652     20657     20660     20661
     20652     20657     20660     20662     20652     20657     20660     20663
     20653     20652     20650     20676     20653     20652     20657     20658
     20653     20652     20657     20659     20653     20652     20657     20660
     20654     20653     20652     20657     20655     20653     20652     20657
     20656     20653     20652     20657     20657     20652     20650     20676
     20657     20660     20663     20664     20657     20660     20663     20665
     20658     20657     20660     20661     20658     20657     20660     20662
     20658     20657     20660     20663     20659     20657     20660     20661
     20659     20657     20660     20662     20659     20657     20660     20663
     20660     20663     20665     20666     20660     20663     20665     20670
     20661     20660     20663     20664     20661     20660     20663     20665
     20662     20660     20663     20664     20662     20660     20663     20665
     20663     20665     20666     20667     20663     20665     20666     20668
     20663     20665     20666     20669     20663     20665     20670     20671
     20663     20665     20670     20672     20663     20665     20670     20673
     20664     20663     20665     20666     20664     20663     20665     20670
     20665     20670     20673     20674     20665     20670     20673     20675
     20666     20665     20670     20671     20666     20665     20670     20672
     20666     20665     20670     20673     20667     20666     20665     20670
     20668     20666     20665     20670     20669     20666     20665     20670
     20671     20670     20673     20674     20671     20670     20673     20675
     20672     20670     20673     20674     20672     20670     20673     20675
     20676     20682     20685     20686     20676     20682     20685     20687
     20676     20682     20685     20688     20677     20676     20678     20679
     20677     20676     20678     20680     20677     20676     20678     20681
     20677     20676     20682     20683     20677     20676     20682     20684
     20677     20676     20682     20685     20678     20676     20682     20683
     20678     20676     20682     20684     20678     20676     20682     20685
     20679     20678     20676     20682     20680     20678     20676     20682
     20681     20678     20676     20682     20682     20685     20688     20689
     20682     20685     20688     20690     20682     20685     20688     20691
     20683     20682     20685     20686     20683     20682     20685     20687
     20683     20682     20685     20688     20684     20682     20685     20686
     20684     20682     20685     20687     20684     20682     20685     20688
     20685     20688     20691     20692     20685     20688     20691     20693
     20685     20688     20691     20697     20686     20685     20688     20689
     20686     20685     20688     20690     20686     20685     20688     20691
     20687     20685     20688     20689     20687     20685     20688     20690
     20687     20685     20688     20691     20688     20691     20693     20694
     20688     20691     20693     20695     20688     20691     20693     20696
     20688     20691     20697     20698     20688     20691     20697     20699
     20688     20691     20697     20700     20689     20688     20691     20692
     20689     20688     20691     20693     20689     20688     20691     20697
     20690     20688     20691     20692     20690     20688     20691     20693
     20690     20688     20691     20697     20692     20691     20693     20694
     20692     20691     20693     20695     20692     20691     20693     20696
     20692     20691     20697     20698     20692     20691     20697     20699
     20692     20691     20697     20700     20693     20691     20697     20698
     20693     20691     20697     20699     20693     20691     20697     20700
     20694     20693     20691     20697     20695     20693     20691     20697
     20696     20693     20691     20697     20701     20705     20708     20709
     20701     20705     20708     20739     20701     20747     20744     20739
     20701     20747     20744     20745     20701     20747     20744     20746
     20702     20701     20703     20704     20702     20701     20705     20706
     20702     20701     20705     20707     20702     20701     20705     20708
     20702     20701     20747     20744     20702     20701     20747     20748
     20702     20701     20747     20749     20703     20701     20705     20706
     20703     20701     20705     20707     20703     20701     20705     20708
     20703     20701     20747     20744     20703     20701     20747     20748
     20703     20701     20747     20749     20704     20703     20701     20705
     20704     20703     20701     20747     20705     20701     20747     20744
     20705     20701     20747     20748     20705     20701     20747     20749
     20705     20708     20709     20710     20705     20708     20709     20711
     20705     20708     20739     20737     20705     20708     20739     20740
     20705     20708     20739     20744     20706     20705     20701     20747
     20706     20705     20708     20709     20706     20705     20708     20739
     20707     20705     20701     20747     20707     20705     20708     20709
     20707     20705     20708     20739     20708     20705     20701     20747
     20708     20709     20711     20712     20708     20709     20711     20713
     20708     20709     20711     20714     20708     20739     20737     20714
     20708     20739     20737     20734     20708     20739     20737     20738
     20708     20739     20740     20741     20708     20739     20740     20742
     20708     20739     20740     20743     20708     20739     20744     20745
     20708     20739     20744     20746     20708     20739     20744     20747
     20709     20708     20739     20737     20709     20708     20739     20740
     20709     20708     20739     20744     20709     20711     20714     20715
     20709     20711     20714     20716     20709     20711     20714     20737
     20710     20709     20708     20739     20710     20709     20711     20712
     20710     20709     20711     20713     20710     20709     20711     20714
     20711     20709     20708     20739     20711     20714     20716     20717
     20711     20714     20716     20718     20711     20714     20716     20726
     20711     20714     20737     20734     20711     20714     20737     20738
     20711     20714     20737     20739     20712     20711     20714     20715
     20712     20711     20714     20716     20712     20711     20714     20737
     20713     20711     20714     20715     20713     20711     20714     20716
     20713     20711     20714     20737     20714     20716     20718     20719
     20714     20716     20718     20720     20714     20716     20718     20721
     20714     20716     20726     20724     20714     20716     20726     20727
     20714     20716     20726     20731     20714     20737     20734     20731
     20714     20737     20734     20735     20714     20737     20734     20736
     20714     20737     20739     20740     20714     20737     20739     20744
     20715     20714     20716     20717     20715     20714     20716     20718
     20715     20714     20716     20726     20715     20714     20737     20734
     20715     20714     20737     20738     20715     20714     20737     20739
     20716     20714     20737     20734     20716     20714     20737     20738
     20716     20714     20737     20739     20716     20718     20721     20722
     20716     20718     20721     20723     20716     20718     20721     20724
     20716     20726     20724     20721     20716     20726     20724     20725
     20716     20726     20724     20750     20716     20726     20727     20728
     20716     20726     20727     20729     20716     20726     20727     20730
     20716     20726     20731     20732     20716     20726     20731     20733
     20716     20726     20731     20734     20717     20716     20714     20737
     20717     20716     20718     20719     20717     20716     20718     20720
     20717     20716     20718     20721     20717     20716     20726     20724
     20717     20716     20726     20727     20717     20716     20726     20731
     20718     20716     20714     20737     20718     20716     20726     20724
     20718     20716     20726     20727     20718     20716     20726     20731
     20718     20721     20724     20725     20718     20721     20724     20726
     20718     20721     20724     20750     20719     20718     20716     20726
     20719     20718     20721     20722     20719     20718     20721     20723
     20719     20718     20721     20724     20720     20718     20716     20726
     20720     20718     20721     20722     20720     20718     20721     20723
     20720     20718     20721     20724     20721     20718     20716     20726
     20721     20724     20726     20727     20721     20724     20726     20731
     20721     20724     20750     20751     20721     20724     20750     20752
     20721     20724     20750     20756     20722     20721     20724     20725
     20722     20721     20724     20726     20722     20721     20724     20750
     20723     20721     20724     20725     20723     20721     20724     20726
     20723     20721     20724     20750     20724     20726     20727     20728
     20724     20726     20727     20729     20724     20726     20727     20730
     20724     20726     20731     20732     20724     20726     20731     20733
     20724     20726     20731     20734     20724     20750     20752     20753
     20724     20750     20752     20754     20724     20750     20752     20755
     20724     20750     20756     20757     20724     20750     20756     20758
     20724     20750     20756     20759     20725     20724     20726     20727
     20725     20724     20726     20731     20725     20724     20750     20751
     20725     20724     20750     20752     20725     20724     20750     20756
     20726     20716     20714     20737     20726     20724     20750     20751
     20726     20724     20750     20752     20726     20724     20750     20756
     20726     20731     20734     20735     20726     20731     20734     20736
     20726     20731     20734     20737     20727     20726     20724     20750
     20727     20726     20731     20732     20727     20726     20731     20733
     20727     20726     20731     20734     20728     20727     20726     20731
     20729     20727     20726     20731     20730     20727     20726     20731
     20731     20726     20724     20750     20731     20734     20737     20738
     20731     20734     20737     20739     20732     20731     20734     20735
     20732     20731     20734     20736     20732     20731     20734     20737
     20733     20731     20734     20735     20733     20731     20734     20736
     20733     20731     20734     20737     20734     20737     20739     20740
     20734     20737     20739     20744     20735     20734     20737     20738
     20735     20734     20737     20739     20736     20734     20737     20738
     20736     20734     20737     20739     20737     20739     20740     20741
     20737     20739     20740     20742     20737     20739     20740     20743
     20737     20739     20744     20745     20737     20739     20744     20746
     20737     20739     20744     20747     20738     20737     20739     20740
     20738     20737     20739     20744     20739     20744     20747     20748
     20739     20744     20747     20749     20740     20739     20744     20745
     20740     20739     20744     20746     20740     20739     20744     20747
     20741     20740     20739     20744     20742     20740     20739     20744
     20743     20740     20739     20744     20745     20744     20747     20748
     20745     20744     20747     20749     20746     20744     20747     20748
     20746     20744     20747     20749     20750     20756     20759     20760
     20750     20756     20759     20761     20750     20756     20759     20762
     20751     20750     20752     20753     20751     20750     20752     20754
     20751     20750     20752     20755     20751     20750     20756     20757
     20751     20750     20756     20758     20751     20750     20756     20759
     20752     20750     20756     20757     20752     20750     20756     20758
     20752     20750     20756     20759     20753     20752     20750     20756
     20754     20752     20750     20756     20755     20752     20750     20756
     20756     20759     20762     20763     20756     20759     20762     20764
     20756     20759     20762     20765     20757     20756     20759     20760
     20757     20756     20759     20761     20757     20756     20759     20762
     20758     20756     20759     20760     20758     20756     20759     20761
     20758     20756     20759     20762     20759     20762     20765     20766
     20759     20762     20765     20767     20759     20762     20765     20771
     20760     20759     20762     20763     20760     20759     20762     20764
     20760     20759     20762     20765     20761     20759     20762     20763
     20761     20759     20762     20764     20761     20759     20762     20765
     20762     20765     20767     20768     20762     20765     20767     20769
     20762     20765     20767     20770     20762     20765     20771     20772
     20762     20765     20771     20773     20762     20765     20771     20774
     20763     20762     20765     20766     20763     20762     20765     20767
     20763     20762     20765     20771     20764     20762     20765     20766
     20764     20762     20765     20767     20764     20762     20765     20771
     20766     20765     20767     20768     20766     20765     20767     20769
     20766     20765     20767     20770     20766     20765     20771     20772
     20766     20765     20771     20773     20766     20765     20771     20774
     20767     20765     20771     20772     20767     20765     20771     20773
     20767     20765     20771     20774     20768     20767     20765     20771
     20769     20767     20765     20771     20770     20767     20765     20771
     20775     20779     20782     20783     20775     20779     20782     20813
     20775     20821     20818     20813     20775     20821     20818     20819
     20775     20821     20818     20820     20776     20775     20777     20778
     20776     20775     20779     20780     20776     20775     20779     20781
     20776     20775     20779     20782     20776     20775     20821     20818
     20776     20775     20821     20822     20776     20775     20821     20823
     20777     20775     20779     20780     20777     20775     20779     20781
     20777     20775     20779     20782     20777     20775     20821     20818
     20777     20775     20821     20822     20777     20775     20821     20823
     20778     20777     20775     20779     20778     20777     20775     20821
     20779     20775     20821     20818     20779     20775     20821     20822
     20779     20775     20821     20823     20779     20782     20783     20784
     20779     20782     20783     20785     20779     20782     20813     20811
     20779     20782     20813     20814     20779     20782     20813     20818
     20780     20779     20775     20821     20780     20779     20782     20783
     20780     20779     20782     20813     20781     20779     20775     20821
     20781     20779     20782     20783     20781     20779     20782     20813
     20782     20779     20775     20821     20782     20783     20785     20786
     20782     20783     20785     20787     20782     20783     20785     20788
     20782     20813     20811     20788     20782     20813     20811     20808
     20782     20813     20811     20812     20782     20813     20814     20815
     20782     20813     20814     20816     20782     20813     20814     20817
     20782     20813     20818     20819     20782     20813     20818     20820
     20782     20813     20818     20821     20783     20782     20813     20811
     20783     20782     20813     20814     20783     20782     20813     20818
     20783     20785     20788     20789     20783     20785     20788     20790
     20783     20785     20788     20811     20784     20783     20782     20813
     20784     20783     20785     20786     20784     20783     20785     20787
     20784     20783     20785     20788     20785     20783     20782     20813
     20785     20788     20790     20791     20785     20788     20790     20792
     20785     20788     20790     20800     20785     20788     20811     20808
     20785     20788     20811     20812     20785     20788     20811     20813
     20786     20785     20788     20789     20786     20785     20788     20790
     20786     20785     20788     20811     20787     20785     20788     20789
     20787     20785     20788     20790     20787     20785     20788     20811
     20788     20790     20792     20793     20788     20790     20792     20794
     20788     20790     20792     20795     20788     20790     20800     20798
     20788     20790     20800     20801     20788     20790     20800     20805
     20788     20811     20808     20805     20788     20811     20808     20809
     20788     20811     20808     20810     20788     20811     20813     20814
     20788     20811     20813     20818     20789     20788     20790     20791
     20789     20788     20790     20792     20789     20788     20790     20800
     20789     20788     20811     20808     20789     20788     20811     20812
     20789     20788     20811     20813     20790     20788     20811     20808
     20790     20788     20811     20812     20790     20788     20811     20813
     20790     20792     20795     20796     20790     20792     20795     20797
     20790     20792     20795     20798     20790     20800     20798     20795
     20790     20800     20798     20799     20790     20800     20798     20824
     20790     20800     20801     20802     20790     20800     20801     20803
     20790     20800     20801     20804     20790     20800     20805     20806
     20790     20800     20805     20807     20790     20800     20805     20808
     20791     20790     20788     20811     20791     20790     20792     20793
     20791     20790     20792     20794     20791     20790     20792     20795
     20791     20790     20800     20798     20791     20790     20800     20801
     20791     20790     20800     20805     20792     20790     20788     20811
     20792     20790     20800     20798     20792     20790     20800     20801
     20792     20790     20800     20805     20792     20795     20798     20799
     20792     20795     20798     20800     20792     20795     20798     20824
     20793     20792     20790     20800     20793     20792     20795     20796
     20793     20792     20795     20797     20793     20792     20795     20798
     20794     20792     20790     20800     20794     20792     20795     20796
     20794     20792     20795     20797     20794     20792     20795     20798
     20795     20792     20790     20800     20795     20798     20800     20801
     20795     20798     20800     20805     20795     20798     20824     20825
     20795     20798     20824     20826     20795     20798     20824     20830
     20796     20795     20798     20799     20796     20795     20798     20800
     20796     20795     20798     20824     20797     20795     20798     20799
     20797     20795     20798     20800     20797     20795     20798     20824
     20798     20800     20801     20802     20798     20800     20801     20803
     20798     20800     20801     20804     20798     20800     20805     20806
     20798     20800     20805     20807     20798     20800     20805     20808
     20798     20824     20826     20827     20798     20824     20826     20828
     20798     20824     20826     20829     20798     20824     20830     20831
     20798     20824     20830     20832     20798     20824     20830     20833
     20799     20798     20800     20801     20799     20798     20800     20805
     20799     20798     20824     20825     20799     20798     20824     20826
     20799     20798     20824     20830     20800     20790     20788     20811
     20800     20798     20824     20825     20800     20798     20824     20826
     20800     20798     20824     20830     20800     20805     20808     20809
     20800     20805     20808     20810     20800     20805     20808     20811
     20801     20800     20798     20824     20801     20800     20805     20806
     20801     20800     20805     20807     20801     20800     20805     20808
     20802     20801     20800     20805     20803     20801     20800     20805
     20804     20801     20800     20805     20805     20800     20798     20824
     20805     20808     20811     20812     20805     20808     20811     20813
     20806     20805     20808     20809     20806     20805     20808     20810
     20806     20805     20808     20811     20807     20805     20808     20809
     20807     20805     20808     20810     20807     20805     20808     20811
     20808     20811     20813     20814     20808     20811     20813     20818
     20809     20808     20811     20812     20809     20808     20811     20813
     20810     20808     20811     20812     20810     20808     20811     20813
     20811     20813     20814     20815     20811     20813     20814     20816
     20811     20813     20814     20817     20811     20813     20818     20819
     20811     20813     20818     20820     20811     20813     20818     20821
     20812     20811     20813     20814     20812     20811     20813     20818
     20813     20818     20821     20822     20813     20818     20821     20823
     20814     20813     20818     20819     20814     20813     20818     20820
     20814     20813     20818     20821     20815     20814     20813     20818
     20816     20814     20813     20818     20817     20814     20813     20818
     20819     20818     20821     20822     20819     20818     20821     20823
     20820     20818     20821     20822     20820     20818     20821     20823
     20824     20830     20833     20834     20824     20830     20833     20835
     20824     20830     20833     20836     20825     20824     20826     20827
     20825     20824     20826     20828     20825     20824     20826     20829
     20825     20824     20830     20831     20825     20824     20830     20832
     20825     20824     20830     20833     20826     20824     20830     20831
     20826     20824     20830     20832     20826     20824     20830     20833
     20827     20826     20824     20830     20828     20826     20824     20830
     20829     20826     20824     20830     20830     20833     20836     20837
     20830     20833     20836     20838     20830     20833     20836     20839
     20831     20830     20833     20834     20831     20830     20833     20835
     20831     20830     20833     20836     20832     20830     20833     20834
     20832     20830     20833     20835     20832     20830     20833     20836
     20833     20836     20839     20840     20833     20836     20839     20841
     20833     20836     20839     20845     20834     20833     20836     20837
     20834     20833     20836     20838     20834     20833     20836     20839
     20835     20833     20836     20837     20835     20833     20836     20838
     20835     20833     20836     20839     20836     20839     20841     20842
     20836     20839     20841     20843     20836     20839     20841     20844
     20836     20839     20845     20846     20836     20839     20845     20847
     20836     20839     20845     20848     20837     20836     20839     20840
     20837     20836     20839     20841     20837     20836     20839     20845
     20838     20836     20839     20840     20838     20836     20839     20841
     20838     20836     20839     20845     20840     20839     20841     20842
     20840     20839     20841     20843     20840     20839     20841     20844
     20840     20839     20845     20846     20840     20839     20845     20847
     20840     20839     20845     20848     20841     20839     20845     20846
     20841     20839     20845     20847     20841     20839     20845     20848
     20842     20841     20839     20845     20843     20841     20839     20845
     20844     20841     20839     20845     20849     20853     20856     20857
     20849     20853     20856     20887     20849     20895     20892     20887
     20849     20895     20892     20893     20849     20895     20892     20894
     20850     20849     20851     20852     20850     20849     20853     20854
     20850     20849     20853     20855     20850     20849     20853     20856
     20850     20849     20895     20892     20850     20849     20895     20896
     20850     20849     20895     20897     20851     20849     20853     20854
     20851     20849     20853     20855     20851     20849     20853     20856
     20851     20849     20895     20892     20851     20849     20895     20896
     20851     20849     20895     20897     20852     20851     20849     20853
     20852     20851     20849     20895     20853     20849     20895     20892
     20853     20849     20895     20896     20853     20849     20895     20897
     20853     20856     20857     20858     20853     20856     20857     20859
     20853     20856     20887     20885     20853     20856     20887     20888
     20853     20856     20887     20892     20854     20853     20849     20895
     20854     20853     20856     20857     20854     20853     20856     20887
     20855     20853     20849     20895     20855     20853     20856     20857
     20855     20853     20856     20887     20856     20853     20849     20895
     20856     20857     20859     20860     20856     20857     20859     20861
     20856     20857     20859     20862     20856     20887     20885     20862
     20856     20887     20885     20882     20856     20887     20885     20886
     20856     20887     20888     20889     20856     20887     20888     20890
     20856     20887     20888     20891     20856     20887     20892     20893
     20856     20887     20892     20894     20856     20887     20892     20895
     20857     20856     20887     20885     20857     20856     20887     20888
     20857     20856     20887     20892     20857     20859     20862     20863
     20857     20859     20862     20864     20857     20859     20862     20885
     20858     20857     20856     20887     20858     20857     20859     20860
     20858     20857     20859     20861     20858     20857     20859     20862
     20859     20857     20856     20887     20859     20862     20864     20865
     20859     20862     20864     20866     20859     20862     20864     20874
     20859     20862     20885     20882     20859     20862     20885     20886
     20859     20862     20885     20887     20860     20859     20862     20863
     20860     20859     20862     20864     20860     20859     20862     20885
     20861     20859     20862     20863     20861     20859     20862     20864
     20861     20859     20862     20885     20862     20864     20866     20867
     20862     20864     20866     20868     20862     20864     20866     20869
     20862     20864     20874     20872     20862     20864     20874     20875
     20862     20864     20874     20879     20862     20885     20882     20879
     20862     20885     20882     20883     20862     20885     20882     20884
     20862     20885     20887     20888     20862     20885     20887     20892
     20863     20862     20864     20865     20863     20862     20864     20866
     20863     20862     20864     20874     20863     20862     20885     20882
     20863     20862     20885     20886     20863     20862     20885     20887
     20864     20862     20885     20882     20864     20862     20885     20886
     20864     20862     20885     20887     20864     20866     20869     20870
     20864     20866     20869     20871     20864     20866     20869     20872
     20864     20874     20872     20869     20864     20874     20872     20873
     20864     20874     20872     20898     20864     20874     20875     20876
     20864     20874     20875     20877     20864     20874     20875     20878
     20864     20874     20879     20880     20864     20874     20879     20881
     20864     20874     20879     20882     20865     20864     20862     20885
     20865     20864     20866     20867     20865     20864     20866     20868
     20865     20864     20866     20869     20865     20864     20874     20872
     20865     20864     20874     20875     20865     20864     20874     20879
     20866     20864     20862     20885     20866     20864     20874     20872
     20866     20864     20874     20875     20866     20864     20874     20879
     20866     20869     20872     20873     20866     20869     20872     20874
     20866     20869     20872     20898     20867     20866     20864     20874
     20867     20866     20869     20870     20867     20866     20869     20871
     20867     20866     20869     20872     20868     20866     20864     20874
     20868     20866     20869     20870     20868     20866     20869     20871
     20868     20866     20869     20872     20869     20866     20864     20874
     20869     20872     20874     20875     20869     20872     20874     20879
     20869     20872     20898     20899     20869     20872     20898     20900
     20869     20872     20898     20904     20870     20869     20872     20873
     20870     20869     20872     20874     20870     20869     20872     20898
     20871     20869     20872     20873     20871     20869     20872     20874
     20871     20869     20872     20898     20872     20874     20875     20876
     20872     20874     20875     20877     20872     20874     20875     20878
     20872     20874     20879     20880     20872     20874     20879     20881
     20872     20874     20879     20882     20872     20898     20900     20901
     20872     20898     20900     20902     20872     20898     20900     20903
     20872     20898     20904     20905     20872     20898     20904     20906
     20872     20898     20904     20907     20873     20872     20874     20875
     20873     20872     20874     20879     20873     20872     20898     20899
     20873     20872     20898     20900     20873     20872     20898     20904
     20874     20864     20862     20885     20874     20872     20898     20899
     20874     20872     20898     20900     20874     20872     20898     20904
     20874     20879     20882     20883     20874     20879     20882     20884
     20874     20879     20882     20885     20875     20874     20872     20898
     20875     20874     20879     20880     20875     20874     20879     20881
     20875     20874     20879     20882     20876     20875     20874     20879
     20877     20875     20874     20879     20878     20875     20874     20879
     20879     20874     20872     20898     20879     20882     20885     20886
     20879     20882     20885     20887     20880     20879     20882     20883
     20880     20879     20882     20884     20880     20879     20882     20885
     20881     20879     20882     20883     20881     20879     20882     20884
     20881     20879     20882     20885     20882     20885     20887     20888
     20882     20885     20887     20892     20883     20882     20885     20886
     20883     20882     20885     20887     20884     20882     20885     20886
     20884     20882     20885     20887     20885     20887     20888     20889
     20885     20887     20888     20890     20885     20887     20888     20891
     20885     20887     20892     20893     20885     20887     20892     20894
     20885     20887     20892     20895     20886     20885     20887     20888
     20886     20885     20887     20892     20887     20892     20895     20896
     20887     20892     20895     20897     20888     20887     20892     20893
     20888     20887     20892     20894     20888     20887     20892     20895
     20889     20888     20887     20892     20890     20888     20887     20892
     20891     20888     20887     20892     20893     20892     20895     20896
     20893     20892     20895     20897     20894     20892     20895     20896
     20894     20892     20895     20897     20898     20904     20907     20908
     20898     20904     20907     20909     20898     20904     20907     20910
     20899     20898     20900     20901     20899     20898     20900     20902
     20899     20898     20900     20903     20899     20898     20904     20905
     20899     20898     20904     20906     20899     20898     20904     20907
     20900     20898     20904     20905     20900     20898     20904     20906
     20900     20898     20904     20907     20901     20900     20898     20904
     20902     20900     20898     20904     20903     20900     20898     20904
     20904     20907     20910     20911     20904     20907     20910     20912
     20904     20907     20910     20913     20905     20904     20907     20908
     20905     20904     20907     20909     20905     20904     20907     20910
     20906     20904     20907     20908     20906     20904     20907     20909
     20906     20904     20907     20910     20907     20910     20913     20914
     20907     20910     20913     20915     20907     20910     20913     20919
     20908     20907     20910     20911     20908     20907     20910     20912
     20908     20907     20910     20913     20909     20907     20910     20911
     20909     20907     20910     20912     20909     20907     20910     20913
     20910     20913     20915     20916     20910     20913     20915     20917
     20910     20913     20915     20918     20910     20913     20919     20920
     20910     20913     20919     20921     20910     20913     20919     20922
     20911     20910     20913     20914     20911     20910     20913     20915
     20911     20910     20913     20919     20912     20910     20913     20914
     20912     20910     20913     20915     20912     20910     20913     20919
     20914     20913     20915     20916     20914     20913     20915     20917
     20914     20913     20915     20918     20914     20913     20919     20920
     20914     20913     20919     20921     20914     20913     20919     20922
     20915     20913     20919     20920     20915     20913     20919     20921
     20915     20913     20919     20922     20916     20915     20913     20919
     20917     20915     20913     20919     20918     20915     20913     20919
     20923     20927     20930     20931     20923     20927     20930     20961
     20923     20969     20966     20961     20923     20969     20966     20967
     20923     20969     20966     20968     20924     20923     20925     20926
     20924     20923     20927     20928     20924     20923     20927     20929
     20924     20923     20927     20930     20924     20923     20969     20966
     20924     20923     20969     20970     20924     20923     20969     20971
     20925     20923     20927     20928     20925     20923     20927     20929
     20925     20923     20927     20930     20925     20923     20969     20966
     20925     20923     20969     20970     20925     20923     20969     20971
     20926     20925     20923     20927     20926     20925     20923     20969
     20927     20923     20969     20966     20927     20923     20969     20970
     20927     20923     20969     20971     20927     20930     20931     20932
     20927     20930     20931     20933     20927     20930     20961     20959
     20927     20930     20961     20962     20927     20930     20961     20966
     20928     20927     20923     20969     20928     20927     20930     20931
     20928     20927     20930     20961     20929     20927     20923     20969
     20929     20927     20930     20931     20929     20927     20930     20961
     20930     20927     20923     20969     20930     20931     20933     20934
     20930     20931     20933     20935     20930     20931     20933     20936
     20930     20961     20959     20936     20930     20961     20959     20956
     20930     20961     20959     20960     20930     20961     20962     20963
     20930     20961     20962     20964     20930     20961     20962     20965
     20930     20961     20966     20967     20930     20961     20966     20968
     20930     20961     20966     20969     20931     20930     20961     20959
     20931     20930     20961     20962     20931     20930     20961     20966
     20931     20933     20936     20937     20931     20933     20936     20938
     20931     20933     20936     20959     20932     20931     20930     20961
     20932     20931     20933     20934     20932     20931     20933     20935
     20932     20931     20933     20936     20933     20931     20930     20961
     20933     20936     20938     20939     20933     20936     20938     20940
     20933     20936     20938     20948     20933     20936     20959     20956
     20933     20936     20959     20960     20933     20936     20959     20961
     20934     20933     20936     20937     20934     20933     20936     20938
     20934     20933     20936     20959     20935     20933     20936     20937
     20935     20933     20936     20938     20935     20933     20936     20959
     20936     20938     20940     20941     20936     20938     20940     20942
     20936     20938     20940     20943     20936     20938     20948     20946
     20936     20938     20948     20949     20936     20938     20948     20953
     20936     20959     20956     20953     20936     20959     20956     20957
     20936     20959     20956     20958     20936     20959     20961     20962
     20936     20959     20961     20966     20937     20936     20938     20939
     20937     20936     20938     20940     20937     20936     20938     20948
     20937     20936     20959     20956     20937     20936     20959     20960
     20937     20936     20959     20961     20938     20936     20959     20956
     20938     20936     20959     20960     20938     20936     20959     20961
     20938     20940     20943     20944     20938     20940     20943     20945
     20938     20940     20943     20946     20938     20948     20946     20943
     20938     20948     20946     20947     20938     20948     20946     20972
     20938     20948     20949     20950     20938     20948     20949     20951
     20938     20948     20949     20952     20938     20948     20953     20954
     20938     20948     20953     20955     20938     20948     20953     20956
     20939     20938     20936     20959     20939     20938     20940     20941
     20939     20938     20940     20942     20939     20938     20940     20943
     20939     20938     20948     20946     20939     20938     20948     20949
     20939     20938     20948     20953     20940     20938     20936     20959
     20940     20938     20948     20946     20940     20938     20948     20949
     20940     20938     20948     20953     20940     20943     20946     20947
     20940     20943     20946     20948     20940     20943     20946     20972
     20941     20940     20938     20948     20941     20940     20943     20944
     20941     20940     20943     20945     20941     20940     20943     20946
     20942     20940     20938     20948     20942     20940     20943     20944
     20942     20940     20943     20945     20942     20940     20943     20946
     20943     20940     20938     20948     20943     20946     20948     20949
     20943     20946     20948     20953     20943     20946     20972     20973
     20943     20946     20972     20974     20943     20946     20972     20978
     20944     20943     20946     20947     20944     20943     20946     20948
     20944     20943     20946     20972     20945     20943     20946     20947
     20945     20943     20946     20948     20945     20943     20946     20972
     20946     20948     20949     20950     20946     20948     20949     20951
     20946     20948     20949     20952     20946     20948     20953     20954
     20946     20948     20953     20955     20946     20948     20953     20956
     20946     20972     20974     20975     20946     20972     20974     20976
     20946     20972     20974     20977     20946     20972     20978     20979
     20946     20972     20978     20980     20946     20972     20978     20981
     20947     20946     20948     20949     20947     20946     20948     20953
     20947     20946     20972     20973     20947     20946     20972     20974
     20947     20946     20972     20978     20948     20938     20936     20959
     20948     20946     20972     20973     20948     20946     20972     20974
     20948     20946     20972     20978     20948     20953     20956     20957
     20948     20953     20956     20958     20948     20953     20956     20959
     20949     20948     20946     20972     20949     20948     20953     20954
     20949     20948     20953     20955     20949     20948     20953     20956
     20950     20949     20948     20953     20951     20949     20948     20953
     20952     20949     20948     20953     20953     20948     20946     20972
     20953     20956     20959     20960     20953     20956     20959     20961
     20954     20953     20956     20957     20954     20953     20956     20958
     20954     20953     20956     20959     20955     20953     20956     20957
     20955     20953     20956     20958     20955     20953     20956     20959
     20956     20959     20961     20962     20956     20959     20961     20966
     20957     20956     20959     20960     20957     20956     20959     20961
     20958     20956     20959     20960     20958     20956     20959     20961
     20959     20961     20962     20963     20959     20961     20962     20964
     20959     20961     20962     20965     20959     20961     20966     20967
     20959     20961     20966     20968     20959     20961     20966     20969
     20960     20959     20961     20962     20960     20959     20961     20966
     20961     20966     20969     20970     20961     20966     20969     20971
     20962     20961     20966     20967     20962     20961     20966     20968
     20962     20961     20966     20969     20963     20962     20961     20966
     20964     20962     20961     20966     20965     20962     20961     20966
     20967     20966     20969     20970     20967     20966     20969     20971
     20968     20966     20969     20970     20968     20966     20969     20971
     20972     20978     20981     20982     20972     20978     20981     20983
     20972     20978     20981     20984     20973     20972     20974     20975
     20973     20972     20974     20976     20973     20972     20974     20977
     20973     20972     20978     20979     20973     20972     20978     20980
     20973     20972     20978     20981     20974     20972     20978     20979
     20974     20972     20978     20980     20974     20972     20978     20981
     20975     20974     20972     20978     20976     20974     20972     20978
     20977     20974     20972     20978     20978     20981     20984     20985
     20978     20981     20984     20986     20978     20981     20984     20987
     20979     20978     20981     20982     20979     20978     20981     20983
     20979     20978     20981     20984     20980     20978     20981     20982
     20980     20978     20981     20983     20980     20978     20981     20984
     20981     20984     20987     20988     20981     20984     20987     20989
     20981     20984     20987     20993     20982     20981     20984     20985
     20982     20981     20984     20986     20982     20981     20984     20987
     20983     20981     20984     20985     20983     20981     20984     20986
     20983     20981     20984     20987     20984     20987     20989     20990
     20984     20987     20989     20991     20984     20987     20989     20992
     20984     20987     20993     20994     20984     20987     20993     20995
     20984     20987     20993     20996     20985     20984     20987     20988
     20985     20984     20987     20989     20985     20984     20987     20993
     20986     20984     20987     20988     20986     20984     20987     20989
     20986     20984     20987     20993     20988     20987     20989     20990
     20988     20987     20989     20991     20988     20987     20989     20992
     20988     20987     20993     20994     20988     20987     20993     20995
     20988     20987     20993     20996     20989     20987     20993     20994
     20989     20987     20993     20995     20989     20987     20993     20996
     20990     20989     20987     20993     20991     20989     20987     20993
     20992     20989     20987     20993     20997     21001     21004     21005
     20997     21001     21004     21035     20997     21043     21040     21035
     20997     21043     21040     21041     20997     21043     21040     21042
     20998     20997     20999     21000     20998     20997     21001     21002
     20998     20997     21001     21003     20998     20997     21001     21004
     20998     20997     21043     21040     20998     20997     21043     21044
     20998     20997     21043     21045     20999     20997     21001     21002
     20999     20997     21001     21003     20999     20997     21001     21004
     20999     20997     21043     21040     20999     20997     21043     21044
     20999     20997     21043     21045     21000     20999     20997     21001
     21000     20999     20997     21043     21001     20997     21043     21040
     21001     20997     21043     21044     21001     20997     21043     21045
     21001     21004     21005     21006     21001     21004     21005     21007
     21001     21004     21035     21033     21001     21004     21035     21036
     21001     21004     21035     21040     21002     21001     20997     21043
     21002     21001     21004     21005     21002     21001     21004     21035
     21003     21001     20997     21043     21003     21001     21004     21005
     21003     21001     21004     21035     21004     21001     20997     21043
     21004     21005     21007     21008     21004     21005     21007     21009
     21004     21005     21007     21010     21004     21035     21033     21010
     21004     21035     21033     21030     21004     21035     21033     21034
     21004     21035     21036     21037     21004     21035     21036     21038
     21004     21035     21036     21039     21004     21035     21040     21041
     21004     21035     21040     21042     21004     21035     21040     21043
     21005     21004     21035     21033     21005     21004     21035     21036
     21005     21004     21035     21040     21005     21007     21010     21011
     21005     21007     21010     21012     21005     21007     21010     21033
     21006     21005     21004     21035     21006     21005     21007     21008
     21006     21005     21007     21009     21006     21005     21007     21010
     21007     21005     21004     21035     21007     21010     21012     21013
     21007     21010     21012     21014     21007     21010     21012     21022
     21007     21010     21033     21030     21007     21010     21033     21034
     21007     21010     21033     21035     21008     21007     21010     21011
     21008     21007     21010     21012     21008     21007     21010     21033
     21009     21007     21010     21011     21009     21007     21010     21012
     21009     21007     21010     21033     21010     21012     21014     21015
     21010     21012     21014     21016     21010     21012     21014     21017
     21010     21012     21022     21020     21010     21012     21022     21023
     21010     21012     21022     21027     21010     21033     21030     21027
     21010     21033     21030     21031     21010     21033     21030     21032
     21010     21033     21035     21036     21010     21033     21035     21040
     21011     21010     21012     21013     21011     21010     21012     21014
     21011     21010     21012     21022     21011     21010     21033     21030
     21011     21010     21033     21034     21011     21010     21033     21035
     21012     21010     21033     21030     21012     21010     21033     21034
     21012     21010     21033     21035     21012     21014     21017     21018
     21012     21014     21017     21019     21012     21014     21017     21020
     21012     21022     21020     21017     21012     21022     21020     21021
     21012     21022     21020     21046     21012     21022     21023     21024
     21012     21022     21023     21025     21012     21022     21023     21026
     21012     21022     21027     21028     21012     21022     21027     21029
     21012     21022     21027     21030     21013     21012     21010     21033
     21013     21012     21014     21015     21013     21012     21014     21016
     21013     21012     21014     21017     21013     21012     21022     21020
     21013     21012     21022     21023     21013     21012     21022     21027
     21014     21012     21010     21033     21014     21012     21022     21020
     21014     21012     21022     21023     21014     21012     21022     21027
     21014     21017     21020     21021     21014     21017     21020     21022
     21014     21017     21020     21046     21015     21014     21012     21022
     21015     21014     21017     21018     21015     21014     21017     21019
     21015     21014     21017     21020     21016     21014     21012     21022
     21016     21014     21017     21018     21016     21014     21017     21019
     21016     21014     21017     21020     21017     21014     21012     21022
     21017     21020     21022     21023     21017     21020     21022     21027
     21017     21020     21046     21047     21017     21020     21046     21048
     21017     21020     21046     21052     21018     21017     21020     21021
     21018     21017     21020     21022     21018     21017     21020     21046
     21019     21017     21020     21021     21019     21017     21020     21022
     21019     21017     21020     21046     21020     21022     21023     21024
     21020     21022     21023     21025     21020     21022     21023     21026
     21020     21022     21027     21028     21020     21022     21027     21029
     21020     21022     21027     21030     21020     21046     21048     21049
     21020     21046     21048     21050     21020     21046     21048     21051
     21020     21046     21052     21053     21020     21046     21052     21054
     21020     21046     21052     21055     21021     21020     21022     21023
     21021     21020     21022     21027     21021     21020     21046     21047
     21021     21020     21046     21048     21021     21020     21046     21052
     21022     21012     21010     21033     21022     21020     21046     21047
     21022     21020     21046     21048     21022     21020     21046     21052
     21022     21027     21030     21031     21022     21027     21030     21032
     21022     21027     21030     21033     21023     21022     21020     21046
     21023     21022     21027     21028     21023     21022     21027     21029
     21023     21022     21027     21030     21024     21023     21022     21027
     21025     21023     21022     21027     21026     21023     21022     21027
     21027     21022     21020     21046     21027     21030     21033     21034
     21027     21030     21033     21035     21028     21027     21030     21031
     21028     21027     21030     21032     21028     21027     21030     21033
     21029     21027     21030     21031     21029     21027     21030     21032
     21029     21027     21030     21033     21030     21033     21035     21036
     21030     21033     21035     21040     21031     21030     21033     21034
     21031     21030     21033     21035     21032     21030     21033     21034
     21032     21030     21033     21035     21033     21035     21036     21037
     21033     21035     21036     21038     21033     21035     21036     21039
     21033     21035     21040     21041     21033     21035     21040     21042
     21033     21035     21040     21043     21034     21033     21035     21036
     21034     21033     21035     21040     21035     21040     21043     21044
     21035     21040     21043     21045     21036     21035     21040     21041
     21036     21035     21040     21042     21036     21035     21040     21043
     21037     21036     21035     21040     21038     21036     21035     21040
     21039     21036     21035     21040     21041     21040     21043     21044
     21041     21040     21043     21045     21042     21040     21043     21044
     21042     21040     21043     21045     21046     21052     21055     21056
     21046     21052     21055     21057     21046     21052     21055     21058
     21047     21046     21048     21049     21047     21046     21048     21050
     21047     21046     21048     21051     21047     21046     21052     21053
     21047     21046     21052     21054     21047     21046     21052     21055
     21048     21046     21052     21053     21048     21046     21052     21054
     21048     21046     21052     21055     21049     21048     21046     21052
     21050     21048     21046     21052     21051     21048     21046     21052
     21052     21055     21058     21059     21052     21055     21058     21060
     21052     21055     21058     21061     21053     21052     21055     21056
     21053     21052     21055     21057     21053     21052     21055     21058
     21054     21052     21055     21056     21054     21052     21055     21057
     21054     21052     21055     21058     21055     21058     21061     21062
     21055     21058     21061     21063     21055     21058     21061     21067
     21056     21055     21058     21059     21056     21055     21058     21060
     21056     21055     21058     21061     21057     21055     21058     21059
     21057     21055     21058     21060     21057     21055     21058     21061
     21058     21061     21063     21064     21058     21061     21063     21065
     21058     21061     21063     21066     21058     21061     21067     21068
     21058     21061     21067     21069     21058     21061     21067     21070
     21059     21058     21061     21062     21059     21058     21061     21063
     21059     21058     21061     21067     21060     21058     21061     21062
     21060     21058     21061     21063     21060     21058     21061     21067
     21062     21061     21063     21064     21062     21061     21063     21065
     21062     21061     21063     21066     21062     21061     21067     21068
     21062     21061     21067     21069     21062     21061     21067     21070
     21063     21061     21067     21068     21063     21061     21067     21069
     21063     21061     21067     21070     21064     21063     21061     21067
     21065     21063     21061     21067     21066     21063     21061     21067
     21071     21075     21078     21079     21071     21075     21078     21109
     21071     21117     21114     21109     21071     21117     21114     21115
     21071     21117     21114     21116     21072     21071     21073     21074
     21072     21071     21075     21076     21072     21071     21075     21077
     21072     21071     21075     21078     21072     21071     21117     21114
     21072     21071     21117     21118     21072     21071     21117     21119
     21073     21071     21075     21076     21073     21071     21075     21077
     21073     21071     21075     21078     21073     21071     21117     21114
     21073     21071     21117     21118     21073     21071     21117     21119
     21074     21073     21071     21075     21074     21073     21071     21117
     21075     21071     21117     21114     21075     21071     21117     21118
     21075     21071     21117     21119     21075     21078     21079     21080
     21075     21078     21079     21081     21075     21078     21109     21107
     21075     21078     21109     21110     21075     21078     21109     21114
     21076     21075     21071     21117     21076     21075     21078     21079
     21076     21075     21078     21109     21077     21075     21071     21117
     21077     21075     21078     21079     21077     21075     21078     21109
     21078     21075     21071     21117     21078     21079     21081     21082
     21078     21079     21081     21083     21078     21079     21081     21084
     21078     21109     21107     21084     21078     21109     21107     21104
     21078     21109     21107     21108     21078     21109     21110     21111
     21078     21109     21110     21112     21078     21109     21110     21113
     21078     21109     21114     21115     21078     21109     21114     21116
     21078     21109     21114     21117     21079     21078     21109     21107
     21079     21078     21109     21110     21079     21078     21109     21114
     21079     21081     21084     21085     21079     21081     21084     21086
     21079     21081     21084     21107     21080     21079     21078     21109
     21080     21079     21081     21082     21080     21079     21081     21083
     21080     21079     21081     21084     21081     21079     21078     21109
     21081     21084     21086     21087     21081     21084     21086     21088
     21081     21084     21086     21096     21081     21084     21107     21104
     21081     21084     21107     21108     21081     21084     21107     21109
     21082     21081     21084     21085     21082     21081     21084     21086
     21082     21081     21084     21107     21083     21081     21084     21085
     21083     21081     21084     21086     21083     21081     21084     21107
     21084     21086     21088     21089     21084     21086     21088     21090
     21084     21086     21088     21091     21084     21086     21096     21094
     21084     21086     21096     21097     21084     21086     21096     21101
     21084     21107     21104     21101     21084     21107     21104     21105
     21084     21107     21104     21106     21084     21107     21109     21110
     21084     21107     21109     21114     21085     21084     21086     21087
     21085     21084     21086     21088     21085     21084     21086     21096
     21085     21084     21107     21104     21085     21084     21107     21108
     21085     21084     21107     21109     21086     21084     21107     21104
     21086     21084     21107     21108     21086     21084     21107     21109
     21086     21088     21091     21092     21086     21088     21091     21093
     21086     21088     21091     21094     21086     21096     21094     21091
     21086     21096     21094     21095     21086     21096     21094     21120
     21086     21096     21097     21098     21086     21096     21097     21099
     21086     21096     21097     21100     21086     21096     21101     21102
     21086     21096     21101     21103     21086     21096     21101     21104
     21087     21086     21084     21107     21087     21086     21088     21089
     21087     21086     21088     21090     21087     21086     21088     21091
     21087     21086     21096     21094     21087     21086     21096     21097
     21087     21086     21096     21101     21088     21086     21084     21107
     21088     21086     21096     21094     21088     21086     21096     21097
     21088     21086     21096     21101     21088     21091     21094     21095
     21088     21091     21094     21096     21088     21091     21094     21120
     21089     21088     21086     21096     21089     21088     21091     21092
     21089     21088     21091     21093     21089     21088     21091     21094
     21090     21088     21086     21096     21090     21088     21091     21092
     21090     21088     21091     21093     21090     21088     21091     21094
     21091     21088     21086     21096     21091     21094     21096     21097
     21091     21094     21096     21101     21091     21094     21120     21121
     21091     21094     21120     21122     21091     21094     21120     21126
     21092     21091     21094     21095     21092     21091     21094     21096
     21092     21091     21094     21120     21093     21091     21094     21095
     21093     21091     21094     21096     21093     21091     21094     21120
     21094     21096     21097     21098     21094     21096     21097     21099
     21094     21096     21097     21100     21094     21096     21101     21102
     21094     21096     21101     21103     21094     21096     21101     21104
     21094     21120     21122     21123     21094     21120     21122     21124
     21094     21120     21122     21125     21094     21120     21126     21127
     21094     21120     21126     21128     21094     21120     21126     21129
     21095     21094     21096     21097     21095     21094     21096     21101
     21095     21094     21120     21121     21095     21094     21120     21122
     21095     21094     21120     21126     21096     21086     21084     21107
     21096     21094     21120     21121     21096     21094     21120     21122
     21096     21094     21120     21126     21096     21101     21104     21105
     21096     21101     21104     21106     21096     21101     21104     21107
     21097     21096     21094     21120     21097     21096     21101     21102
     21097     21096     21101     21103     21097     21096     21101     21104
     21098     21097     21096     21101     21099     21097     21096     21101
     21100     21097     21096     21101     21101     21096     21094     21120
     21101     21104     21107     21108     21101     21104     21107     21109
     21102     21101     21104     21105     21102     21101     21104     21106
     21102     21101     21104     21107     21103     21101     21104     21105
     21103     21101     21104     21106     21103     21101     21104     21107
     21104     21107     21109     21110     21104     21107     21109     21114
     21105     21104     21107     21108     21105     21104     21107     21109
     21106     21104     21107     21108     21106     21104     21107     21109
     21107     21109     21110     21111     21107     21109     21110     21112
     21107     21109     21110     21113     21107     21109     21114     21115
     21107     21109     21114     21116     21107     21109     21114     21117
     21108     21107     21109     21110     21108     21107     21109     21114
     21109     21114     21117     21118     21109     21114     21117     21119
     21110     21109     21114     21115     21110     21109     21114     21116
     21110     21109     21114     21117     21111     21110     21109     21114
     21112     21110     21109     21114     21113     21110     21109     21114
     21115     21114     21117     21118     21115     21114     21117     21119
     21116     21114     21117     21118     21116     21114     21117     21119
     21120     21126     21129     21130     21120     21126     21129     21131
     21120     21126     21129     21132     21121     21120     21122     21123
     21121     21120     21122     21124     21121     21120     21122     21125
     21121     21120     21126     21127     21121     21120     21126     21128
     21121     21120     21126     21129     21122     21120     21126     21127
     21122     21120     21126     21128     21122     21120     21126     21129
     21123     21122     21120     21126     21124     21122     21120     21126
     21125     21122     21120     21126     21126     21129     21132     21133
     21126     21129     21132     21134     21126     21129     21132     21135
     21127     21126     21129     21130     21127     21126     21129     21131
     21127     21126     21129     21132     21128     21126     21129     21130
     21128     21126     21129     21131     21128     21126     21129     21132
     21129     21132     21135     21136     21129     21132     21135     21137
     21129     21132     21135     21141     21130     21129     21132     21133
     21130     21129     21132     21134     21130     21129     21132     21135
     21131     21129     21132     21133     21131     21129     21132     21134
     21131     21129     21132     21135     21132     21135     21137     21138
     21132     21135     21137     21139     21132     21135     21137     21140
     21132     21135     21141     21142     21132     21135     21141     21143
     21132     21135     21141     21144     21133     21132     21135     21136
     21133     21132     21135     21137     21133     21132     21135     21141
     21134     21132     21135     21136     21134     21132     21135     21137
     21134     21132     21135     21141     21136     21135     21137     21138
     21136     21135     21137     21139     21136     21135     21137     21140
     21136     21135     21141     21142     21136     21135     21141     21143
     21136     21135     21141     21144     21137     21135     21141     21142
     21137     21135     21141     21143     21137     21135     21141     21144
     21138     21137     21135     21141     21139     21137     21135     21141
     21140     21137     21135     21141     21145     21146     21161     21162
     21145     21146     21161     21163     21145     21146     21161     21167
     21146     21145     21149     21150     21146     21145     21149     21151
     21146     21145     21149     21152     21146     21145     21153     21154
     21146     21145     21153     21155     21146     21145     21153     21156
     21146     21145     21157     21158     21146     21145     21157     21159
     21146     21145     21157     21160     21146     21161     21167     21164
     21147     21146     21145     21149     21147     21146     21145     21153
     21147     21146     21145     21157     21147     21146     21161     21162
     21147     21146     21161     21163     21147     21146     21161     21167
     21148     21146     21145     21149     21148     21146     21145     21153
     21148     21146     21145     21157     21148     21146     21161     21162
     21148     21146     21161     21163     21148     21146     21161     21167
     21149     21145     21146     21161     21149     21145     21153     21154
     21149     21145     21153     21155     21149     21145     21153     21156
     21149     21145     21157     21158     21149     21145     21157     21159
     21149     21145     21157     21160     21150     21149     21145     21153
     21150     21149     21145     21157     21151     21149     21145     21153
     21151     21149     21145     21157     21152     21149     21145     21153
     21152     21149     21145     21157     21153     21145     21146     21161
     21153     21145     21157     21158     21153     21145     21157     21159
     21153     21145     21157     21160     21154     21153     21145     21157
     21155     21153     21145     21157     21156     21153     21145     21157
     21157     21145     21146     21161     21161     21167     21164     21165
     21161     21167     21164     21166     21161     21167     21164     21168
     21162     21161     21167     21164     21163     21161     21167     21164
     21164     21168     21169     21170     21164     21168     21169     21171
     21164     21168     21169     21172     21165     21164     21168     21169
     21166     21164     21168     21169     21167     21164     21168     21169
     21168     21169     21172     21173     21168     21169     21172     21174
     21168     21169     21172     21180     21169     21172     21174     21175
     21169     21172     21180     21181     21169     21172     21180     21182
     21169     21172     21180     21183     21170     21169     21172     21173
     21170     21169     21172     21174     21170     21169     21172     21180
     21171     21169     21172     21173     21171     21169     21172     21174
     21171     21169     21172     21180     21172     21174     21175     21176
     21172     21174     21175     21177     21172     21180     21183     21184
     21173     21172     21174     21175     21173     21172     21180     21181
     21173     21172     21180     21182     21173     21172     21180     21183
     21174     21172     21180     21181     21174     21172     21180     21182
     21174     21172     21180     21183     21174     21175     21177     21178
     21174     21175     21177     21179     21174     21175     21177     21189
     21175     21174     21172     21180     21175     21177     21189     21190
     21175     21177     21189     21191     21175     21177     21189     21192
     21176     21175     21177     21178     21176     21175     21177     21179
     21176     21175     21177     21189     21177     21189     21192     21193
     21177     21189     21192     21194     21177     21189     21192     21195
     21178     21177     21189     21190     21178     21177     21189     21191
     21178     21177     21189     21192     21179     21177     21189     21190
     21179     21177     21189     21191     21179     21177     21189     21192
     21180     21183     21184     21185     21180     21183     21184     21186
     21181     21180     21183     21184     21182     21180     21183     21184
     21183     21184     21186     21187     21183     21184     21186     21188
     21183     21184     21186     21236     21184     21186     21236     21237
     21184     21186     21236     21238     21184     21186     21236     21239
     21185     21184     21186     21187     21185     21184     21186     21188
     21185     21184     21186     21236     21186     21236     21239     21240
     21186     21236     21239     21241     21186     21236     21239     21242
     21187     21186     21236     21237     21187     21186     21236     21238
     21187     21186     21236     21239     21188     21186     21236     21237
     21188     21186     21236     21238     21188     21186     21236     21239
     21189     21192     21195     21196     21189     21192     21195     21197
     21189     21192     21195     21198     21190     21189     21192     21193
     21190     21189     21192     21194     21190     21189     21192     21195
     21191     21189     21192     21193     21191     21189     21192     21194
     21191     21189     21192     21195     21192     21195     21198     21199
     21192     21195     21198     21200     21192     21195     21198     21201
     21193     21192     21195     21196     21193     21192     21195     21197
     21193     21192     21195     21198     21194     21192     21195     21196
     21194     21192     21195     21197     21194     21192     21195     21198
     21195     21198     21201     21202     21195     21198     21201     21203
     21195     21198     21201     21204     21196     21195     21198     21199
     21196     21195     21198     21200     21196     21195     21198     21201
     21197     21195     21198     21199     21197     21195     21198     21200
     21197     21195     21198     21201     21198     21201     21204     21205
     21198     21201     21204     21206     21198     21201     21204     21207
     21199     21198     21201     21202     21199     21198     21201     21203
     21199     21198     21201     21204     21200     21198     21201     21202
     21200     21198     21201     21203     21200     21198     21201     21204
     21201     21204     21207     21208     21201     21204     21207     21209
     21202     21201     21204     21205     21202     21201     21204     21206
     21202     21201     21204     21207     21203     21201     21204     21205
     21203     21201     21204     21206     21203     21201     21204     21207
     21204     21207     21209     21210     21204     21207     21209     21211
     21205     21204     21207     21208     21205     21204     21207     21209
     21206     21204     21207     21208     21206     21204     21207     21209
     21207     21209     21211     21212     21207     21209     21211     21213
     21207     21209     21211     21214     21208     21207     21209     21210
     21208     21207     21209     21211     21209     21211     21214     21215
     21209     21211     21214     21216     21209     21211     21214     21217
     21210     21209     21211     21212     21210     21209     21211     21213
     21210     21209     21211     21214     21211     21214     21217     21218
     21211     21214     21217     21219     21211     21214     21217     21220
     21212     21211     21214     21215     21212     21211     21214     21216
     21212     21211     21214     21217     21213     21211     21214     21215
     21213     21211     21214     21216     21213     21211     21214     21217
     21214     21217     21220     21221     21214     21217     21220     21222
     21214     21217     21220     21223     21215     21214     21217     21218
     21215     21214     21217     21219     21215     21214     21217     21220
     21216     21214     21217     21218     21216     21214     21217     21219
     21216     21214     21217     21220     21217     21220     21223     21224
     21217     21220     21223     21225     21217     21220     21223     21226
     21218     21217     21220     21221     21218     21217     21220     21222
     21218     21217     21220     21223     21219     21217     21220     21221
     21219     21217     21220     21222     21219     21217     21220     21223
     21220     21223     21226     21227     21220     21223     21226     21228
     21220     21223     21226     21229     21221     21220     21223     21224
     21221     21220     21223     21225     21221     21220     21223     21226
     21222     21220     21223     21224     21222     21220     21223     21225
     21222     21220     21223     21226     21223     21226     21229     21230
     21223     21226     21229     21231     21223     21226     21229     21232
     21224     21223     21226     21227     21224     21223     21226     21228
     21224     21223     21226     21229     21225     21223     21226     21227
     21225     21223     21226     21228     21225     21223     21226     21229
     21226     21229     21232     21233     21226     21229     21232     21234
     21226     21229     21232     21235     21227     21226     21229     21230
     21227     21226     21229     21231     21227     21226     21229     21232
     21228     21226     21229     21230     21228     21226     21229     21231
     21228     21226     21229     21232     21230     21229     21232     21233
     21230     21229     21232     21234     21230     21229     21232     21235
     21231     21229     21232     21233     21231     21229     21232     21234
     21231     21229     21232     21235     21236     21239     21242     21243
     21236     21239     21242     21244     21236     21239     21242     21245
     21237     21236     21239     21240     21237     21236     21239     21241
     21237     21236     21239     21242     21238     21236     21239     21240
     21238     21236     21239     21241     21238     21236     21239     21242
     21239     21242     21245     21246     21239     21242     21245     21247
     21239     21242     21245     21248     21240     21239     21242     21243
     21240     21239     21242     21244     21240     21239     21242     21245
     21241     21239     21242     21243     21241     21239     21242     21244
     21241     21239     21242     21245     21242     21245     21248     21249
     21242     21245     21248     21250     21242     21245     21248     21251
     21243     21242     21245     21246     21243     21242     21245     21247
     21243     21242     21245     21248     21244     21242     21245     21246
     21244     21242     21245     21247     21244     21242     21245     21248
     21245     21248     21251     21252     21245     21248     21251     21253
     21245     21248     21251     21254     21246     21245     21248     21249
     21246     21245     21248     21250     21246     21245     21248     21251
     21247     21245     21248     21249     21247     21245     21248     21250
     21247     21245     21248     21251     21248     21251     21254     21255
     21248     21251     21254     21256     21248     21251     21254     21257
     21249     21248     21251     21252     21249     21248     21251     21253
     21249     21248     21251     21254     21250     21248     21251     21252
     21250     21248     21251     21253     21250     21248     21251     21254
     21251     21254     21257     21258     21251     21254     21257     21259
     21251     21254     21257     21260     21252     21251     21254     21255
     21252     21251     21254     21256     21252     21251     21254     21257
     21253     21251     21254     21255     21253     21251     21254     21256
     21253     21251     21254     21257     21254     21257     21260     21261
     21254     21257     21260     21262     21254     21257     21260     21263
     21255     21254     21257     21258     21255     21254     21257     21259
     21255     21254     21257     21260     21256     21254     21257     21258
     21256     21254     21257     21259     21256     21254     21257     21260
     21257     21260     21263     21264     21257     21260     21263     21265
     21257     21260     21263     21266     21258     21257     21260     21261
     21258     21257     21260     21262     21258     21257     21260     21263
     21259     21257     21260     21261     21259     21257     21260     21262
     21259     21257     21260     21263     21260     21263     21266     21267
     21260     21263     21266     21268     21260     21263     21266     21269
     21261     21260     21263     21264     21261     21260     21263     21265
     21261     21260     21263     21266     21262     21260     21263     21264
     21262     21260     21263     21265     21262     21260     21263     21266
     21263     21266     21269     21270     21263     21266     21269     21271
     21263     21266     21269     21272     21264     21263     21266     21267
     21264     21263     21266     21268     21264     21263     21266     21269
     21265     21263     21266     21267     21265     21263     21266     21268
     21265     21263     21266     21269     21266     21269     21272     21273
     21266     21269     21272     21274     21266     21269     21272     21275
     21267     21266     21269     21270     21267     21266     21269     21271
     21267     21266     21269     21272     21268     21266     21269     21270
     21268     21266     21269     21271     21268     21266     21269     21272
     21269     21272     21275     21276     21269     21272     21275     21277
     21269     21272     21275     21278     21270     21269     21272     21273
     21270     21269     21272     21274     21270     21269     21272     21275
     21271     21269     21272     21273     21271     21269     21272     21274
     21271     21269     21272     21275     21273     21272     21275     21276
     21273     21272     21275     21277     21273     21272     21275     21278
     21274     21272     21275     21276     21274     21272     21275     21277
     21274     21272     21275     21278     21279     21280     21295     21296
     21279     21280     21295     21297     21279     21280     21295     21301
     21280     21279     21283     21284     21280     21279     21283     21285
     21280     21279     21283     21286     21280     21279     21287     21288
     21280     21279     21287     21289     21280     21279     21287     21290
     21280     21279     21291     21292     21280     21279     21291     21293
     21280     21279     21291     21294     21280     21295     21301     21298
     21281     21280     21279     21283     21281     21280     21279     21287
     21281     21280     21279     21291     21281     21280     21295     21296
     21281     21280     21295     21297     21281     21280     21295     21301
     21282     21280     21279     21283     21282     21280     21279     21287
     21282     21280     21279     21291     21282     21280     21295     21296
     21282     21280     21295     21297     21282     21280     21295     21301
     21283     21279     21280     21295     21283     21279     21287     21288
     21283     21279     21287     21289     21283     21279     21287     21290
     21283     21279     21291     21292     21283     21279     21291     21293
     21283     21279     21291     21294     21284     21283     21279     21287
     21284     21283     21279     21291     21285     21283     21279     21287
     21285     21283     21279     21291     21286     21283     21279     21287
     21286     21283     21279     21291     21287     21279     21280     21295
     21287     21279     21291     21292     21287     21279     21291     21293
     21287     21279     21291     21294     21288     21287     21279     21291
     21289     21287     21279     21291     21290     21287     21279     21291
     21291     21279     21280     21295     21295     21301     21298     21299
     21295     21301     21298     21300     21295     21301     21298     21302
     21296     21295     21301     21298     21297     21295     21301     21298
     21298     21302     21303     21304     21298     21302     21303     21305
     21298     21302     21303     21306     21299     21298     21302     21303
     21300     21298     21302     21303     21301     21298     21302     21303
     21302     21303     21306     21307     21302     21303     21306     21308
     21302     21303     21306     21314     21303     21306     21308     21309
     21303     21306     21314     21315     21303     21306     21314     21316
     21303     21306     21314     21317     21304     21303     21306     21307
     21304     21303     21306     21308     21304     21303     21306     21314
     21305     21303     21306     21307     21305     21303     21306     21308
     21305     21303     21306     21314     21306     21308     21309     21310
     21306     21308     21309     21311     21306     21314     21317     21318
     21307     21306     21308     21309     21307     21306     21314     21315
     21307     21306     21314     21316     21307     21306     21314     21317
     21308     21306     21314     21315     21308     21306     21314     21316
     21308     21306     21314     21317     21308     21309     21311     21312
     21308     21309     21311     21313     21308     21309     21311     21323
     21309     21308     21306     21314     21309     21311     21323     21324
     21309     21311     21323     21325     21309     21311     21323     21326
     21310     21309     21311     21312     21310     21309     21311     21313
     21310     21309     21311     21323     21311     21323     21326     21327
     21311     21323     21326     21328     21311     21323     21326     21329
     21312     21311     21323     21324     21312     21311     21323     21325
     21312     21311     21323     21326     21313     21311     21323     21324
     21313     21311     21323     21325     21313     21311     21323     21326
     21314     21317     21318     21319     21314     21317     21318     21320
     21315     21314     21317     21318     21316     21314     21317     21318
     21317     21318     21320     21321     21317     21318     21320     21322
     21317     21318     21320     21370     21318     21320     21370     21371
     21318     21320     21370     21372     21318     21320     21370     21373
     21319     21318     21320     21321     21319     21318     21320     21322
     21319     21318     21320     21370     21320     21370     21373     21374
     21320     21370     21373     21375     21320     21370     21373     21376
     21321     21320     21370     21371     21321     21320     21370     21372
     21321     21320     21370     21373     21322     21320     21370     21371
     21322     21320     21370     21372     21322     21320     21370     21373
     21323     21326     21329     21330     21323     21326     21329     21331
     21323     21326     21329     21332     21324     21323     21326     21327
     21324     21323     21326     21328     21324     21323     21326     21329
     21325     21323     21326     21327     21325     21323     21326     21328
     21325     21323     21326     21329     21326     21329     21332     21333
     21326     21329     21332     21334     21326     21329     21332     21335
     21327     21326     21329     21330     21327     21326     21329     21331
     21327     21326     21329     21332     21328     21326     21329     21330
     21328     21326     21329     21331     21328     21326     21329     21332
     21329     21332     21335     21336     21329     21332     21335     21337
     21329     21332     21335     21338     21330     21329     21332     21333
     21330     21329     21332     21334     21330     21329     21332     21335
     21331     21329     21332     21333     21331     21329     21332     21334
     21331     21329     21332     21335     21332     21335     21338     21339
     21332     21335     21338     21340     21332     21335     21338     21341
     21333     21332     21335     21336     21333     21332     21335     21337
     21333     21332     21335     21338     21334     21332     21335     21336
     21334     21332     21335     21337     21334     21332     21335     21338
     21335     21338     21341     21342     21335     21338     21341     21343
     21336     21335     21338     21339     21336     21335     21338     21340
     21336     21335     21338     21341     21337     21335     21338     21339
     21337     21335     21338     21340     21337     21335     21338     21341
     21338     21341     21343     21344     21338     21341     21343     21345
     21339     21338     21341     21342     21339     21338     21341     21343
     21340     21338     21341     21342     21340     21338     21341     21343
     21341     21343     21345     21346     21341     21343     21345     21347
     21341     21343     21345     21348     21342     21341     21343     21344
     21342     21341     21343     21345     21343     21345     21348     21349
     21343     21345     21348     21350     21343     21345     21348     21351
     21344     21343     21345     21346     21344     21343     21345     21347
     21344     21343     21345     21348     21345     21348     21351     21352
     21345     21348     21351     21353     21345     21348     21351     21354
     21346     21345     21348     21349     21346     21345     21348     21350
     21346     21345     21348     21351     21347     21345     21348     21349
     21347     21345     21348     21350     21347     21345     21348     21351
     21348     21351     21354     21355     21348     21351     21354     21356
     21348     21351     21354     21357     21349     21348     21351     21352
     21349     21348     21351     21353     21349     21348     21351     21354
     21350     21348     21351     21352     21350     21348     21351     21353
     21350     21348     21351     21354     21351     21354     21357     21358
     21351     21354     21357     21359     21351     21354     21357     21360
     21352     21351     21354     21355     21352     21351     21354     21356
     21352     21351     21354     21357     21353     21351     21354     21355
     21353     21351     21354     21356     21353     21351     21354     21357
     21354     21357     21360     21361     21354     21357     21360     21362
     21354     21357     21360     21363     21355     21354     21357     21358
     21355     21354     21357     21359     21355     21354     21357     21360
     21356     21354     21357     21358     21356     21354     21357     21359
     21356     21354     21357     21360     21357     21360     21363     21364
     21357     21360     21363     21365     21357     21360     21363     21366
     21358     21357     21360     21361     21358     21357     21360     21362
     21358     21357     21360     21363     21359     21357     21360     21361
     21359     21357     21360     21362     21359     21357     21360     21363
     21360     21363     21366     21367     21360     21363     21366     21368
     21360     21363     21366     21369     21361     21360     21363     21364
     21361     21360     21363     21365     21361     21360     21363     21366
     21362     21360     21363     21364     21362     21360     21363     21365
     21362     21360     21363     21366     21364     21363     21366     21367
     21364     21363     21366     21368     21364     21363     21366     21369
     21365     21363     21366     21367     21365     21363     21366     21368
     21365     21363     21366     21369     21370     21373     21376     21377
     21370     21373     21376     21378     21370     21373     21376     21379
     21371     21370     21373     21374     21371     21370     21373     21375
     21371     21370     21373     21376     21372     21370     21373     21374
     21372     21370     21373     21375     21372     21370     21373     21376
     21373     21376     21379     21380     21373     21376     21379     21381
     21373     21376     21379     21382     21374     21373     21376     21377
     21374     21373     21376     21378     21374     21373     21376     21379
     21375     21373     21376     21377     21375     21373     21376     21378
     21375     21373     21376     21379     21376     21379     21382     21383
     21376     21379     21382     21384     21376     21379     21382     21385
     21377     21376     21379     21380     21377     21376     21379     21381
     21377     21376     21379     21382     21378     21376     21379     21380
     21378     21376     21379     21381     21378     21376     21379     21382
     21379     21382     21385     21386     21379     21382     21385     21387
     21379     21382     21385     21388     21380     21379     21382     21383
     21380     21379     21382     21384     21380     21379     21382     21385
     21381     21379     21382     21383     21381     21379     21382     21384
     21381     21379     21382     21385     21382     21385     21388     21389
     21382     21385     21388     21390     21382     21385     21388     21391
     21383     21382     21385     21386     21383     21382     21385     21387
     21383     21382     21385     21388     21384     21382     21385     21386
     21384     21382     21385     21387     21384     21382     21385     21388
     21385     21388     21391     21392     21385     21388     21391     21393
     21385     21388     21391     21394     21386     21385     21388     21389
     21386     21385     21388     21390     21386     21385     21388     21391
     21387     21385     21388     21389     21387     21385     21388     21390
     21387     21385     21388     21391     21388     21391     21394     21395
     21388     21391     21394     21396     21388     21391     21394     21397
     21389     21388     21391     21392     21389     21388     21391     21393
     21389     21388     21391     21394     21390     21388     21391     21392
     21390     21388     21391     21393     21390     21388     21391     21394
     21391     21394     21397     21398     21391     21394     21397     21399
     21391     21394     21397     21400     21392     21391     21394     21395
     21392     21391     21394     21396     21392     21391     21394     21397
     21393     21391     21394     21395     21393     21391     21394     21396
     21393     21391     21394     21397     21394     21397     21400     21401
     21394     21397     21400     21402     21394     21397     21400     21403
     21395     21394     21397     21398     21395     21394     21397     21399
     21395     21394     21397     21400     21396     21394     21397     21398
     21396     21394     21397     21399     21396     21394     21397     21400
     21397     21400     21403     21404     21397     21400     21403     21405
     21397     21400     21403     21406     21398     21397     21400     21401
     21398     21397     21400     21402     21398     21397     21400     21403
     21399     21397     21400     21401     21399     21397     21400     21402
     21399     21397     21400     21403     21400     21403     21406     21407
     21400     21403     21406     21408     21400     21403     21406     21409
     21401     21400     21403     21404     21401     21400     21403     21405
     21401     21400     21403     21406     21402     21400     21403     21404
     21402     21400     21403     21405     21402     21400     21403     21406
     21403     21406     21409     21410     21403     21406     21409     21411
     21403     21406     21409     21412     21404     21403     21406     21407
     21404     21403     21406     21408     21404     21403     21406     21409
     21405     21403     21406     21407     21405     21403     21406     21408
     21405     21403     21406     21409     21407     21406     21409     21410
     21407     21406     21409     21411     21407     21406     21409     21412
     21408     21406     21409     21410     21408     21406     21409     21411
     21408     21406     21409     21412     21413     21414     21429     21430
     21413     21414     21429     21431     21413     21414     21429     21435
     21414     21413     21417     21418     21414     21413     21417     21419
     21414     21413     21417     21420     21414     21413     21421     21422
     21414     21413     21421     21423     21414     21413     21421     21424
     21414     21413     21425     21426     21414     21413     21425     21427
     21414     21413     21425     21428     21414     21429     21435     21432
     21415     21414     21413     21417     21415     21414     21413     21421
     21415     21414     21413     21425     21415     21414     21429     21430
     21415     21414     21429     21431     21415     21414     21429     21435
     21416     21414     21413     21417     21416     21414     21413     21421
     21416     21414     21413     21425     21416     21414     21429     21430
     21416     21414     21429     21431     21416     21414     21429     21435
     21417     21413     21414     21429     21417     21413     21421     21422
     21417     21413     21421     21423     21417     21413     21421     21424
     21417     21413     21425     21426     21417     21413     21425     21427
     21417     21413     21425     21428     21418     21417     21413     21421
     21418     21417     21413     21425     21419     21417     21413     21421
     21419     21417     21413     21425     21420     21417     21413     21421
     21420     21417     21413     21425     21421     21413     21414     21429
     21421     21413     21425     21426     21421     21413     21425     21427
     21421     21413     21425     21428     21422     21421     21413     21425
     21423     21421     21413     21425     21424     21421     21413     21425
     21425     21413     21414     21429     21429     21435     21432     21433
     21429     21435     21432     21434     21429     21435     21432     21436
     21430     21429     21435     21432     21431     21429     21435     21432
     21432     21436     21437     21438     21432     21436     21437     21439
     21432     21436     21437     21440     21433     21432     21436     21437
     21434     21432     21436     21437     21435     21432     21436     21437
     21436     21437     21440     21441     21436     21437     21440     21442
     21436     21437     21440     21448     21437     21440     21442     21443
     21437     21440     21448     21449     21437     21440     21448     21450
     21437     21440     21448     21451     21438     21437     21440     21441
     21438     21437     21440     21442     21438     21437     21440     21448
     21439     21437     21440     21441     21439     21437     21440     21442
     21439     21437     21440     21448     21440     21442     21443     21444
     21440     21442     21443     21445     21440     21448     21451     21452
     21441     21440     21442     21443     21441     21440     21448     21449
     21441     21440     21448     21450     21441     21440     21448     21451
     21442     21440     21448     21449     21442     21440     21448     21450
     21442     21440     21448     21451     21442     21443     21445     21446
     21442     21443     21445     21447     21442     21443     21445     21457
     21443     21442     21440     21448     21443     21445     21457     21458
     21443     21445     21457     21459     21443     21445     21457     21460
     21444     21443     21445     21446     21444     21443     21445     21447
     21444     21443     21445     21457     21445     21457     21460     21461
     21445     21457     21460     21462     21445     21457     21460     21463
     21446     21445     21457     21458     21446     21445     21457     21459
     21446     21445     21457     21460     21447     21445     21457     21458
     21447     21445     21457     21459     21447     21445     21457     21460
     21448     21451     21452     21453     21448     21451     21452     21454
     21449     21448     21451     21452     21450     21448     21451     21452
     21451     21452     21454     21455     21451     21452     21454     21456
     21451     21452     21454     21504     21452     21454     21504     21505
     21452     21454     21504     21506     21452     21454     21504     21507
     21453     21452     21454     21455     21453     21452     21454     21456
     21453     21452     21454     21504     21454     21504     21507     21508
     21454     21504     21507     21509     21454     21504     21507     21510
     21455     21454     21504     21505     21455     21454     21504     21506
     21455     21454     21504     21507     21456     21454     21504     21505
     21456     21454     21504     21506     21456     21454     21504     21507
     21457     21460     21463     21464     21457     21460     21463     21465
     21457     21460     21463     21466     21458     21457     21460     21461
     21458     21457     21460     21462     21458     21457     21460     21463
     21459     21457     21460     21461     21459     21457     21460     21462
     21459     21457     21460     21463     21460     21463     21466     21467
     21460     21463     21466     21468     21460     21463     21466     21469
     21461     21460     21463     21464     21461     21460     21463     21465
     21461     21460     21463     21466     21462     21460     21463     21464
     21462     21460     21463     21465     21462     21460     21463     21466
     21463     21466     21469     21470     21463     21466     21469     21471
     21463     21466     21469     21472     21464     21463     21466     21467
     21464     21463     21466     21468     21464     21463     21466     21469
     21465     21463     21466     21467     21465     21463     21466     21468
     21465     21463     21466     21469     21466     21469     21472     21473
     21466     21469     21472     21474     21466     21469     21472     21475
     21467     21466     21469     21470     21467     21466     21469     21471
     21467     21466     21469     21472     21468     21466     21469     21470
     21468     21466     21469     21471     21468     21466     21469     21472
     21469     21472     21475     21476     21469     21472     21475     21477
     21470     21469     21472     21473     21470     21469     21472     21474
     21470     21469     21472     21475     21471     21469     21472     21473
     21471     21469     21472     21474     21471     21469     21472     21475
     21472     21475     21477     21478     21472     21475     21477     21479
     21473     21472     21475     21476     21473     21472     21475     21477
     21474     21472     21475     21476     21474     21472     21475     21477
     21475     21477     21479     21480     21475     21477     21479     21481
     21475     21477     21479     21482     21476     21475     21477     21478
     21476     21475     21477     21479     21477     21479     21482     21483
     21477     21479     21482     21484     21477     21479     21482     21485
     21478     21477     21479     21480     21478     21477     21479     21481
     21478     21477     21479     21482     21479     21482     21485     21486
     21479     21482     21485     21487     21479     21482     21485     21488
     21480     21479     21482     21483     21480     21479     21482     21484
     21480     21479     21482     21485     21481     21479     21482     21483
     21481     21479     21482     21484     21481     21479     21482     21485
     21482     21485     21488     21489     21482     21485     21488     21490
     21482     21485     21488     21491     21483     21482     21485     21486
     21483     21482     21485     21487     21483     21482     21485     21488
     21484     21482     21485     21486     21484     21482     21485     21487
     21484     21482     21485     21488     21485     21488     21491     21492
     21485     21488     21491     21493     21485     21488     21491     21494
     21486     21485     21488     21489     21486     21485     21488     21490
     21486     21485     21488     21491     21487     21485     21488     21489
     21487     21485     21488     21490     21487     21485     21488     21491
     21488     21491     21494     21495     21488     21491     21494     21496
     21488     21491     21494     21497     21489     21488     21491     21492
     21489     21488     21491     21493     21489     21488     21491     21494
     21490     21488     21491     21492     21490     21488     21491     21493
     21490     21488     21491     21494     21491     21494     21497     21498
     21491     21494     21497     21499     21491     21494     21497     21500
     21492     21491     21494     21495     21492     21491     21494     21496
     21492     21491     21494     21497     21493     21491     21494     21495
     21493     21491     21494     21496     21493     21491     21494     21497
     21494     21497     21500     21501     21494     21497     21500     21502
     21494     21497     21500     21503     21495     21494     21497     21498
     21495     21494     21497     21499     21495     21494     21497     21500
     21496     21494     21497     21498     21496     21494     21497     21499
     21496     21494     21497     21500     21498     21497     21500     21501
     21498     21497     21500     21502     21498     21497     21500     21503
     21499     21497     21500     21501     21499     21497     21500     21502
     21499     21497     21500     21503     21504     21507     21510     21511
     21504     21507     21510     21512     21504     21507     21510     21513
     21505     21504     21507     21508     21505     21504     21507     21509
     21505     21504     21507     21510     21506     21504     21507     21508
     21506     21504     21507     21509     21506     21504     21507     21510
     21507     21510     21513     21514     21507     21510     21513     21515
     21507     21510     21513     21516     21508     21507     21510     21511
     21508     21507     21510     21512     21508     21507     21510     21513
     21509     21507     21510     21511     21509     21507     21510     21512
     21509     21507     21510     21513     21510     21513     21516     21517
     21510     21513     21516     21518     21510     21513     21516     21519
     21511     21510     21513     21514     21511     21510     21513     21515
     21511     21510     21513     21516     21512     21510     21513     21514
     21512     21510     21513     21515     21512     21510     21513     21516
     21513     21516     21519     21520     21513     21516     21519     21521
     21513     21516     21519     21522     21514     21513     21516     21517
     21514     21513     21516     21518     21514     21513     21516     21519
     21515     21513     21516     21517     21515     21513     21516     21518
     21515     21513     21516     21519     21516     21519     21522     21523
     21516     21519     21522     21524     21516     21519     21522     21525
     21517     21516     21519     21520     21517     21516     21519     21521
     21517     21516     21519     21522     21518     21516     21519     21520
     21518     21516     21519     21521     21518     21516     21519     21522
     21519     21522     21525     21526     21519     21522     21525     21527
     21519     21522     21525     21528     21520     21519     21522     21523
     21520     21519     21522     21524     21520     21519     21522     21525
     21521     21519     21522     21523     21521     21519     21522     21524
     21521     21519     21522     21525     21522     21525     21528     21529
     21522     21525     21528     21530     21522     21525     21528     21531
     21523     21522     21525     21526     21523     21522     21525     21527
     21523     21522     21525     21528     21524     21522     21525     21526
     21524     21522     21525     21527     21524     21522     21525     21528
     21525     21528     21531     21532     21525     21528     21531     21533
     21525     21528     21531     21534     21526     21525     21528     21529
     21526     21525     21528     21530     21526     21525     21528     21531
     21527     21525     21528     21529     21527     21525     21528     21530
     21527     21525     21528     21531     21528     21531     21534     21535
     21528     21531     21534     21536     21528     21531     21534     21537
     21529     21528     21531     21532     21529     21528     21531     21533
     21529     21528     21531     21534     21530     21528     21531     21532
     21530     21528     21531     21533     21530     21528     21531     21534
     21531     21534     21537     21538     21531     21534     21537     21539
     21531     21534     21537     21540     21532     21531     21534     21535
     21532     21531     21534     21536     21532     21531     21534     21537
     21533     21531     21534     21535     21533     21531     21534     21536
     21533     21531     21534     21537     21534     21537     21540     21541
     21534     21537     21540     21542     21534     21537     21540     21543
     21535     21534     21537     21538     21535     21534     21537     21539
     21535     21534     21537     21540     21536     21534     21537     21538
     21536     21534     21537     21539     21536     21534     21537     21540
     21537     21540     21543     21544     21537     21540     21543     21545
     21537     21540     21543     21546     21538     21537     21540     21541
     21538     21537     21540     21542     21538     21537     21540     21543
     21539     21537     21540     21541     21539     21537     21540     21542
     21539     21537     21540     21543     21541     21540     21543     21544
     21541     21540     21543     21545     21541     21540     21543     21546
     21542     21540     21543     21544     21542     21540     21543     21545
     21542     21540     21543     21546     21547     21548     21563     21564
     21547     21548     21563     21565     21547     21548     21563     21569
     21548     21547     21551     21552     21548     21547     21551     21553
     21548     21547     21551     21554     21548     21547     21555     21556
     21548     21547     21555     21557     21548     21547     21555     21558
     21548     21547     21559     21560     21548     21547     21559     21561
     21548     21547     21559     21562     21548     21563     21569     21566
     21549     21548     21547     21551     21549     21548     21547     21555
     21549     21548     21547     21559     21549     21548     21563     21564
     21549     21548     21563     21565     21549     21548     21563     21569
     21550     21548     21547     21551     21550     21548     21547     21555
     21550     21548     21547     21559     21550     21548     21563     21564
     21550     21548     21563     21565     21550     21548     21563     21569
     21551     21547     21548     21563     21551     21547     21555     21556
     21551     21547     21555     21557     21551     21547     21555     21558
     21551     21547     21559     21560     21551     21547     21559     21561
     21551     21547     21559     21562     21552     21551     21547     21555
     21552     21551     21547     21559     21553     21551     21547     21555
     21553     21551     21547     21559     21554     21551     21547     21555
     21554     21551     21547     21559     21555     21547     21548     21563
     21555     21547     21559     21560     21555     21547     21559     21561
     21555     21547     21559     21562     21556     21555     21547     21559
     21557     21555     21547     21559     21558     21555     21547     21559
     21559     21547     21548     21563     21563     21569     21566     21567
     21563     21569     21566     21568     21563     21569     21566     21570
     21564     21563     21569     21566     21565     21563     21569     21566
     21566     21570     21571     21572     21566     21570     21571     21573
     21566     21570     21571     21574     21567     21566     21570     21571
     21568     21566     21570     21571     21569     21566     21570     21571
     21570     21571     21574     21575     21570     21571     21574     21576
     21570     21571     21574     21582     21571     21574     21576     21577
     21571     21574     21582     21583     21571     21574     21582     21584
     21571     21574     21582     21585     21572     21571     21574     21575
     21572     21571     21574     21576     21572     21571     21574     21582
     21573     21571     21574     21575     21573     21571     21574     21576
     21573     21571     21574     21582     21574     21576     21577     21578
     21574     21576     21577     21579     21574     21582     21585     21586
     21575     21574     21576     21577     21575     21574     21582     21583
     21575     21574     21582     21584     21575     21574     21582     21585
     21576     21574     21582     21583     21576     21574     21582     21584
     21576     21574     21582     21585     21576     21577     21579     21580
     21576     21577     21579     21581     21576     21577     21579     21591
     21577     21576     21574     21582     21577     21579     21591     21592
     21577     21579     21591     21593     21577     21579     21591     21594
     21578     21577     21579     21580     21578     21577     21579     21581
     21578     21577     21579     21591     21579     21591     21594     21595
     21579     21591     21594     21596     21579     21591     21594     21597
     21580     21579     21591     21592     21580     21579     21591     21593
     21580     21579     21591     21594     21581     21579     21591     21592
     21581     21579     21591     21593     21581     21579     21591     21594
     21582     21585     21586     21587     21582     21585     21586     21588
     21583     21582     21585     21586     21584     21582     21585     21586
     21585     21586     21588     21589     21585     21586     21588     21590
     21585     21586     21588     21638     21586     21588     21638     21639
     21586     21588     21638     21640     21586     21588     21638     21641
     21587     21586     21588     21589     21587     21586     21588     21590
     21587     21586     21588     21638     21588     21638     21641     21642
     21588     21638     21641     21643     21588     21638     21641     21644
     21589     21588     21638     21639     21589     21588     21638     21640
     21589     21588     21638     21641     21590     21588     21638     21639
     21590     21588     21638     21640     21590     21588     21638     21641
     21591     21594     21597     21598     21591     21594     21597     21599
     21591     21594     21597     21600     21592     21591     21594     21595
     21592     21591     21594     21596     21592     21591     21594     21597
     21593     21591     21594     21595     21593     21591     21594     21596
     21593     21591     21594     21597     21594     21597     21600     21601
     21594     21597     21600     21602     21594     21597     21600     21603
     21595     21594     21597     21598     21595     21594     21597     21599
     21595     21594     21597     21600     21596     21594     21597     21598
     21596     21594     21597     21599     21596     21594     21597     21600
     21597     21600     21603     21604     21597     21600     21603     21605
     21597     21600     21603     21606     21598     21597     21600     21601
     21598     21597     21600     21602     21598     21597     21600     21603
     21599     21597     21600     21601     21599     21597     21600     21602
     21599     21597     21600     21603     21600     21603     21606     21607
     21600     21603     21606     21608     21600     21603     21606     21609
     21601     21600     21603     21604     21601     21600     21603     21605
     21601     21600     21603     21606     21602     21600     21603     21604
     21602     21600     21603     21605     21602     21600     21603     21606
     21603     21606     21609     21610     21603     21606     21609     21611
     21604     21603     21606     21607     21604     21603     21606     21608
     21604     21603     21606     21609     21605     21603     21606     21607
     21605     21603     21606     21608     21605     21603     21606     21609
     21606     21609     21611     21612     21606     21609     21611     21613
     21607     21606     21609     21610     21607     21606     21609     21611
     21608     21606     21609     21610     21608     21606     21609     21611
     21609     21611     21613     21614     21609     21611     21613     21615
     21609     21611     21613     21616     21610     21609     21611     21612
     21610     21609     21611     21613     21611     21613     21616     21617
     21611     21613     21616     21618     21611     21613     21616     21619
     21612     21611     21613     21614     21612     21611     21613     21615
     21612     21611     21613     21616     21613     21616     21619     21620
     21613     21616     21619     21621     21613     21616     21619     21622
     21614     21613     21616     21617     21614     21613     21616     21618
     21614     21613     21616     21619     21615     21613     21616     21617
     21615     21613     21616     21618     21615     21613     21616     21619
     21616     21619     21622     21623     21616     21619     21622     21624
     21616     21619     21622     21625     21617     21616     21619     21620
     21617     21616     21619     21621     21617     21616     21619     21622
     21618     21616     21619     21620     21618     21616     21619     21621
     21618     21616     21619     21622     21619     21622     21625     21626
     21619     21622     21625     21627     21619     21622     21625     21628
     21620     21619     21622     21623     21620     21619     21622     21624
     21620     21619     21622     21625     21621     21619     21622     21623
     21621     21619     21622     21624     21621     21619     21622     21625
     21622     21625     21628     21629     21622     21625     21628     21630
     21622     21625     21628     21631     21623     21622     21625     21626
     21623     21622     21625     21627     21623     21622     21625     21628
     21624     21622     21625     21626     21624     21622     21625     21627
     21624     21622     21625     21628     21625     21628     21631     21632
     21625     21628     21631     21633     21625     21628     21631     21634
     21626     21625     21628     21629     21626     21625     21628     21630
     21626     21625     21628     21631     21627     21625     21628     21629
     21627     21625     21628     21630     21627     21625     21628     21631
     21628     21631     21634     21635     21628     21631     21634     21636
     21628     21631     21634     21637     21629     21628     21631     21632
     21629     21628     21631     21633     21629     21628     21631     21634
     21630     21628     21631     21632     21630     21628     21631     21633
     21630     21628     21631     21634     21632     21631     21634     21635
     21632     21631     21634     21636     21632     21631     21634     21637
     21633     21631     21634     21635     21633     21631     21634     21636
     21633     21631     21634     21637     21638     21641     21644     21645
     21638     21641     21644     21646     21638     21641     21644     21647
     21639     21638     21641     21642     21639     21638     21641     21643
     21639     21638     21641     21644     21640     21638     21641     21642
     21640     21638     21641     21643     21640     21638     21641     21644
     21641     21644     21647     21648     21641     21644     21647     21649
     21641     21644     21647     21650     21642     21641     21644     21645
     21642     21641     21644     21646     21642     21641     21644     21647
     21643     21641     21644     21645     21643     21641     21644     21646
     21643     21641     21644     21647     21644     21647     21650     21651
     21644     21647     21650     21652     21644     21647     21650     21653
     21645     21644     21647     21648     21645     21644     21647     21649
     21645     21644     21647     21650     21646     21644     21647     21648
     21646     21644     21647     21649     21646     21644     21647     21650
     21647     21650     21653     21654     21647     21650     21653     21655
     21647     21650     21653     21656     21648     21647     21650     21651
     21648     21647     21650     21652     21648     21647     21650     21653
     21649     21647     21650     21651     21649     21647     21650     21652
     21649     21647     21650     21653     21650     21653     21656     21657
     21650     21653     21656     21658     21650     21653     21656     21659
     21651     21650     21653     21654     21651     21650     21653     21655
     21651     21650     21653     21656     21652     21650     21653     21654
     21652     21650     21653     21655     21652     21650     21653     21656
     21653     21656     21659     21660     21653     21656     21659     21661
     21653     21656     21659     21662     21654     21653     21656     21657
     21654     21653     21656     21658     21654     21653     21656     21659
     21655     21653     21656     21657     21655     21653     21656     21658
     21655     21653     21656     21659     21656     21659     21662     21663
     21656     21659     21662     21664     21656     21659     21662     21665
     21657     21656     21659     21660     21657     21656     21659     21661
     21657     21656     21659     21662     21658     21656     21659     21660
     21658     21656     21659     21661     21658     21656     21659     21662
     21659     21662     21665     21666     21659     21662     21665     21667
     21659     21662     21665     21668     21660     21659     21662     21663
     21660     21659     21662     21664     21660     21659     21662     21665
     21661     21659     21662     21663     21661     21659     21662     21664
     21661     21659     21662     21665     21662     21665     21668     21669
     21662     21665     21668     21670     21662     21665     21668     21671
     21663     21662     21665     21666     21663     21662     21665     21667
     21663     21662     21665     21668     21664     21662     21665     21666
     21664     21662     21665     21667     21664     21662     21665     21668
     21665     21668     21671     21672     21665     21668     21671     21673
     21665     21668     21671     21674     21666     21665     21668     21669
     21666     21665     21668     21670     21666     21665     21668     21671
     21667     21665     21668     21669     21667     21665     21668     21670
     21667     21665     21668     21671     21668     21671     21674     21675
     21668     21671     21674     21676     21668     21671     21674     21677
     21669     21668     21671     21672     21669     21668     21671     21673
     21669     21668     21671     21674     21670     21668     21671     21672
     21670     21668     21671     21673     21670     21668     21671     21674
     21671     21674     21677     21678     21671     21674     21677     21679
     21671     21674     21677     21680     21672     21671     21674     21675
     21672     21671     21674     21676     21672     21671     21674     21677
     21673     21671     21674     21675     21673     21671     21674     21676
     21673     21671     21674     21677     21675     21674     21677     21678
     21675     21674     21677     21679     21675     21674     21677     21680
     21676     21674     21677     21678     21676     21674     21677     21679
     21676     21674     21677     21680     21681     21682     21697     21698
     21681     21682     21697     21699     21681     21682     21697     21703
     21682     21681     21685     21686     21682     21681     21685     21687
     21682     21681     21685     21688     21682     21681     21689     21690
     21682     21681     21689     21691     21682     21681     21689     21692
     21682     21681     21693     21694     21682     21681     21693     21695
     21682     21681     21693     21696     21682     21697     21703     21700
     21683     21682     21681     21685     21683     21682     21681     21689
     21683     21682     21681     21693     21683     21682     21697     21698
     21683     21682     21697     21699     21683     21682     21697     21703
     21684     21682     21681     21685     21684     21682     21681     21689
     21684     21682     21681     21693     21684     21682     21697     21698
     21684     21682     21697     21699     21684     21682     21697     21703
     21685     21681     21682     21697     21685     21681     21689     21690
     21685     21681     21689     21691     21685     21681     21689     21692
     21685     21681     21693     21694     21685     21681     21693     21695
     21685     21681     21693     21696     21686     21685     21681     21689
     21686     21685     21681     21693     21687     21685     21681     21689
     21687     21685     21681     21693     21688     21685     21681     21689
     21688     21685     21681     21693     21689     21681     21682     21697
     21689     21681     21693     21694     21689     21681     21693     21695
     21689     21681     21693     21696     21690     21689     21681     21693
     21691     21689     21681     21693     21692     21689     21681     21693
     21693     21681     21682     21697     21697     21703     21700     21701
     21697     21703     21700     21702     21697     21703     21700     21704
     21698     21697     21703     21700     21699     21697     21703     21700
     21700     21704     21705     21706     21700     21704     21705     21707
     21700     21704     21705     21708     21701     21700     21704     21705
     21702     21700     21704     21705     21703     21700     21704     21705
     21704     21705     21708     21709     21704     21705     21708     21710
     21704     21705     21708     21716     21705     21708     21710     21711
     21705     21708     21716     21717     21705     21708     21716     21718
     21705     21708     21716     21719     21706     21705     21708     21709
     21706     21705     21708     21710     21706     21705     21708     21716
     21707     21705     21708     21709     21707     21705     21708     21710
     21707     21705     21708     21716     21708     21710     21711     21712
     21708     21710     21711     21713     21708     21716     21719     21720
     21709     21708     21710     21711     21709     21708     21716     21717
     21709     21708     21716     21718     21709     21708     21716     21719
     21710     21708     21716     21717     21710     21708     21716     21718
     21710     21708     21716     21719     21710     21711     21713     21714
     21710     21711     21713     21715     21710     21711     21713     21725
     21711     21710     21708     21716     21711     21713     21725     21726
     21711     21713     21725     21727     21711     21713     21725     21728
     21712     21711     21713     21714     21712     21711     21713     21715
     21712     21711     21713     21725     21713     21725     21728     21729
     21713     21725     21728     21730     21713     21725     21728     21731
     21714     21713     21725     21726     21714     21713     21725     21727
     21714     21713     21725     21728     21715     21713     21725     21726
     21715     21713     21725     21727     21715     21713     21725     21728
     21716     21719     21720     21721     21716     21719     21720     21722
     21717     21716     21719     21720     21718     21716     21719     21720
     21719     21720     21722     21723     21719     21720     21722     21724
     21719     21720     21722     21772     21720     21722     21772     21773
     21720     21722     21772     21774     21720     21722     21772     21775
     21721     21720     21722     21723     21721     21720     21722     21724
     21721     21720     21722     21772     21722     21772     21775     21776
     21722     21772     21775     21777     21722     21772     21775     21778
     21723     21722     21772     21773     21723     21722     21772     21774
     21723     21722     21772     21775     21724     21722     21772     21773
     21724     21722     21772     21774     21724     21722     21772     21775
     21725     21728     21731     21732     21725     21728     21731     21733
     21725     21728     21731     21734     21726     21725     21728     21729
     21726     21725     21728     21730     21726     21725     21728     21731
     21727     21725     21728     21729     21727     21725     21728     21730
     21727     21725     21728     21731     21728     21731     21734     21735
     21728     21731     21734     21736     21728     21731     21734     21737
     21729     21728     21731     21732     21729     21728     21731     21733
     21729     21728     21731     21734     21730     21728     21731     21732
     21730     21728     21731     21733     21730     21728     21731     21734
     21731     21734     21737     21738     21731     21734     21737     21739
     21731     21734     21737     21740     21732     21731     21734     21735
     21732     21731     21734     21736     21732     21731     21734     21737
     21733     21731     21734     21735     21733     21731     21734     21736
     21733     21731     21734     21737     21734     21737     21740     21741
     21734     21737     21740     21742     21734     21737     21740     21743
     21735     21734     21737     21738     21735     21734     21737     21739
     21735     21734     21737     21740     21736     21734     21737     21738
     21736     21734     21737     21739     21736     21734     21737     21740
     21737     21740     21743     21744     21737     21740     21743     21745
     21738     21737     21740     21741     21738     21737     21740     21742
     21738     21737     21740     21743     21739     21737     21740     21741
     21739     21737     21740     21742     21739     21737     21740     21743
     21740     21743     21745     21746     21740     21743     21745     21747
     21741     21740     21743     21744     21741     21740     21743     21745
     21742     21740     21743     21744     21742     21740     21743     21745
     21743     21745     21747     21748     21743     21745     21747     21749
     21743     21745     21747     21750     21744     21743     21745     21746
     21744     21743     21745     21747     21745     21747     21750     21751
     21745     21747     21750     21752     21745     21747     21750     21753
     21746     21745     21747     21748     21746     21745     21747     21749
     21746     21745     21747     21750     21747     21750     21753     21754
     21747     21750     21753     21755     21747     21750     21753     21756
     21748     21747     21750     21751     21748     21747     21750     21752
     21748     21747     21750     21753     21749     21747     21750     21751
     21749     21747     21750     21752     21749     21747     21750     21753
     21750     21753     21756     21757     21750     21753     21756     21758
     21750     21753     21756     21759     21751     21750     21753     21754
     21751     21750     21753     21755     21751     21750     21753     21756
     21752     21750     21753     21754     21752     21750     21753     21755
     21752     21750     21753     21756     21753     21756     21759     21760
     21753     21756     21759     21761     21753     21756     21759     21762
     21754     21753     21756     21757     21754     21753     21756     21758
     21754     21753     21756     21759     21755     21753     21756     21757
     21755     21753     21756     21758     21755     21753     21756     21759
     21756     21759     21762     21763     21756     21759     21762     21764
     21756     21759     21762     21765     21757     21756     21759     21760
     21757     21756     21759     21761     21757     21756     21759     21762
     21758     21756     21759     21760     21758     21756     21759     21761
     21758     21756     21759     21762     21759     21762     21765     21766
     21759     21762     21765     21767     21759     21762     21765     21768
     21760     21759     21762     21763     21760     21759     21762     21764
     21760     21759     21762     21765     21761     21759     21762     21763
     21761     21759     21762     21764     21761     21759     21762     21765
     21762     21765     21768     21769     21762     21765     21768     21770
     21762     21765     21768     21771     21763     21762     21765     21766
     21763     21762     21765     21767     21763     21762     21765     21768
     21764     21762     21765     21766     21764     21762     21765     21767
     21764     21762     21765     21768     21766     21765     21768     21769
     21766     21765     21768     21770     21766     21765     21768     21771
     21767     21765     21768     21769     21767     21765     21768     21770
     21767     21765     21768     21771     21772     21775     21778     21779
     21772     21775     21778     21780     21772     21775     21778     21781
     21773     21772     21775     21776     21773     21772     21775     21777
     21773     21772     21775     21778     21774     21772     21775     21776
     21774     21772     21775     21777     21774     21772     21775     21778
     21775     21778     21781     21782     21775     21778     21781     21783
     21775     21778     21781     21784     21776     21775     21778     21779
     21776     21775     21778     21780     21776     21775     21778     21781
     21777     21775     21778     21779     21777     21775     21778     21780
     21777     21775     21778     21781     21778     21781     21784     21785
     21778     21781     21784     21786     21778     21781     21784     21787
     21779     21778     21781     21782     21779     21778     21781     21783
     21779     21778     21781     21784     21780     21778     21781     21782
     21780     21778     21781     21783     21780     21778     21781     21784
     21781     21784     21787     21788     21781     21784     21787     21789
     21781     21784     21787     21790     21782     21781     21784     21785
     21782     21781     21784     21786     21782     21781     21784     21787
     21783     21781     21784     21785     21783     21781     21784     21786
     21783     21781     21784     21787     21784     21787     21790     21791
     21784     21787     21790     21792     21784     21787     21790     21793
     21785     21784     21787     21788     21785     21784     21787     21789
     21785     21784     21787     21790     21786     21784     21787     21788
     21786     21784     21787     21789     21786     21784     21787     21790
     21787     21790     21793     21794     21787     21790     21793     21795
     21787     21790     21793     21796     21788     21787     21790     21791
     21788     21787     21790     21792     21788     21787     21790     21793
     21789     21787     21790     21791     21789     21787     21790     21792
     21789     21787     21790     21793     21790     21793     21796     21797
     21790     21793     21796     21798     21790     21793     21796     21799
     21791     21790     21793     21794     21791     21790     21793     21795
     21791     21790     21793     21796     21792     21790     21793     21794
     21792     21790     21793     21795     21792     21790     21793     21796
     21793     21796     21799     21800     21793     21796     21799     21801
     21793     21796     21799     21802     21794     21793     21796     21797
     21794     21793     21796     21798     21794     21793     21796     21799
     21795     21793     21796     21797     21795     21793     21796     21798
     21795     21793     21796     21799     21796     21799     21802     21803
     21796     21799     21802     21804     21796     21799     21802     21805
     21797     21796     21799     21800     21797     21796     21799     21801
     21797     21796     21799     21802     21798     21796     21799     21800
     21798     21796     21799     21801     21798     21796     21799     21802
     21799     21802     21805     21806     21799     21802     21805     21807
     21799     21802     21805     21808     21800     21799     21802     21803
     21800     21799     21802     21804     21800     21799     21802     21805
     21801     21799     21802     21803     21801     21799     21802     21804
     21801     21799     21802     21805     21802     21805     21808     21809
     21802     21805     21808     21810     21802     21805     21808     21811
     21803     21802     21805     21806     21803     21802     21805     21807
     21803     21802     21805     21808     21804     21802     21805     21806
     21804     21802     21805     21807     21804     21802     21805     21808
     21805     21808     21811     21812     21805     21808     21811     21813
     21805     21808     21811     21814     21806     21805     21808     21809
     21806     21805     21808     21810     21806     21805     21808     21811
     21807     21805     21808     21809     21807     21805     21808     21810
     21807     21805     21808     21811     21809     21808     21811     21812
     21809     21808     21811     21813     21809     21808     21811     21814
     21810     21808     21811     21812     21810     21808     21811     21813
     21810     21808     21811     21814     21815     21816     21831     21832
     21815     21816     21831     21833     21815     21816     21831     21837
     21816     21815     21819     21820     21816     21815     21819     21821
     21816     21815     21819     21822     21816     21815     21823     21824
     21816     21815     21823     21825     21816     21815     21823     21826
     21816     21815     21827     21828     21816     21815     21827     21829
     21816     21815     21827     21830     21816     21831     21837     21834
     21817     21816     21815     21819     21817     21816     21815     21823
     21817     21816     21815     21827     21817     21816     21831     21832
     21817     21816     21831     21833     21817     21816     21831     21837
     21818     21816     21815     21819     21818     21816     21815     21823
     21818     21816     21815     21827     21818     21816     21831     21832
     21818     21816     21831     21833     21818     21816     21831     21837
     21819     21815     21816     21831     21819     21815     21823     21824
     21819     21815     21823     21825     21819     21815     21823     21826
     21819     21815     21827     21828     21819     21815     21827     21829
     21819     21815     21827     21830     21820     21819     21815     21823
     21820     21819     21815     21827     21821     21819     21815     21823
     21821     21819     21815     21827     21822     21819     21815     21823
     21822     21819     21815     21827     21823     21815     21816     21831
     21823     21815     21827     21828     21823     21815     21827     21829
     21823     21815     21827     21830     21824     21823     21815     21827
     21825     21823     21815     21827     21826     21823     21815     21827
     21827     21815     21816     21831     21831     21837     21834     21835
     21831     21837     21834     21836     21831     21837     21834     21838
     21832     21831     21837     21834     21833     21831     21837     21834
     21834     21838     21839     21840     21834     21838     21839     21841
     21834     21838     21839     21842     21835     21834     21838     21839
     21836     21834     21838     21839     21837     21834     21838     21839
     21838     21839     21842     21843     21838     21839     21842     21844
     21838     21839     21842     21850     21839     21842     21844     21845
     21839     21842     21850     21851     21839     21842     21850     21852
     21839     21842     21850     21853     21840     21839     21842     21843
     21840     21839     21842     21844     21840     21839     21842     21850
     21841     21839     21842     21843     21841     21839     21842     21844
     21841     21839     21842     21850     21842     21844     21845     21846
     21842     21844     21845     21847     21842     21850     21853     21854
     21843     21842     21844     21845     21843     21842     21850     21851
     21843     21842     21850     21852     21843     21842     21850     21853
     21844     21842     21850     21851     21844     21842     21850     21852
     21844     21842     21850     21853     21844     21845     21847     21848
     21844     21845     21847     21849     21844     21845     21847     21859
     21845     21844     21842     21850     21845     21847     21859     21860
     21845     21847     21859     21861     21845     21847     21859     21862
     21846     21845     21847     21848     21846     21845     21847     21849
     21846     21845     21847     21859     21847     21859     21862     21863
     21847     21859     21862     21864     21847     21859     21862     21865
     21848     21847     21859     21860     21848     21847     21859     21861
     21848     21847     21859     21862     21849     21847     21859     21860
     21849     21847     21859     21861     21849     21847     21859     21862
     21850     21853     21854     21855     21850     21853     21854     21856
     21851     21850     21853     21854     21852     21850     21853     21854
     21853     21854     21856     21857     21853     21854     21856     21858
     21853     21854     21856     21906     21854     21856     21906     21907
     21854     21856     21906     21908     21854     21856     21906     21909
     21855     21854     21856     21857     21855     21854     21856     21858
     21855     21854     21856     21906     21856     21906     21909     21910
     21856     21906     21909     21911     21856     21906     21909     21912
     21857     21856     21906     21907     21857     21856     21906     21908
     21857     21856     21906     21909     21858     21856     21906     21907
     21858     21856     21906     21908     21858     21856     21906     21909
     21859     21862     21865     21866     21859     21862     21865     21867
     21859     21862     21865     21868     21860     21859     21862     21863
     21860     21859     21862     21864     21860     21859     21862     21865
     21861     21859     21862     21863     21861     21859     21862     21864
     21861     21859     21862     21865     21862     21865     21868     21869
     21862     21865     21868     21870     21862     21865     21868     21871
     21863     21862     21865     21866     21863     21862     21865     21867
     21863     21862     21865     21868     21864     21862     21865     21866
     21864     21862     21865     21867     21864     21862     21865     21868
     21865     21868     21871     21872     21865     21868     21871     21873
     21865     21868     21871     21874     21866     21865     21868     21869
     21866     21865     21868     21870     21866     21865     21868     21871
     21867     21865     21868     21869     21867     21865     21868     21870
     21867     21865     21868     21871     21868     21871     21874     21875
     21868     21871     21874     21876     21868     21871     21874     21877
     21869     21868     21871     21872     21869     21868     21871     21873
     21869     21868     21871     21874     21870     21868     21871     21872
     21870     21868     21871     21873     21870     21868     21871     21874
     21871     21874     21877     21878     21871     21874     21877     21879
     21872     21871     21874     21875     21872     21871     21874     21876
     21872     21871     21874     21877     21873     21871     21874     21875
     21873     21871     21874     21876     21873     21871     21874     21877
     21874     21877     21879     21880     21874     21877     21879     21881
     21875     21874     21877     21878     21875     21874     21877     21879
     21876     21874     21877     21878     21876     21874     21877     21879
     21877     21879     21881     21882     21877     21879     21881     21883
     21877     21879     21881     21884     21878     21877     21879     21880
     21878     21877     21879     21881     21879     21881     21884     21885
     21879     21881     21884     21886     21879     21881     21884     21887
     21880     21879     21881     21882     21880     21879     21881     21883
     21880     21879     21881     21884     21881     21884     21887     21888
     21881     21884     21887     21889     21881     21884     21887     21890
     21882     21881     21884     21885     21882     21881     21884     21886
     21882     21881     21884     21887     21883     21881     21884     21885
     21883     21881     21884     21886     21883     21881     21884     21887
     21884     21887     21890     21891     21884     21887     21890     21892
     21884     21887     21890     21893     21885     21884     21887     21888
     21885     21884     21887     21889     21885     21884     21887     21890
     21886     21884     21887     21888     21886     21884     21887     21889
     21886     21884     21887     21890     21887     21890     21893     21894
     21887     21890     21893     21895     21887     21890     21893     21896
     21888     21887     21890     21891     21888     21887     21890     21892
     21888     21887     21890     21893     21889     21887     21890     21891
     21889     21887     21890     21892     21889     21887     21890     21893
     21890     21893     21896     21897     21890     21893     21896     21898
     21890     21893     21896     21899     21891     21890     21893     21894
     21891     21890     21893     21895     21891     21890     21893     21896
     21892     21890     21893     21894     21892     21890     21893     21895
     21892     21890     21893     21896     21893     21896     21899     21900
     21893     21896     21899     21901     21893     21896     21899     21902
     21894     21893     21896     21897     21894     21893     21896     21898
     21894     21893     21896     21899     21895     21893     21896     21897
     21895     21893     21896     21898     21895     21893     21896     21899
     21896     21899     21902     21903     21896     21899     21902     21904
     21896     21899     21902     21905     21897     21896     21899     21900
     21897     21896     21899     21901     21897     21896     21899     21902
     21898     21896     21899     21900     21898     21896     21899     21901
     21898     21896     21899     21902     21900     21899     21902     21903
     21900     21899     21902     21904     21900     21899     21902     21905
     21901     21899     21902     21903     21901     21899     21902     21904
     21901     21899     21902     21905     21906     21909     21912     21913
     21906     21909     21912     21914     21906     21909     21912     21915
     21907     21906     21909     21910     21907     21906     21909     21911
     21907     21906     21909     21912     21908     21906     21909     21910
     21908     21906     21909     21911     21908     21906     21909     21912
     21909     21912     21915     21916     21909     21912     21915     21917
     21909     21912     21915     21918     21910     21909     21912     21913
     21910     21909     21912     21914     21910     21909     21912     21915
     21911     21909     21912     21913     21911     21909     21912     21914
     21911     21909     21912     21915     21912     21915     21918     21919
     21912     21915     21918     21920     21912     21915     21918     21921
     21913     21912     21915     21916     21913     21912     21915     21917
     21913     21912     21915     21918     21914     21912     21915     21916
     21914     21912     21915     21917     21914     21912     21915     21918
     21915     21918     21921     21922     21915     21918     21921     21923
     21915     21918     21921     21924     21916     21915     21918     21919
     21916     21915     21918     21920     21916     21915     21918     21921
     21917     21915     21918     21919     21917     21915     21918     21920
     21917     21915     21918     21921     21918     21921     21924     21925
     21918     21921     21924     21926     21918     21921     21924     21927
     21919     21918     21921     21922     21919     21918     21921     21923
     21919     21918     21921     21924     21920     21918     21921     21922
     21920     21918     21921     21923     21920     21918     21921     21924
     21921     21924     21927     21928     21921     21924     21927     21929
     21921     21924     21927     21930     21922     21921     21924     21925
     21922     21921     21924     21926     21922     21921     21924     21927
     21923     21921     21924     21925     21923     21921     21924     21926
     21923     21921     21924     21927     21924     21927     21930     21931
     21924     21927     21930     21932     21924     21927     21930     21933
     21925     21924     21927     21928     21925     21924     21927     21929
     21925     21924     21927     21930     21926     21924     21927     21928
     21926     21924     21927     21929     21926     21924     21927     21930
     21927     21930     21933     21934     21927     21930     21933     21935
     21927     21930     21933     21936     21928     21927     21930     21931
     21928     21927     21930     21932     21928     21927     21930     21933
     21929     21927     21930     21931     21929     21927     21930     21932
     21929     21927     21930     21933     21930     21933     21936     21937
     21930     21933     21936     21938     21930     21933     21936     21939
     21931     21930     21933     21934     21931     21930     21933     21935
     21931     21930     21933     21936     21932     21930     21933     21934
     21932     21930     21933     21935     21932     21930     21933     21936
     21933     21936     21939     21940     21933     21936     21939     21941
     21933     21936     21939     21942     21934     21933     21936     21937
     21934     21933     21936     21938     21934     21933     21936     21939
     21935     21933     21936     21937     21935     21933     21936     21938
     21935     21933     21936     21939     21936     21939     21942     21943
     21936     21939     21942     21944     21936     21939     21942     21945
     21937     21936     21939     21940     21937     21936     21939     21941
     21937     21936     21939     21942     21938     21936     21939     21940
     21938     21936     21939     21941     21938     21936     21939     21942
     21939     21942     21945     21946     21939     21942     21945     21947
     21939     21942     21945     21948     21940     21939     21942     21943
     21940     21939     21942     21944     21940     21939     21942     21945
     21941     21939     21942     21943     21941     21939     21942     21944
     21941     21939     21942     21945     21943     21942     21945     21946
     21943     21942     21945     21947     21943     21942     21945     21948
     21944     21942     21945     21946     21944     21942     21945     21947
     21944     21942     21945     21948     21949     21950     21965     21966
     21949     21950     21965     21967     21949     21950     21965     21971
     21950     21949     21953     21954     21950     21949     21953     21955
     21950     21949     21953     21956     21950     21949     21957     21958
     21950     21949     21957     21959     21950     21949     21957     21960
     21950     21949     21961     21962     21950     21949     21961     21963
     21950     21949     21961     21964     21950     21965     21971     21968
     21951     21950     21949     21953     21951     21950     21949     21957
     21951     21950     21949     21961     21951     21950     21965     21966
     21951     21950     21965     21967     21951     21950     21965     21971
     21952     21950     21949     21953     21952     21950     21949     21957
     21952     21950     21949     21961     21952     21950     21965     21966
     21952     21950     21965     21967     21952     21950     21965     21971
     21953     21949     21950     21965     21953     21949     21957     21958
     21953     21949     21957     21959     21953     21949     21957     21960
     21953     21949     21961     21962     21953     21949     21961     21963
     21953     21949     21961     21964     21954     21953     21949     21957
     21954     21953     21949     21961     21955     21953     21949     21957
     21955     21953     21949     21961     21956     21953     21949     21957
     21956     21953     21949     21961     21957     21949     21950     21965
     21957     21949     21961     21962     21957     21949     21961     21963
     21957     21949     21961     21964     21958     21957     21949     21961
     21959     21957     21949     21961     21960     21957     21949     21961
     21961     21949     21950     21965     21965     21971     21968     21969
     21965     21971     21968     21970     21965     21971     21968     21972
     21966     21965     21971     21968     21967     21965     21971     21968
     21968     21972     21973     21974     21968     21972     21973     21975
     21968     21972     21973     21976     21969     21968     21972     21973
     21970     21968     21972     21973     21971     21968     21972     21973
     21972     21973     21976     21977     21972     21973     21976     21978
     21972     21973     21976     21984     21973     21976     21978     21979
     21973     21976     21984     21985     21973     21976     21984     21986
     21973     21976     21984     21987     21974     21973     21976     21977
     21974     21973     21976     21978     21974     21973     21976     21984
     21975     21973     21976     21977     21975     21973     21976     21978
     21975     21973     21976     21984     21976     21978     21979     21980
     21976     21978     21979     21981     21976     21984     21987     21988
     21977     21976     21978     21979     21977     21976     21984     21985
     21977     21976     21984     21986     21977     21976     21984     21987
     21978     21976     21984     21985     21978     21976     21984     21986
     21978     21976     21984     21987     21978     21979     21981     21982
     21978     21979     21981     21983     21978     21979     21981     21993
     21979     21978     21976     21984     21979     21981     21993     21994
     21979     21981     21993     21995     21979     21981     21993     21996
     21980     21979     21981     21982     21980     21979     21981     21983
     21980     21979     21981     21993     21981     21993     21996     21997
     21981     21993     21996     21998     21981     21993     21996     21999
     21982     21981     21993     21994     21982     21981     21993     21995
     21982     21981     21993     21996     21983     21981     21993     21994
     21983     21981     21993     21995     21983     21981     21993     21996
     21984     21987     21988     21989     21984     21987     21988     21990
     21985     21984     21987     21988     21986     21984     21987     21988
     21987     21988     21990     21991     21987     21988     21990     21992
     21987     21988     21990     22040     21988     21990     22040     22041
     21988     21990     22040     22042     21988     21990     22040     22043
     21989     21988     21990     21991     21989     21988     21990     21992
     21989     21988     21990     22040     21990     22040     22043     22044
     21990     22040     22043     22045     21990     22040     22043     22046
     21991     21990     22040     22041     21991     21990     22040     22042
     21991     21990     22040     22043     21992     21990     22040     22041
     21992     21990     22040     22042     21992     21990     22040     22043
     21993     21996     21999     22000     21993     21996     21999     22001
     21993     21996     21999     22002     21994     21993     21996     21997
     21994     21993     21996     21998     21994     21993     21996     21999
     21995     21993     21996     21997     21995     21993     21996     21998
     21995     21993     21996     21999     21996     21999     22002     22003
     21996     21999     22002     22004     21996     21999     22002     22005
     21997     21996     21999     22000     21997     21996     21999     22001
     21997     21996     21999     22002     21998     21996     21999     22000
     21998     21996     21999     22001     21998     21996     21999     22002
     21999     22002     22005     22006     21999     22002     22005     22007
     21999     22002     22005     22008     22000     21999     22002     22003
     22000     21999     22002     22004     22000     21999     22002     22005
     22001     21999     22002     22003     22001     21999     22002     22004
     22001     21999     22002     22005     22002     22005     22008     22009
     22002     22005     22008     22010     22002     22005     22008     22011
     22003     22002     22005     22006     22003     22002     22005     22007
     22003     22002     22005     22008     22004     22002     22005     22006
     22004     22002     22005     22007     22004     22002     22005     22008
     22005     22008     22011     22012     22005     22008     22011     22013
     22006     22005     22008     22009     22006     22005     22008     22010
     22006     22005     22008     22011     22007     22005     22008     22009
     22007     22005     22008     22010     22007     22005     22008     22011
     22008     22011     22013     22014     22008     22011     22013     22015
     22009     22008     22011     22012     22009     22008     22011     22013
     22010     22008     22011     22012     22010     22008     22011     22013
     22011     22013     22015     22016     22011     22013     22015     22017
     22011     22013     22015     22018     22012     22011     22013     22014
     22012     22011     22013     22015     22013     22015     22018     22019
     22013     22015     22018     22020     22013     22015     22018     22021
     22014     22013     22015     22016     22014     22013     22015     22017
     22014     22013     22015     22018     22015     22018     22021     22022
     22015     22018     22021     22023     22015     22018     22021     22024
     22016     22015     22018     22019     22016     22015     22018     22020
     22016     22015     22018     22021     22017     22015     22018     22019
     22017     22015     22018     22020     22017     22015     22018     22021
     22018     22021     22024     22025     22018     22021     22024     22026
     22018     22021     22024     22027     22019     22018     22021     22022
     22019     22018     22021     22023     22019     22018     22021     22024
     22020     22018     22021     22022     22020     22018     22021     22023
     22020     22018     22021     22024     22021     22024     22027     22028
     22021     22024     22027     22029     22021     22024     22027     22030
     22022     22021     22024     22025     22022     22021     22024     22026
     22022     22021     22024     22027     22023     22021     22024     22025
     22023     22021     22024     22026     22023     22021     22024     22027
     22024     22027     22030     22031     22024     22027     22030     22032
     22024     22027     22030     22033     22025     22024     22027     22028
     22025     22024     22027     22029     22025     22024     22027     22030
     22026     22024     22027     22028     22026     22024     22027     22029
     22026     22024     22027     22030     22027     22030     22033     22034
     22027     22030     22033     22035     22027     22030     22033     22036
     22028     22027     22030     22031     22028     22027     22030     22032
     22028     22027     22030     22033     22029     22027     22030     22031
     22029     22027     22030     22032     22029     22027     22030     22033
     22030     22033     22036     22037     22030     22033     22036     22038
     22030     22033     22036     22039     22031     22030     22033     22034
     22031     22030     22033     22035     22031     22030     22033     22036
     22032     22030     22033     22034     22032     22030     22033     22035
     22032     22030     22033     22036     22034     22033     22036     22037
     22034     22033     22036     22038     22034     22033     22036     22039
     22035     22033     22036     22037     22035     22033     22036     22038
     22035     22033     22036     22039     22040     22043     22046     22047
     22040     22043     22046     22048     22040     22043     22046     22049
     22041     22040     22043     22044     22041     22040     22043     22045
     22041     22040     22043     22046     22042     22040     22043     22044
     22042     22040     22043     22045     22042     22040     22043     22046
     22043     22046     22049     22050     22043     22046     22049     22051
     22043     22046     22049     22052     22044     22043     22046     22047
     22044     22043     22046     22048     22044     22043     22046     22049
     22045     22043     22046     22047     22045     22043     22046     22048
     22045     22043     22046     22049     22046     22049     22052     22053
     22046     22049     22052     22054     22046     22049     22052     22055
     22047     22046     22049     22050     22047     22046     22049     22051
     22047     22046     22049     22052     22048     22046     22049     22050
     22048     22046     22049     22051     22048     22046     22049     22052
     22049     22052     22055     22056     22049     22052     22055     22057
     22049     22052     22055     22058     22050     22049     22052     22053
     22050     22049     22052     22054     22050     22049     22052     22055
     22051     22049     22052     22053     22051     22049     22052     22054
     22051     22049     22052     22055     22052     22055     22058     22059
     22052     22055     22058     22060     22052     22055     22058     22061
     22053     22052     22055     22056     22053     22052     22055     22057
     22053     22052     22055     22058     22054     22052     22055     22056
     22054     22052     22055     22057     22054     22052     22055     22058
     22055     22058     22061     22062     22055     22058     22061     22063
     22055     22058     22061     22064     22056     22055     22058     22059
     22056     22055     22058     22060     22056     22055     22058     22061
     22057     22055     22058     22059     22057     22055     22058     22060
     22057     22055     22058     22061     22058     22061     22064     22065
     22058     22061     22064     22066     22058     22061     22064     22067
     22059     22058     22061     22062     22059     22058     22061     22063
     22059     22058     22061     22064     22060     22058     22061     22062
     22060     22058     22061     22063     22060     22058     22061     22064
     22061     22064     22067     22068     22061     22064     22067     22069
     22061     22064     22067     22070     22062     22061     22064     22065
     22062     22061     22064     22066     22062     22061     22064     22067
     22063     22061     22064     22065     22063     22061     22064     22066
     22063     22061     22064     22067     22064     22067     22070     22071
     22064     22067     22070     22072     22064     22067     22070     22073
     22065     22064     22067     22068     22065     22064     22067     22069
     22065     22064     22067     22070     22066     22064     22067     22068
     22066     22064     22067     22069     22066     22064     22067     22070
     22067     22070     22073     22074     22067     22070     22073     22075
     22067     22070     22073     22076     22068     22067     22070     22071
     22068     22067     22070     22072     22068     22067     22070     22073
     22069     22067     22070     22071     22069     22067     22070     22072
     22069     22067     22070     22073     22070     22073     22076     22077
     22070     22073     22076     22078     22070     22073     22076     22079
     22071     22070     22073     22074     22071     22070     22073     22075
     22071     22070     22073     22076     22072     22070     22073     22074
     22072     22070     22073     22075     22072     22070     22073     22076
     22073     22076     22079     22080     22073     22076     22079     22081
     22073     22076     22079     22082     22074     22073     22076     22077
     22074     22073     22076     22078     22074     22073     22076     22079
     22075     22073     22076     22077     22075     22073     22076     22078
     22075     22073     22076     22079     22077     22076     22079     22080
     22077     22076     22079     22081     22077     22076     22079     22082
     22078     22076     22079     22080     22078     22076     22079     22081
     22078     22076     22079     22082     22083     22084     22099     22100
     22083     22084     22099     22101     22083     22084     22099     22105
     22084     22083     22087     22088     22084     22083     22087     22089
     22084     22083     22087     22090     22084     22083     22091     22092
     22084     22083     22091     22093     22084     22083     22091     22094
     22084     22083     22095     22096     22084     22083     22095     22097
     22084     22083     22095     22098     22084     22099     22105     22102
     22085     22084     22083     22087     22085     22084     22083     22091
     22085     22084     22083     22095     22085     22084     22099     22100
     22085     22084     22099     22101     22085     22084     22099     22105
     22086     22084     22083     22087     22086     22084     22083     22091
     22086     22084     22083     22095     22086     22084     22099     22100
     22086     22084     22099     22101     22086     22084     22099     22105
     22087     22083     22084     22099     22087     22083     22091     22092
     22087     22083     22091     22093     22087     22083     22091     22094
     22087     22083     22095     22096     22087     22083     22095     22097
     22087     22083     22095     22098     22088     22087     22083     22091
     22088     22087     22083     22095     22089     22087     22083     22091
     22089     22087     22083     22095     22090     22087     22083     22091
     22090     22087     22083     22095     22091     22083     22084     22099
     22091     22083     22095     22096     22091     22083     22095     22097
     22091     22083     22095     22098     22092     22091     22083     22095
     22093     22091     22083     22095     22094     22091     22083     22095
     22095     22083     22084     22099     22099     22105     22102     22103
     22099     22105     22102     22104     22099     22105     22102     22106
     22100     22099     22105     22102     22101     22099     22105     22102
     22102     22106     22107     22108     22102     22106     22107     22109
     22102     22106     22107     22110     22103     22102     22106     22107
     22104     22102     22106     22107     22105     22102     22106     22107
     22106     22107     22110     22111     22106     22107     22110     22112
     22106     22107     22110     22118     22107     22110     22112     22113
     22107     22110     22118     22119     22107     22110     22118     22120
     22107     22110     22118     22121     22108     22107     22110     22111
     22108     22107     22110     22112     22108     22107     22110     22118
     22109     22107     22110     22111     22109     22107     22110     22112
     22109     22107     22110     22118     22110     22112     22113     22114
     22110     22112     22113     22115     22110     22118     22121     22122
     22111     22110     22112     22113     22111     22110     22118     22119
     22111     22110     22118     22120     22111     22110     22118     22121
     22112     22110     22118     22119     22112     22110     22118     22120
     22112     22110     22118     22121     22112     22113     22115     22116
     22112     22113     22115     22117     22112     22113     22115     22127
     22113     22112     22110     22118     22113     22115     22127     22128
     22113     22115     22127     22129     22113     22115     22127     22130
     22114     22113     22115     22116     22114     22113     22115     22117
     22114     22113     22115     22127     22115     22127     22130     22131
     22115     22127     22130     22132     22115     22127     22130     22133
     22116     22115     22127     22128     22116     22115     22127     22129
     22116     22115     22127     22130     22117     22115     22127     22128
     22117     22115     22127     22129     22117     22115     22127     22130
     22118     22121     22122     22123     22118     22121     22122     22124
     22119     22118     22121     22122     22120     22118     22121     22122
     22121     22122     22124     22125     22121     22122     22124     22126
     22121     22122     22124     22174     22122     22124     22174     22175
     22122     22124     22174     22176     22122     22124     22174     22177
     22123     22122     22124     22125     22123     22122     22124     22126
     22123     22122     22124     22174     22124     22174     22177     22178
     22124     22174     22177     22179     22124     22174     22177     22180
     22125     22124     22174     22175     22125     22124     22174     22176
     22125     22124     22174     22177     22126     22124     22174     22175
     22126     22124     22174     22176     22126     22124     22174     22177
     22127     22130     22133     22134     22127     22130     22133     22135
     22127     22130     22133     22136     22128     22127     22130     22131
     22128     22127     22130     22132     22128     22127     22130     22133
     22129     22127     22130     22131     22129     22127     22130     22132
     22129     22127     22130     22133     22130     22133     22136     22137
     22130     22133     22136     22138     22130     22133     22136     22139
     22131     22130     22133     22134     22131     22130     22133     22135
     22131     22130     22133     22136     22132     22130     22133     22134
     22132     22130     22133     22135     22132     22130     22133     22136
     22133     22136     22139     22140     22133     22136     22139     22141
     22133     22136     22139     22142     22134     22133     22136     22137
     22134     22133     22136     22138     22134     22133     22136     22139
     22135     22133     22136     22137     22135     22133     22136     22138
     22135     22133     22136     22139     22136     22139     22142     22143
     22136     22139     22142     22144     22136     22139     22142     22145
     22137     22136     22139     22140     22137     22136     22139     22141
     22137     22136     22139     22142     22138     22136     22139     22140
     22138     22136     22139     22141     22138     22136     22139     22142
     22139     22142     22145     22146     22139     22142     22145     22147
     22140     22139     22142     22143     22140     22139     22142     22144
     22140     22139     22142     22145     22141     22139     22142     22143
     22141     22139     22142     22144     22141     22139     22142     22145
     22142     22145     22147     22148     22142     22145     22147     22149
     22143     22142     22145     22146     22143     22142     22145     22147
     22144     22142     22145     22146     22144     22142     22145     22147
     22145     22147     22149     22150     22145     22147     22149     22151
     22145     22147     22149     22152     22146     22145     22147     22148
     22146     22145     22147     22149     22147     22149     22152     22153
     22147     22149     22152     22154     22147     22149     22152     22155
     22148     22147     22149     22150     22148     22147     22149     22151
     22148     22147     22149     22152     22149     22152     22155     22156
     22149     22152     22155     22157     22149     22152     22155     22158
     22150     22149     22152     22153     22150     22149     22152     22154
     22150     22149     22152     22155     22151     22149     22152     22153
     22151     22149     22152     22154     22151     22149     22152     22155
     22152     22155     22158     22159     22152     22155     22158     22160
     22152     22155     22158     22161     22153     22152     22155     22156
     22153     22152     22155     22157     22153     22152     22155     22158
     22154     22152     22155     22156     22154     22152     22155     22157
     22154     22152     22155     22158     22155     22158     22161     22162
     22155     22158     22161     22163     22155     22158     22161     22164
     22156     22155     22158     22159     22156     22155     22158     22160
     22156     22155     22158     22161     22157     22155     22158     22159
     22157     22155     22158     22160     22157     22155     22158     22161
     22158     22161     22164     22165     22158     22161     22164     22166
     22158     22161     22164     22167     22159     22158     22161     22162
     22159     22158     22161     22163     22159     22158     22161     22164
     22160     22158     22161     22162     22160     22158     22161     22163
     22160     22158     22161     22164     22161     22164     22167     22168
     22161     22164     22167     22169     22161     22164     22167     22170
     22162     22161     22164     22165     22162     22161     22164     22166
     22162     22161     22164     22167     22163     22161     22164     22165
     22163     22161     22164     22166     22163     22161     22164     22167
     22164     22167     22170     22171     22164     22167     22170     22172
     22164     22167     22170     22173     22165     22164     22167     22168
     22165     22164     22167     22169     22165     22164     22167     22170
     22166     22164     22167     22168     22166     22164     22167     22169
     22166     22164     22167     22170     22168     22167     22170     22171
     22168     22167     22170     22172     22168     22167     22170     22173
     22169     22167     22170     22171     22169     22167     22170     22172
     22169     22167     22170     22173     22174     22177     22180     22181
     22174     22177     22180     22182     22174     22177     22180     22183
     22175     22174     22177     22178     22175     22174     22177     22179
     22175     22174     22177     22180     22176     22174     22177     22178
     22176     22174     22177     22179     22176     22174     22177     22180
     22177     22180     22183     22184     22177     22180     22183     22185
     22177     22180     22183     22186     22178     22177     22180     22181
     22178     22177     22180     22182     22178     22177     22180     22183
     22179     22177     22180     22181     22179     22177     22180     22182
     22179     22177     22180     22183     22180     22183     22186     22187
     22180     22183     22186     22188     22180     22183     22186     22189
     22181     22180     22183     22184     22181     22180     22183     22185
     22181     22180     22183     22186     22182     22180     22183     22184
     22182     22180     22183     22185     22182     22180     22183     22186
     22183     22186     22189     22190     22183     22186     22189     22191
     22183     22186     22189     22192     22184     22183     22186     22187
     22184     22183     22186     22188     22184     22183     22186     22189
     22185     22183     22186     22187     22185     22183     22186     22188
     22185     22183     22186     22189     22186     22189     22192     22193
     22186     22189     22192     22194     22186     22189     22192     22195
     22187     22186     22189     22190     22187     22186     22189     22191
     22187     22186     22189     22192     22188     22186     22189     22190
     22188     22186     22189     22191     22188     22186     22189     22192
     22189     22192     22195     22196     22189     22192     22195     22197
     22189     22192     22195     22198     22190     22189     22192     22193
     22190     22189     22192     22194     22190     22189     22192     22195
     22191     22189     22192     22193     22191     22189     22192     22194
     22191     22189     22192     22195     22192     22195     22198     22199
     22192     22195     22198     22200     22192     22195     22198     22201
     22193     22192     22195     22196     22193     22192     22195     22197
     22193     22192     22195     22198     22194     22192     22195     22196
     22194     22192     22195     22197     22194     22192     22195     22198
     22195     22198     22201     22202     22195     22198     22201     22203
     22195     22198     22201     22204     22196     22195     22198     22199
     22196     22195     22198     22200     22196     22195     22198     22201
     22197     22195     22198     22199     22197     22195     22198     22200
     22197     22195     22198     22201     22198     22201     22204     22205
     22198     22201     22204     22206     22198     22201     22204     22207
     22199     22198     22201     22202     22199     22198     22201     22203
     22199     22198     22201     22204     22200     22198     22201     22202
     22200     22198     22201     22203     22200     22198     22201     22204
     22201     22204     22207     22208     22201     22204     22207     22209
     22201     22204     22207     22210     22202     22201     22204     22205
     22202     22201     22204     22206     22202     22201     22204     22207
     22203     22201     22204     22205     22203     22201     22204     22206
     22203     22201     22204     22207     22204     22207     22210     22211
     22204     22207     22210     22212     22204     22207     22210     22213
     22205     22204     22207     22208     22205     22204     22207     22209
     22205     22204     22207     22210     22206     22204     22207     22208
     22206     22204     22207     22209     22206     22204     22207     22210
     22207     22210     22213     22214     22207     22210     22213     22215
     22207     22210     22213     22216     22208     22207     22210     22211
     22208     22207     22210     22212     22208     22207     22210     22213
     22209     22207     22210     22211     22209     22207     22210     22212
     22209     22207     22210     22213     22211     22210     22213     22214
     22211     22210     22213     22215     22211     22210     22213     22216
     22212     22210     22213     22214     22212     22210     22213     22215
     22212     22210     22213     22216     22217     22218     22233     22234
     22217     22218     22233     22235     22217     22218     22233     22239
     22218     22217     22221     22222     22218     22217     22221     22223
     22218     22217     22221     22224     22218     22217     22225     22226
     22218     22217     22225     22227     22218     22217     22225     22228
     22218     22217     22229     22230     22218     22217     22229     22231
     22218     22217     22229     22232     22218     22233     22239     22236
     22219     22218     22217     22221     22219     22218     22217     22225
     22219     22218     22217     22229     22219     22218     22233     22234
     22219     22218     22233     22235     22219     22218     22233     22239
     22220     22218     22217     22221     22220     22218     22217     22225
     22220     22218     22217     22229     22220     22218     22233     22234
     22220     22218     22233     22235     22220     22218     22233     22239
     22221     22217     22218     22233     22221     22217     22225     22226
     22221     22217     22225     22227     22221     22217     22225     22228
     22221     22217     22229     22230     22221     22217     22229     22231
     22221     22217     22229     22232     22222     22221     22217     22225
     22222     22221     22217     22229     22223     22221     22217     22225
     22223     22221     22217     22229     22224     22221     22217     22225
     22224     22221     22217     22229     22225     22217     22218     22233
     22225     22217     22229     22230     22225     22217     22229     22231
     22225     22217     22229     22232     22226     22225     22217     22229
     22227     22225     22217     22229     22228     22225     22217     22229
     22229     22217     22218     22233     22233     22239     22236     22237
     22233     22239     22236     22238     22233     22239     22236     22240
     22234     22233     22239     22236     22235     22233     22239     22236
     22236     22240     22241     22242     22236     22240     22241     22243
     22236     22240     22241     22244     22237     22236     22240     22241
     22238     22236     22240     22241     22239     22236     22240     22241
     22240     22241     22244     22245     22240     22241     22244     22246
     22240     22241     22244     22252     22241     22244     22246     22247
     22241     22244     22252     22253     22241     22244     22252     22254
     22241     22244     22252     22255     22242     22241     22244     22245
     22242     22241     22244     22246     22242     22241     22244     22252
     22243     22241     22244     22245     22243     22241     22244     22246
     22243     22241     22244     22252     22244     22246     22247     22248
     22244     22246     22247     22249     22244     22252     22255     22256
     22245     22244     22246     22247     22245     22244     22252     22253
     22245     22244     22252     22254     22245     22244     22252     22255
     22246     22244     22252     22253     22246     22244     22252     22254
     22246     22244     22252     22255     22246     22247     22249     22250
     22246     22247     22249     22251     22246     22247     22249     22261
     22247     22246     22244     22252     22247     22249     22261     22262
     22247     22249     22261     22263     22247     22249     22261     22264
     22248     22247     22249     22250     22248     22247     22249     22251
     22248     22247     22249     22261     22249     22261     22264     22265
     22249     22261     22264     22266     22249     22261     22264     22267
     22250     22249     22261     22262     22250     22249     22261     22263
     22250     22249     22261     22264     22251     22249     22261     22262
     22251     22249     22261     22263     22251     22249     22261     22264
     22252     22255     22256     22257     22252     22255     22256     22258
     22253     22252     22255     22256     22254     22252     22255     22256
     22255     22256     22258     22259     22255     22256     22258     22260
     22255     22256     22258     22308     22256     22258     22308     22309
     22256     22258     22308     22310     22256     22258     22308     22311
     22257     22256     22258     22259     22257     22256     22258     22260
     22257     22256     22258     22308     22258     22308     22311     22312
     22258     22308     22311     22313     22258     22308     22311     22314
     22259     22258     22308     22309     22259     22258     22308     22310
     22259     22258     22308     22311     22260     22258     22308     22309
     22260     22258     22308     22310     22260     22258     22308     22311
     22261     22264     22267     22268     22261     22264     22267     22269
     22261     22264     22267     22270     22262     22261     22264     22265
     22262     22261     22264     22266     22262     22261     22264     22267
     22263     22261     22264     22265     22263     22261     22264     22266
     22263     22261     22264     22267     22264     22267     22270     22271
     22264     22267     22270     22272     22264     22267     22270     22273
     22265     22264     22267     22268     22265     22264     22267     22269
     22265     22264     22267     22270     22266     22264     22267     22268
     22266     22264     22267     22269     22266     22264     22267     22270
     22267     22270     22273     22274     22267     22270     22273     22275
     22267     22270     22273     22276     22268     22267     22270     22271
     22268     22267     22270     22272     22268     22267     22270     22273
     22269     22267     22270     22271     22269     22267     22270     22272
     22269     22267     22270     22273     22270     22273     22276     22277
     22270     22273     22276     22278     22270     22273     22276     22279
     22271     22270     22273     22274     22271     22270     22273     22275
     22271     22270     22273     22276     22272     22270     22273     22274
     22272     22270     22273     22275     22272     22270     22273     22276
     22273     22276     22279     22280     22273     22276     22279     22281
     22274     22273     22276     22277     22274     22273     22276     22278
     22274     22273     22276     22279     22275     22273     22276     22277
     22275     22273     22276     22278     22275     22273     22276     22279
     22276     22279     22281     22282     22276     22279     22281     22283
     22277     22276     22279     22280     22277     22276     22279     22281
     22278     22276     22279     22280     22278     22276     22279     22281
     22279     22281     22283     22284     22279     22281     22283     22285
     22279     22281     22283     22286     22280     22279     22281     22282
     22280     22279     22281     22283     22281     22283     22286     22287
     22281     22283     22286     22288     22281     22283     22286     22289
     22282     22281     22283     22284     22282     22281     22283     22285
     22282     22281     22283     22286     22283     22286     22289     22290
     22283     22286     22289     22291     22283     22286     22289     22292
     22284     22283     22286     22287     22284     22283     22286     22288
     22284     22283     22286     22289     22285     22283     22286     22287
     22285     22283     22286     22288     22285     22283     22286     22289
     22286     22289     22292     22293     22286     22289     22292     22294
     22286     22289     22292     22295     22287     22286     22289     22290
     22287     22286     22289     22291     22287     22286     22289     22292
     22288     22286     22289     22290     22288     22286     22289     22291
     22288     22286     22289     22292     22289     22292     22295     22296
     22289     22292     22295     22297     22289     22292     22295     22298
     22290     22289     22292     22293     22290     22289     22292     22294
     22290     22289     22292     22295     22291     22289     22292     22293
     22291     22289     22292     22294     22291     22289     22292     22295
     22292     22295     22298     22299     22292     22295     22298     22300
     22292     22295     22298     22301     22293     22292     22295     22296
     22293     22292     22295     22297     22293     22292     22295     22298
     22294     22292     22295     22296     22294     22292     22295     22297
     22294     22292     22295     22298     22295     22298     22301     22302
     22295     22298     22301     22303     22295     22298     22301     22304
     22296     22295     22298     22299     22296     22295     22298     22300
     22296     22295     22298     22301     22297     22295     22298     22299
     22297     22295     22298     22300     22297     22295     22298     22301
     22298     22301     22304     22305     22298     22301     22304     22306
     22298     22301     22304     22307     22299     22298     22301     22302
     22299     22298     22301     22303     22299     22298     22301     22304
     22300     22298     22301     22302     22300     22298     22301     22303
     22300     22298     22301     22304     22302     22301     22304     22305
     22302     22301     22304     22306     22302     22301     22304     22307
     22303     22301     22304     22305     22303     22301     22304     22306
     22303     22301     22304     22307     22308     22311     22314     22315
     22308     22311     22314     22316     22308     22311     22314     22317
     22309     22308     22311     22312     22309     22308     22311     22313
     22309     22308     22311     22314     22310     22308     22311     22312
     22310     22308     22311     22313     22310     22308     22311     22314
     22311     22314     22317     22318     22311     22314     22317     22319
     22311     22314     22317     22320     22312     22311     22314     22315
     22312     22311     22314     22316     22312     22311     22314     22317
     22313     22311     22314     22315     22313     22311     22314     22316
     22313     22311     22314     22317     22314     22317     22320     22321
     22314     22317     22320     22322     22314     22317     22320     22323
     22315     22314     22317     22318     22315     22314     22317     22319
     22315     22314     22317     22320     22316     22314     22317     22318
     22316     22314     22317     22319     22316     22314     22317     22320
     22317     22320     22323     22324     22317     22320     22323     22325
     22317     22320     22323     22326     22318     22317     22320     22321
     22318     22317     22320     22322     22318     22317     22320     22323
     22319     22317     22320     22321     22319     22317     22320     22322
     22319     22317     22320     22323     22320     22323     22326     22327
     22320     22323     22326     22328     22320     22323     22326     22329
     22321     22320     22323     22324     22321     22320     22323     22325
     22321     22320     22323     22326     22322     22320     22323     22324
     22322     22320     22323     22325     22322     22320     22323     22326
     22323     22326     22329     22330     22323     22326     22329     22331
     22323     22326     22329     22332     22324     22323     22326     22327
     22324     22323     22326     22328     22324     22323     22326     22329
     22325     22323     22326     22327     22325     22323     22326     22328
     22325     22323     22326     22329     22326     22329     22332     22333
     22326     22329     22332     22334     22326     22329     22332     22335
     22327     22326     22329     22330     22327     22326     22329     22331
     22327     22326     22329     22332     22328     22326     22329     22330
     22328     22326     22329     22331     22328     22326     22329     22332
     22329     22332     22335     22336     22329     22332     22335     22337
     22329     22332     22335     22338     22330     22329     22332     22333
     22330     22329     22332     22334     22330     22329     22332     22335
     22331     22329     22332     22333     22331     22329     22332     22334
     22331     22329     22332     22335     22332     22335     22338     22339
     22332     22335     22338     22340     22332     22335     22338     22341
     22333     22332     22335     22336     22333     22332     22335     22337
     22333     22332     22335     22338     22334     22332     22335     22336
     22334     22332     22335     22337     22334     22332     22335     22338
     22335     22338     22341     22342     22335     22338     22341     22343
     22335     22338     22341     22344     22336     22335     22338     22339
     22336     22335     22338     22340     22336     22335     22338     22341
     22337     22335     22338     22339     22337     22335     22338     22340
     22337     22335     22338     22341     22338     22341     22344     22345
     22338     22341     22344     22346     22338     22341     22344     22347
     22339     22338     22341     22342     22339     22338     22341     22343
     22339     22338     22341     22344     22340     22338     22341     22342
     22340     22338     22341     22343     22340     22338     22341     22344
     22341     22344     22347     22348     22341     22344     22347     22349
     22341     22344     22347     22350     22342     22341     22344     22345
     22342     22341     22344     22346     22342     22341     22344     22347
     22343     22341     22344     22345     22343     22341     22344     22346
     22343     22341     22344     22347     22345     22344     22347     22348
     22345     22344     22347     22349     22345     22344     22347     22350
     22346     22344     22347     22348     22346     22344     22347     22349
     22346     22344     22347     22350     22351     22352     22367     22368
     22351     22352     22367     22369     22351     22352     22367     22373
     22352     22351     22355     22356     22352     22351     22355     22357
     22352     22351     22355     22358     22352     22351     22359     22360
     22352     22351     22359     22361     22352     22351     22359     22362
     22352     22351     22363     22364     22352     22351     22363     22365
     22352     22351     22363     22366     22352     22367     22373     22370
     22353     22352     22351     22355     22353     22352     22351     22359
     22353     22352     22351     22363     22353     22352     22367     22368
     22353     22352     22367     22369     22353     22352     22367     22373
     22354     22352     22351     22355     22354     22352     22351     22359
     22354     22352     22351     22363     22354     22352     22367     22368
     22354     22352     22367     22369     22354     22352     22367     22373
     22355     22351     22352     22367     22355     22351     22359     22360
     22355     22351     22359     22361     22355     22351     22359     22362
     22355     22351     22363     22364     22355     22351     22363     22365
     22355     22351     22363     22366     22356     22355     22351     22359
     22356     22355     22351     22363     22357     22355     22351     22359
     22357     22355     22351     22363     22358     22355     22351     22359
     22358     22355     22351     22363     22359     22351     22352     22367
     22359     22351     22363     22364     22359     22351     22363     22365
     22359     22351     22363     22366     22360     22359     22351     22363
     22361     22359     22351     22363     22362     22359     22351     22363
     22363     22351     22352     22367     22367     22373     22370     22371
     22367     22373     22370     22372     22367     22373     22370     22374
     22368     22367     22373     22370     22369     22367     22373     22370
     22370     22374     22375     22376     22370     22374     22375     22377
     22370     22374     22375     22378     22371     22370     22374     22375
     22372     22370     22374     22375     22373     22370     22374     22375
     22374     22375     22378     22379     22374     22375     22378     22380
     22374     22375     22378     22386     22375     22378     22380     22381
     22375     22378     22386     22387     22375     22378     22386     22388
     22375     22378     22386     22389     22376     22375     22378     22379
     22376     22375     22378     22380     22376     22375     22378     22386
     22377     22375     22378     22379     22377     22375     22378     22380
     22377     22375     22378     22386     22378     22380     22381     22382
     22378     22380     22381     22383     22378     22386     22389     22390
     22379     22378     22380     22381     22379     22378     22386     22387
     22379     22378     22386     22388     22379     22378     22386     22389
     22380     22378     22386     22387     22380     22378     22386     22388
     22380     22378     22386     22389     22380     22381     22383     22384
     22380     22381     22383     22385     22380     22381     22383     22395
     22381     22380     22378     22386     22381     22383     22395     22396
     22381     22383     22395     22397     22381     22383     22395     22398
     22382     22381     22383     22384     22382     22381     22383     22385
     22382     22381     22383     22395     22383     22395     22398     22399
     22383     22395     22398     22400     22383     22395     22398     22401
     22384     22383     22395     22396     22384     22383     22395     22397
     22384     22383     22395     22398     22385     22383     22395     22396
     22385     22383     22395     22397     22385     22383     22395     22398
     22386     22389     22390     22391     22386     22389     22390     22392
     22387     22386     22389     22390     22388     22386     22389     22390
     22389     22390     22392     22393     22389     22390     22392     22394
     22389     22390     22392     22442     22390     22392     22442     22443
     22390     22392     22442     22444     22390     22392     22442     22445
     22391     22390     22392     22393     22391     22390     22392     22394
     22391     22390     22392     22442     22392     22442     22445     22446
     22392     22442     22445     22447     22392     22442     22445     22448
     22393     22392     22442     22443     22393     22392     22442     22444
     22393     22392     22442     22445     22394     22392     22442     22443
     22394     22392     22442     22444     22394     22392     22442     22445
     22395     22398     22401     22402     22395     22398     22401     22403
     22395     22398     22401     22404     22396     22395     22398     22399
     22396     22395     22398     22400     22396     22395     22398     22401
     22397     22395     22398     22399     22397     22395     22398     22400
     22397     22395     22398     22401     22398     22401     22404     22405
     22398     22401     22404     22406     22398     22401     22404     22407
     22399     22398     22401     22402     22399     22398     22401     22403
     22399     22398     22401     22404     22400     22398     22401     22402
     22400     22398     22401     22403     22400     22398     22401     22404
     22401     22404     22407     22408     22401     22404     22407     22409
     22401     22404     22407     22410     22402     22401     22404     22405
     22402     22401     22404     22406     22402     22401     22404     22407
     22403     22401     22404     22405     22403     22401     22404     22406
     22403     22401     22404     22407     22404     22407     22410     22411
     22404     22407     22410     22412     22404     22407     22410     22413
     22405     22404     22407     22408     22405     22404     22407     22409
     22405     22404     22407     22410     22406     22404     22407     22408
     22406     22404     22407     22409     22406     22404     22407     22410
     22407     22410     22413     22414     22407     22410     22413     22415
     22408     22407     22410     22411     22408     22407     22410     22412
     22408     22407     22410     22413     22409     22407     22410     22411
     22409     22407     22410     22412     22409     22407     22410     22413
     22410     22413     22415     22416     22410     22413     22415     22417
     22411     22410     22413     22414     22411     22410     22413     22415
     22412     22410     22413     22414     22412     22410     22413     22415
     22413     22415     22417     22418     22413     22415     22417     22419
     22413     22415     22417     22420     22414     22413     22415     22416
     22414     22413     22415     22417     22415     22417     22420     22421
     22415     22417     22420     22422     22415     22417     22420     22423
     22416     22415     22417     22418     22416     22415     22417     22419
     22416     22415     22417     22420     22417     22420     22423     22424
     22417     22420     22423     22425     22417     22420     22423     22426
     22418     22417     22420     22421     22418     22417     22420     22422
     22418     22417     22420     22423     22419     22417     22420     22421
     22419     22417     22420     22422     22419     22417     22420     22423
     22420     22423     22426     22427     22420     22423     22426     22428
     22420     22423     22426     22429     22421     22420     22423     22424
     22421     22420     22423     22425     22421     22420     22423     22426
     22422     22420     22423     22424     22422     22420     22423     22425
     22422     22420     22423     22426     22423     22426     22429     22430
     22423     22426     22429     22431     22423     22426     22429     22432
     22424     22423     22426     22427     22424     22423     22426     22428
     22424     22423     22426     22429     22425     22423     22426     22427
     22425     22423     22426     22428     22425     22423     22426     22429
     22426     22429     22432     22433     22426     22429     22432     22434
     22426     22429     22432     22435     22427     22426     22429     22430
     22427     22426     22429     22431     22427     22426     22429     22432
     22428     22426     22429     22430     22428     22426     22429     22431
     22428     22426     22429     22432     22429     22432     22435     22436
     22429     22432     22435     22437     22429     22432     22435     22438
     22430     22429     22432     22433     22430     22429     22432     22434
     22430     22429     22432     22435     22431     22429     22432     22433
     22431     22429     22432     22434     22431     22429     22432     22435
     22432     22435     22438     22439     22432     22435     22438     22440
     22432     22435     22438     22441     22433     22432     22435     22436
     22433     22432     22435     22437     22433     22432     22435     22438
     22434     22432     22435     22436     22434     22432     22435     22437
     22434     22432     22435     22438     22436     22435     22438     22439
     22436     22435     22438     22440     22436     22435     22438     22441
     22437     22435     22438     22439     22437     22435     22438     22440
     22437     22435     22438     22441     22442     22445     22448     22449
     22442     22445     22448     22450     22442     22445     22448     22451
     22443     22442     22445     22446     22443     22442     22445     22447
     22443     22442     22445     22448     22444     22442     22445     22446
     22444     22442     22445     22447     22444     22442     22445     22448
     22445     22448     22451     22452     22445     22448     22451     22453
     22445     22448     22451     22454     22446     22445     22448     22449
     22446     22445     22448     22450     22446     22445     22448     22451
     22447     22445     22448     22449     22447     22445     22448     22450
     22447     22445     22448     22451     22448     22451     22454     22455
     22448     22451     22454     22456     22448     22451     22454     22457
     22449     22448     22451     22452     22449     22448     22451     22453
     22449     22448     22451     22454     22450     22448     22451     22452
     22450     22448     22451     22453     22450     22448     22451     22454
     22451     22454     22457     22458     22451     22454     22457     22459
     22451     22454     22457     22460     22452     22451     22454     22455
     22452     22451     22454     22456     22452     22451     22454     22457
     22453     22451     22454     22455     22453     22451     22454     22456
     22453     22451     22454     22457     22454     22457     22460     22461
     22454     22457     22460     22462     22454     22457     22460     22463
     22455     22454     22457     22458     22455     22454     22457     22459
     22455     22454     22457     22460     22456     22454     22457     22458
     22456     22454     22457     22459     22456     22454     22457     22460
     22457     22460     22463     22464     22457     22460     22463     22465
     22457     22460     22463     22466     22458     22457     22460     22461
     22458     22457     22460     22462     22458     22457     22460     22463
     22459     22457     22460     22461     22459     22457     22460     22462
     22459     22457     22460     22463     22460     22463     22466     22467
     22460     22463     22466     22468     22460     22463     22466     22469
     22461     22460     22463     22464     22461     22460     22463     22465
     22461     22460     22463     22466     22462     22460     22463     22464
     22462     22460     22463     22465     22462     22460     22463     22466
     22463     22466     22469     22470     22463     22466     22469     22471
     22463     22466     22469     22472     22464     22463     22466     22467
     22464     22463     22466     22468     22464     22463     22466     22469
     22465     22463     22466     22467     22465     22463     22466     22468
     22465     22463     22466     22469     22466     22469     22472     22473
     22466     22469     22472     22474     22466     22469     22472     22475
     22467     22466     22469     22470     22467     22466     22469     22471
     22467     22466     22469     22472     22468     22466     22469     22470
     22468     22466     22469     22471     22468     22466     22469     22472
     22469     22472     22475     22476     22469     22472     22475     22477
     22469     22472     22475     22478     22470     22469     22472     22473
     22470     22469     22472     22474     22470     22469     22472     22475
     22471     22469     22472     22473     22471     22469     22472     22474
     22471     22469     22472     22475     22472     22475     22478     22479
     22472     22475     22478     22480     22472     22475     22478     22481
     22473     22472     22475     22476     22473     22472     22475     22477
     22473     22472     22475     22478     22474     22472     22475     22476
     22474     22472     22475     22477     22474     22472     22475     22478
     22475     22478     22481     22482     22475     22478     22481     22483
     22475     22478     22481     22484     22476     22475     22478     22479
     22476     22475     22478     22480     22476     22475     22478     22481
     22477     22475     22478     22479     22477     22475     22478     22480
     22477     22475     22478     22481     22479     22478     22481     22482
     22479     22478     22481     22483     22479     22478     22481     22484
     22480     22478     22481     22482     22480     22478     22481     22483
     22480     22478     22481     22484     22485     22486     22501     22502
     22485     22486     22501     22503     22485     22486     22501     22507
     22486     22485     22489     22490     22486     22485     22489     22491
     22486     22485     22489     22492     22486     22485     22493     22494
     22486     22485     22493     22495     22486     22485     22493     22496
     22486     22485     22497     22498     22486     22485     22497     22499
     22486     22485     22497     22500     22486     22501     22507     22504
     22487     22486     22485     22489     22487     22486     22485     22493
     22487     22486     22485     22497     22487     22486     22501     22502
     22487     22486     22501     22503     22487     22486     22501     22507
     22488     22486     22485     22489     22488     22486     22485     22493
     22488     22486     22485     22497     22488     22486     22501     22502
     22488     22486     22501     22503     22488     22486     22501     22507
     22489     22485     22486     22501     22489     22485     22493     22494
     22489     22485     22493     22495     22489     22485     22493     22496
     22489     22485     22497     22498     22489     22485     22497     22499
     22489     22485     22497     22500     22490     22489     22485     22493
     22490     22489     22485     22497     22491     22489     22485     22493
     22491     22489     22485     22497     22492     22489     22485     22493
     22492     22489     22485     22497     22493     22485     22486     22501
     22493     22485     22497     22498     22493     22485     22497     22499
     22493     22485     22497     22500     22494     22493     22485     22497
     22495     22493     22485     22497     22496     22493     22485     22497
     22497     22485     22486     22501     22501     22507     22504     22505
     22501     22507     22504     22506     22501     22507     22504     22508
     22502     22501     22507     22504     22503     22501     22507     22504
     22504     22508     22509     22510     22504     22508     22509     22511
     22504     22508     22509     22512     22505     22504     22508     22509
     22506     22504     22508     22509     22507     22504     22508     22509
     22508     22509     22512     22513     22508     22509     22512     22514
     22508     22509     22512     22520     22509     22512     22514     22515
     22509     22512     22520     22521     22509     22512     22520     22522
     22509     22512     22520     22523     22510     22509     22512     22513
     22510     22509     22512     22514     22510     22509     22512     22520
     22511     22509     22512     22513     22511     22509     22512     22514
     22511     22509     22512     22520     22512     22514     22515     22516
     22512     22514     22515     22517     22512     22520     22523     22524
     22513     22512     22514     22515     22513     22512     22520     22521
     22513     22512     22520     22522     22513     22512     22520     22523
     22514     22512     22520     22521     22514     22512     22520     22522
     22514     22512     22520     22523     22514     22515     22517     22518
     22514     22515     22517     22519     22514     22515     22517     22529
     22515     22514     22512     22520     22515     22517     22529     22530
     22515     22517     22529     22531     22515     22517     22529     22532
     22516     22515     22517     22518     22516     22515     22517     22519
     22516     22515     22517     22529     22517     22529     22532     22533
     22517     22529     22532     22534     22517     22529     22532     22535
     22518     22517     22529     22530     22518     22517     22529     22531
     22518     22517     22529     22532     22519     22517     22529     22530
     22519     22517     22529     22531     22519     22517     22529     22532
     22520     22523     22524     22525     22520     22523     22524     22526
     22521     22520     22523     22524     22522     22520     22523     22524
     22523     22524     22526     22527     22523     22524     22526     22528
     22523     22524     22526     22576     22524     22526     22576     22577
     22524     22526     22576     22578     22524     22526     22576     22579
     22525     22524     22526     22527     22525     22524     22526     22528
     22525     22524     22526     22576     22526     22576     22579     22580
     22526     22576     22579     22581     22526     22576     22579     22582
     22527     22526     22576     22577     22527     22526     22576     22578
     22527     22526     22576     22579     22528     22526     22576     22577
     22528     22526     22576     22578     22528     22526     22576     22579
     22529     22532     22535     22536     22529     22532     22535     22537
     22529     22532     22535     22538     22530     22529     22532     22533
     22530     22529     22532     22534     22530     22529     22532     22535
     22531     22529     22532     22533     22531     22529     22532     22534
     22531     22529     22532     22535     22532     22535     22538     22539
     22532     22535     22538     22540     22532     22535     22538     22541
     22533     22532     22535     22536     22533     22532     22535     22537
     22533     22532     22535     22538     22534     22532     22535     22536
     22534     22532     22535     22537     22534     22532     22535     22538
     22535     22538     22541     22542     22535     22538     22541     22543
     22535     22538     22541     22544     22536     22535     22538     22539
     22536     22535     22538     22540     22536     22535     22538     22541
     22537     22535     22538     22539     22537     22535     22538     22540
     22537     22535     22538     22541     22538     22541     22544     22545
     22538     22541     22544     22546     22538     22541     22544     22547
     22539     22538     22541     22542     22539     22538     22541     22543
     22539     22538     22541     22544     22540     22538     22541     22542
     22540     22538     22541     22543     22540     22538     22541     22544
     22541     22544     22547     22548     22541     22544     22547     22549
     22542     22541     22544     22545     22542     22541     22544     22546
     22542     22541     22544     22547     22543     22541     22544     22545
     22543     22541     22544     22546     22543     22541     22544     22547
     22544     22547     22549     22550     22544     22547     22549     22551
     22545     22544     22547     22548     22545     22544     22547     22549
     22546     22544     22547     22548     22546     22544     22547     22549
     22547     22549     22551     22552     22547     22549     22551     22553
     22547     22549     22551     22554     22548     22547     22549     22550
     22548     22547     22549     22551     22549     22551     22554     22555
     22549     22551     22554     22556     22549     22551     22554     22557
     22550     22549     22551     22552     22550     22549     22551     22553
     22550     22549     22551     22554     22551     22554     22557     22558
     22551     22554     22557     22559     22551     22554     22557     22560
     22552     22551     22554     22555     22552     22551     22554     22556
     22552     22551     22554     22557     22553     22551     22554     22555
     22553     22551     22554     22556     22553     22551     22554     22557
     22554     22557     22560     22561     22554     22557     22560     22562
     22554     22557     22560     22563     22555     22554     22557     22558
     22555     22554     22557     22559     22555     22554     22557     22560
     22556     22554     22557     22558     22556     22554     22557     22559
     22556     22554     22557     22560     22557     22560     22563     22564
     22557     22560     22563     22565     22557     22560     22563     22566
     22558     22557     22560     22561     22558     22557     22560     22562
     22558     22557     22560     22563     22559     22557     22560     22561
     22559     22557     22560     22562     22559     22557     22560     22563
     22560     22563     22566     22567     22560     22563     22566     22568
     22560     22563     22566     22569     22561     22560     22563     22564
     22561     22560     22563     22565     22561     22560     22563     22566
     22562     22560     22563     22564     22562     22560     22563     22565
     22562     22560     22563     22566     22563     22566     22569     22570
     22563     22566     22569     22571     22563     22566     22569     22572
     22564     22563     22566     22567     22564     22563     22566     22568
     22564     22563     22566     22569     22565     22563     22566     22567
     22565     22563     22566     22568     22565     22563     22566     22569
     22566     22569     22572     22573     22566     22569     22572     22574
     22566     22569     22572     22575     22567     22566     22569     22570
     22567     22566     22569     22571     22567     22566     22569     22572
     22568     22566     22569     22570     22568     22566     22569     22571
     22568     22566     22569     22572     22570     22569     22572     22573
     22570     22569     22572     22574     22570     22569     22572     22575
     22571     22569     22572     22573     22571     22569     22572     22574
     22571     22569     22572     22575     22576     22579     22582     22583
     22576     22579     22582     22584     22576     22579     22582     22585
     22577     22576     22579     22580     22577     22576     22579     22581
     22577     22576     22579     22582     22578     22576     22579     22580
     22578     22576     22579     22581     22578     22576     22579     22582
     22579     22582     22585     22586     22579     22582     22585     22587
     22579     22582     22585     22588     22580     22579     22582     22583
     22580     22579     22582     22584     22580     22579     22582     22585
     22581     22579     22582     22583     22581     22579     22582     22584
     22581     22579     22582     22585     22582     22585     22588     22589
     22582     22585     22588     22590     22582     22585     22588     22591
     22583     22582     22585     22586     22583     22582     22585     22587
     22583     22582     22585     22588     22584     22582     22585     22586
     22584     22582     22585     22587     22584     22582     22585     22588
     22585     22588     22591     22592     22585     22588     22591     22593
     22585     22588     22591     22594     22586     22585     22588     22589
     22586     22585     22588     22590     22586     22585     22588     22591
     22587     22585     22588     22589     22587     22585     22588     22590
     22587     22585     22588     22591     22588     22591     22594     22595
     22588     22591     22594     22596     22588     22591     22594     22597
     22589     22588     22591     22592     22589     22588     22591     22593
     22589     22588     22591     22594     22590     22588     22591     22592
     22590     22588     22591     22593     22590     22588     22591     22594
     22591     22594     22597     22598     22591     22594     22597     22599
     22591     22594     22597     22600     22592     22591     22594     22595
     22592     22591     22594     22596     22592     22591     22594     22597
     22593     22591     22594     22595     22593     22591     22594     22596
     22593     22591     22594     22597     22594     22597     22600     22601
     22594     22597     22600     22602     22594     22597     22600     22603
     22595     22594     22597     22598     22595     22594     22597     22599
     22595     22594     22597     22600     22596     22594     22597     22598
     22596     22594     22597     22599     22596     22594     22597     22600
     22597     22600     22603     22604     22597     22600     22603     22605
     22597     22600     22603     22606     22598     22597     22600     22601
     22598     22597     22600     22602     22598     22597     22600     22603
     22599     22597     22600     22601     22599     22597     22600     22602
     22599     22597     22600     22603     22600     22603     22606     22607
     22600     22603     22606     22608     22600     22603     22606     22609
     22601     22600     22603     22604     22601     22600     22603     22605
     22601     22600     22603     22606     22602     22600     22603     22604
     22602     22600     22603     22605     22602     22600     22603     22606
     22603     22606     22609     22610     22603     22606     22609     22611
     22603     22606     22609     22612     22604     22603     22606     22607
     22604     22603     22606     22608     22604     22603     22606     22609
     22605     22603     22606     22607     22605     22603     22606     22608
     22605     22603     22606     22609     22606     22609     22612     22613
     22606     22609     22612     22614     22606     22609     22612     22615
     22607     22606     22609     22610     22607     22606     22609     22611
     22607     22606     22609     22612     22608     22606     22609     22610
     22608     22606     22609     22611     22608     22606     22609     22612
     22609     22612     22615     22616     22609     22612     22615     22617
     22609     22612     22615     22618     22610     22609     22612     22613
     22610     22609     22612     22614     22610     22609     22612     22615
     22611     22609     22612     22613     22611     22609     22612     22614
     22611     22609     22612     22615     22613     22612     22615     22616
     22613     22612     22615     22617     22613     22612     22615     22618
     22614     22612     22615     22616     22614     22612     22615     22617
     22614     22612     22615     22618     22619     22620     22635     22636
     22619     22620     22635     22637     22619     22620     22635     22641
     22620     22619     22623     22624     22620     22619     22623     22625
     22620     22619     22623     22626     22620     22619     22627     22628
     22620     22619     22627     22629     22620     22619     22627     22630
     22620     22619     22631     22632     22620     22619     22631     22633
     22620     22619     22631     22634     22620     22635     22641     22638
     22621     22620     22619     22623     22621     22620     22619     22627
     22621     22620     22619     22631     22621     22620     22635     22636
     22621     22620     22635     22637     22621     22620     22635     22641
     22622     22620     22619     22623     22622     22620     22619     22627
     22622     22620     22619     22631     22622     22620     22635     22636
     22622     22620     22635     22637     22622     22620     22635     22641
     22623     22619     22620     22635     22623     22619     22627     22628
     22623     22619     22627     22629     22623     22619     22627     22630
     22623     22619     22631     22632     22623     22619     22631     22633
     22623     22619     22631     22634     22624     22623     22619     22627
     22624     22623     22619     22631     22625     22623     22619     22627
     22625     22623     22619     22631     22626     22623     22619     22627
     22626     22623     22619     22631     22627     22619     22620     22635
     22627     22619     22631     22632     22627     22619     22631     22633
     22627     22619     22631     22634     22628     22627     22619     22631
     22629     22627     22619     22631     22630     22627     22619     22631
     22631     22619     22620     22635     22635     22641     22638     22639
     22635     22641     22638     22640     22635     22641     22638     22642
     22636     22635     22641     22638     22637     22635     22641     22638
     22638     22642     22643     22644     22638     22642     22643     22645
     22638     22642     22643     22646     22639     22638     22642     22643
     22640     22638     22642     22643     22641     22638     22642     22643
     22642     22643     22646     22647     22642     22643     22646     22648
     22642     22643     22646     22654     22643     22646     22648     22649
     22643     22646     22654     22655     22643     22646     22654     22656
     22643     22646     22654     22657     22644     22643     22646     22647
     22644     22643     22646     22648     22644     22643     22646     22654
     22645     22643     22646     22647     22645     22643     22646     22648
     22645     22643     22646     22654     22646     22648     22649     22650
     22646     22648     22649     22651     22646     22654     22657     22658
     22647     22646     22648     22649     22647     22646     22654     22655
     22647     22646     22654     22656     22647     22646     22654     22657
     22648     22646     22654     22655     22648     22646     22654     22656
     22648     22646     22654     22657     22648     22649     22651     22652
     22648     22649     22651     22653     22648     22649     22651     22663
     22649     22648     22646     22654     22649     22651     22663     22664
     22649     22651     22663     22665     22649     22651     22663     22666
     22650     22649     22651     22652     22650     22649     22651     22653
     22650     22649     22651     22663     22651     22663     22666     22667
     22651     22663     22666     22668     22651     22663     22666     22669
     22652     22651     22663     22664     22652     22651     22663     22665
     22652     22651     22663     22666     22653     22651     22663     22664
     22653     22651     22663     22665     22653     22651     22663     22666
     22654     22657     22658     22659     22654     22657     22658     22660
     22655     22654     22657     22658     22656     22654     22657     22658
     22657     22658     22660     22661     22657     22658     22660     22662
     22657     22658     22660     22710     22658     22660     22710     22711
     22658     22660     22710     22712     22658     22660     22710     22713
     22659     22658     22660     22661     22659     22658     22660     22662
     22659     22658     22660     22710     22660     22710     22713     22714
     22660     22710     22713     22715     22660     22710     22713     22716
     22661     22660     22710     22711     22661     22660     22710     22712
     22661     22660     22710     22713     22662     22660     22710     22711
     22662     22660     22710     22712     22662     22660     22710     22713
     22663     22666     22669     22670     22663     22666     22669     22671
     22663     22666     22669     22672     22664     22663     22666     22667
     22664     22663     22666     22668     22664     22663     22666     22669
     22665     22663     22666     22667     22665     22663     22666     22668
     22665     22663     22666     22669     22666     22669     22672     22673
     22666     22669     22672     22674     22666     22669     22672     22675
     22667     22666     22669     22670     22667     22666     22669     22671
     22667     22666     22669     22672     22668     22666     22669     22670
     22668     22666     22669     22671     22668     22666     22669     22672
     22669     22672     22675     22676     22669     22672     22675     22677
     22669     22672     22675     22678     22670     22669     22672     22673
     22670     22669     22672     22674     22670     22669     22672     22675
     22671     22669     22672     22673     22671     22669     22672     22674
     22671     22669     22672     22675     22672     22675     22678     22679
     22672     22675     22678     22680     22672     22675     22678     22681
     22673     22672     22675     22676     22673     22672     22675     22677
     22673     22672     22675     22678     22674     22672     22675     22676
     22674     22672     22675     22677     22674     22672     22675     22678
     22675     22678     22681     22682     22675     22678     22681     22683
     22676     22675     22678     22679     22676     22675     22678     22680
     22676     22675     22678     22681     22677     22675     22678     22679
     22677     22675     22678     22680     22677     22675     22678     22681
     22678     22681     22683     22684     22678     22681     22683     22685
     22679     22678     22681     22682     22679     22678     22681     22683
     22680     22678     22681     22682     22680     22678     22681     22683
     22681     22683     22685     22686     22681     22683     22685     22687
     22681     22683     22685     22688     22682     22681     22683     22684
     22682     22681     22683     22685     22683     22685     22688     22689
     22683     22685     22688     22690     22683     22685     22688     22691
     22684     22683     22685     22686     22684     22683     22685     22687
     22684     22683     22685     22688     22685     22688     22691     22692
     22685     22688     22691     22693     22685     22688     22691     22694
     22686     22685     22688     22689     22686     22685     22688     22690
     22686     22685     22688     22691     22687     22685     22688     22689
     22687     22685     22688     22690     22687     22685     22688     22691
     22688     22691     22694     22695     22688     22691     22694     22696
     22688     22691     22694     22697     22689     22688     22691     22692
     22689     22688     22691     22693     22689     22688     22691     22694
     22690     22688     22691     22692     22690     22688     22691     22693
     22690     22688     22691     22694     22691     22694     22697     22698
     22691     22694     22697     22699     22691     22694     22697     22700
     22692     22691     22694     22695     22692     22691     22694     22696
     22692     22691     22694     22697     22693     22691     22694     22695
     22693     22691     22694     22696     22693     22691     22694     22697
     22694     22697     22700     22701     22694     22697     22700     22702
     22694     22697     22700     22703     22695     22694     22697     22698
     22695     22694     22697     22699     22695     22694     22697     22700
     22696     22694     22697     22698     22696     22694     22697     22699
     22696     22694     22697     22700     22697     22700     22703     22704
     22697     22700     22703     22705     22697     22700     22703     22706
     22698     22697     22700     22701     22698     22697     22700     22702
     22698     22697     22700     22703     22699     22697     22700     22701
     22699     22697     22700     22702     22699     22697     22700     22703
     22700     22703     22706     22707     22700     22703     22706     22708
     22700     22703     22706     22709     22701     22700     22703     22704
     22701     22700     22703     22705     22701     22700     22703     22706
     22702     22700     22703     22704     22702     22700     22703     22705
     22702     22700     22703     22706     22704     22703     22706     22707
     22704     22703     22706     22708     22704     22703     22706     22709
     22705     22703     22706     22707     22705     22703     22706     22708
     22705     22703     22706     22709     22710     22713     22716     22717
     22710     22713     22716     22718     22710     22713     22716     22719
     22711     22710     22713     22714     22711     22710     22713     22715
     22711     22710     22713     22716     22712     22710     22713     22714
     22712     22710     22713     22715     22712     22710     22713     22716
     22713     22716     22719     22720     22713     22716     22719     22721
     22713     22716     22719     22722     22714     22713     22716     22717
     22714     22713     22716     22718     22714     22713     22716     22719
     22715     22713     22716     22717     22715     22713     22716     22718
     22715     22713     22716     22719     22716     22719     22722     22723
     22716     22719     22722     22724     22716     22719     22722     22725
     22717     22716     22719     22720     22717     22716     22719     22721
     22717     22716     22719     22722     22718     22716     22719     22720
     22718     22716     22719     22721     22718     22716     22719     22722
     22719     22722     22725     22726     22719     22722     22725     22727
     22719     22722     22725     22728     22720     22719     22722     22723
     22720     22719     22722     22724     22720     22719     22722     22725
     22721     22719     22722     22723     22721     22719     22722     22724
     22721     22719     22722     22725     22722     22725     22728     22729
     22722     22725     22728     22730     22722     22725     22728     22731
     22723     22722     22725     22726     22723     22722     22725     22727
     22723     22722     22725     22728     22724     22722     22725     22726
     22724     22722     22725     22727     22724     22722     22725     22728
     22725     22728     22731     22732     22725     22728     22731     22733
     22725     22728     22731     22734     22726     22725     22728     22729
     22726     22725     22728     22730     22726     22725     22728     22731
     22727     22725     22728     22729     22727     22725     22728     22730
     22727     22725     22728     22731     22728     22731     22734     22735
     22728     22731     22734     22736     22728     22731     22734     22737
     22729     22728     22731     22732     22729     22728     22731     22733
     22729     22728     22731     22734     22730     22728     22731     22732
     22730     22728     22731     22733     22730     22728     22731     22734
     22731     22734     22737     22738     22731     22734     22737     22739
     22731     22734     22737     22740     22732     22731     22734     22735
     22732     22731     22734     22736     22732     22731     22734     22737
     22733     22731     22734     22735     22733     22731     22734     22736
     22733     22731     22734     22737     22734     22737     22740     22741
     22734     22737     22740     22742     22734     22737     22740     22743
     22735     22734     22737     22738     22735     22734     22737     22739
     22735     22734     22737     22740     22736     22734     22737     22738
     22736     22734     22737     22739     22736     22734     22737     22740
     22737     22740     22743     22744     22737     22740     22743     22745
     22737     22740     22743     22746     22738     22737     22740     22741
     22738     22737     22740     22742     22738     22737     22740     22743
     22739     22737     22740     22741     22739     22737     22740     22742
     22739     22737     22740     22743     22740     22743     22746     22747
     22740     22743     22746     22748     22740     22743     22746     22749
     22741     22740     22743     22744     22741     22740     22743     22745
     22741     22740     22743     22746     22742     22740     22743     22744
     22742     22740     22743     22745     22742     22740     22743     22746
     22743     22746     22749     22750     22743     22746     22749     22751
     22743     22746     22749     22752     22744     22743     22746     22747
     22744     22743     22746     22748     22744     22743     22746     22749
     22745     22743     22746     22747     22745     22743     22746     22748
     22745     22743     22746     22749     22747     22746     22749     22750
     22747     22746     22749     22751     22747     22746     22749     22752
     22748     22746     22749     22750     22748     22746     22749     22751
     22748     22746     22749     22752     22753     22754     22769     22770
     22753     22754     22769     22771     22753     22754     22769     22775
     22754     22753     22757     22758     22754     22753     22757     22759
     22754     22753     22757     22760     22754     22753     22761     22762
     22754     22753     22761     22763     22754     22753     22761     22764
     22754     22753     22765     22766     22754     22753     22765     22767
     22754     22753     22765     22768     22754     22769     22775     22772
     22755     22754     22753     22757     22755     22754     22753     22761
     22755     22754     22753     22765     22755     22754     22769     22770
     22755     22754     22769     22771     22755     22754     22769     22775
     22756     22754     22753     22757     22756     22754     22753     22761
     22756     22754     22753     22765     22756     22754     22769     22770
     22756     22754     22769     22771     22756     22754     22769     22775
     22757     22753     22754     22769     22757     22753     22761     22762
     22757     22753     22761     22763     22757     22753     22761     22764
     22757     22753     22765     22766     22757     22753     22765     22767
     22757     22753     22765     22768     22758     22757     22753     22761
     22758     22757     22753     22765     22759     22757     22753     22761
     22759     22757     22753     22765     22760     22757     22753     22761
     22760     22757     22753     22765     22761     22753     22754     22769
     22761     22753     22765     22766     22761     22753     22765     22767
     22761     22753     22765     22768     22762     22761     22753     22765
     22763     22761     22753     22765     22764     22761     22753     22765
     22765     22753     22754     22769     22769     22775     22772     22773
     22769     22775     22772     22774     22769     22775     22772     22776
     22770     22769     22775     22772     22771     22769     22775     22772
     22772     22776     22777     22778     22772     22776     22777     22779
     22772     22776     22777     22780     22773     22772     22776     22777
     22774     22772     22776     22777     22775     22772     22776     22777
     22776     22777     22780     22781     22776     22777     22780     22782
     22776     22777     22780     22788     22777     22780     22782     22783
     22777     22780     22788     22789     22777     22780     22788     22790
     22777     22780     22788     22791     22778     22777     22780     22781
     22778     22777     22780     22782     22778     22777     22780     22788
     22779     22777     22780     22781     22779     22777     22780     22782
     22779     22777     22780     22788     22780     22782     22783     22784
     22780     22782     22783     22785     22780     22788     22791     22792
     22781     22780     22782     22783     22781     22780     22788     22789
     22781     22780     22788     22790     22781     22780     22788     22791
     22782     22780     22788     22789     22782     22780     22788     22790
     22782     22780     22788     22791     22782     22783     22785     22786
     22782     22783     22785     22787     22782     22783     22785     22797
     22783     22782     22780     22788     22783     22785     22797     22798
     22783     22785     22797     22799     22783     22785     22797     22800
     22784     22783     22785     22786     22784     22783     22785     22787
     22784     22783     22785     22797     22785     22797     22800     22801
     22785     22797     22800     22802     22785     22797     22800     22803
     22786     22785     22797     22798     22786     22785     22797     22799
     22786     22785     22797     22800     22787     22785     22797     22798
     22787     22785     22797     22799     22787     22785     22797     22800
     22788     22791     22792     22793     22788     22791     22792     22794
     22789     22788     22791     22792     22790     22788     22791     22792
     22791     22792     22794     22795     22791     22792     22794     22796
     22791     22792     22794     22844     22792     22794     22844     22845
     22792     22794     22844     22846     22792     22794     22844     22847
     22793     22792     22794     22795     22793     22792     22794     22796
     22793     22792     22794     22844     22794     22844     22847     22848
     22794     22844     22847     22849     22794     22844     22847     22850
     22795     22794     22844     22845     22795     22794     22844     22846
     22795     22794     22844     22847     22796     22794     22844     22845
     22796     22794     22844     22846     22796     22794     22844     22847
     22797     22800     22803     22804     22797     22800     22803     22805
     22797     22800     22803     22806     22798     22797     22800     22801
     22798     22797     22800     22802     22798     22797     22800     22803
     22799     22797     22800     22801     22799     22797     22800     22802
     22799     22797     22800     22803     22800     22803     22806     22807
     22800     22803     22806     22808     22800     22803     22806     22809
     22801     22800     22803     22804     22801     22800     22803     22805
     22801     22800     22803     22806     22802     22800     22803     22804
     22802     22800     22803     22805     22802     22800     22803     22806
     22803     22806     22809     22810     22803     22806     22809     22811
     22803     22806     22809     22812     22804     22803     22806     22807
     22804     22803     22806     22808     22804     22803     22806     22809
     22805     22803     22806     22807     22805     22803     22806     22808
     22805     22803     22806     22809     22806     22809     22812     22813
     22806     22809     22812     22814     22806     22809     22812     22815
     22807     22806     22809     22810     22807     22806     22809     22811
     22807     22806     22809     22812     22808     22806     22809     22810
     22808     22806     22809     22811     22808     22806     22809     22812
     22809     22812     22815     22816     22809     22812     22815     22817
     22810     22809     22812     22813     22810     22809     22812     22814
     22810     22809     22812     22815     22811     22809     22812     22813
     22811     22809     22812     22814     22811     22809     22812     22815
     22812     22815     22817     22818     22812     22815     22817     22819
     22813     22812     22815     22816     22813     22812     22815     22817
     22814     22812     22815     22816     22814     22812     22815     22817
     22815     22817     22819     22820     22815     22817     22819     22821
     22815     22817     22819     22822     22816     22815     22817     22818
     22816     22815     22817     22819     22817     22819     22822     22823
     22817     22819     22822     22824     22817     22819     22822     22825
     22818     22817     22819     22820     22818     22817     22819     22821
     22818     22817     22819     22822     22819     22822     22825     22826
     22819     22822     22825     22827     22819     22822     22825     22828
     22820     22819     22822     22823     22820     22819     22822     22824
     22820     22819     22822     22825     22821     22819     22822     22823
     22821     22819     22822     22824     22821     22819     22822     22825
     22822     22825     22828     22829     22822     22825     22828     22830
     22822     22825     22828     22831     22823     22822     22825     22826
     22823     22822     22825     22827     22823     22822     22825     22828
     22824     22822     22825     22826     22824     22822     22825     22827
     22824     22822     22825     22828     22825     22828     22831     22832
     22825     22828     22831     22833     22825     22828     22831     22834
     22826     22825     22828     22829     22826     22825     22828     22830
     22826     22825     22828     22831     22827     22825     22828     22829
     22827     22825     22828     22830     22827     22825     22828     22831
     22828     22831     22834     22835     22828     22831     22834     22836
     22828     22831     22834     22837     22829     22828     22831     22832
     22829     22828     22831     22833     22829     22828     22831     22834
     22830     22828     22831     22832     22830     22828     22831     22833
     22830     22828     22831     22834     22831     22834     22837     22838
     22831     22834     22837     22839     22831     22834     22837     22840
     22832     22831     22834     22835     22832     22831     22834     22836
     22832     22831     22834     22837     22833     22831     22834     22835
     22833     22831     22834     22836     22833     22831     22834     22837
     22834     22837     22840     22841     22834     22837     22840     22842
     22834     22837     22840     22843     22835     22834     22837     22838
     22835     22834     22837     22839     22835     22834     22837     22840
     22836     22834     22837     22838     22836     22834     22837     22839
     22836     22834     22837     22840     22838     22837     22840     22841
     22838     22837     22840     22842     22838     22837     22840     22843
     22839     22837     22840     22841     22839     22837     22840     22842
     22839     22837     22840     22843     22844     22847     22850     22851
     22844     22847     22850     22852     22844     22847     22850     22853
     22845     22844     22847     22848     22845     22844     22847     22849
     22845     22844     22847     22850     22846     22844     22847     22848
     22846     22844     22847     22849     22846     22844     22847     22850
     22847     22850     22853     22854     22847     22850     22853     22855
     22847     22850     22853     22856     22848     22847     22850     22851
     22848     22847     22850     22852     22848     22847     22850     22853
     22849     22847     22850     22851     22849     22847     22850     22852
     22849     22847     22850     22853     22850     22853     22856     22857
     22850     22853     22856     22858     22850     22853     22856     22859
     22851     22850     22853     22854     22851     22850     22853     22855
     22851     22850     22853     22856     22852     22850     22853     22854
     22852     22850     22853     22855     22852     22850     22853     22856
     22853     22856     22859     22860     22853     22856     22859     22861
     22853     22856     22859     22862     22854     22853     22856     22857
     22854     22853     22856     22858     22854     22853     22856     22859
     22855     22853     22856     22857     22855     22853     22856     22858
     22855     22853     22856     22859     22856     22859     22862     22863
     22856     22859     22862     22864     22856     22859     22862     22865
     22857     22856     22859     22860     22857     22856     22859     22861
     22857     22856     22859     22862     22858     22856     22859     22860
     22858     22856     22859     22861     22858     22856     22859     22862
     22859     22862     22865     22866     22859     22862     22865     22867
     22859     22862     22865     22868     22860     22859     22862     22863
     22860     22859     22862     22864     22860     22859     22862     22865
     22861     22859     22862     22863     22861     22859     22862     22864
     22861     22859     22862     22865     22862     22865     22868     22869
     22862     22865     22868     22870     22862     22865     22868     22871
     22863     22862     22865     22866     22863     22862     22865     22867
     22863     22862     22865     22868     22864     22862     22865     22866
     22864     22862     22865     22867     22864     22862     22865     22868
     22865     22868     22871     22872     22865     22868     22871     22873
     22865     22868     22871     22874     22866     22865     22868     22869
     22866     22865     22868     22870     22866     22865     22868     22871
     22867     22865     22868     22869     22867     22865     22868     22870
     22867     22865     22868     22871     22868     22871     22874     22875
     22868     22871     22874     22876     22868     22871     22874     22877
     22869     22868     22871     22872     22869     22868     22871     22873
     22869     22868     22871     22874     22870     22868     22871     22872
     22870     22868     22871     22873     22870     22868     22871     22874
     22871     22874     22877     22878     22871     22874     22877     22879
     22871     22874     22877     22880     22872     22871     22874     22875
     22872     22871     22874     22876     22872     22871     22874     22877
     22873     22871     22874     22875     22873     22871     22874     22876
     22873     22871     22874     22877     22874     22877     22880     22881
     22874     22877     22880     22882     22874     22877     22880     22883
     22875     22874     22877     22878     22875     22874     22877     22879
     22875     22874     22877     22880     22876     22874     22877     22878
     22876     22874     22877     22879     22876     22874     22877     22880
     22877     22880     22883     22884     22877     22880     22883     22885
     22877     22880     22883     22886     22878     22877     22880     22881
     22878     22877     22880     22882     22878     22877     22880     22883
     22879     22877     22880     22881     22879     22877     22880     22882
     22879     22877     22880     22883     22881     22880     22883     22884
     22881     22880     22883     22885     22881     22880     22883     22886
     22882     22880     22883     22884     22882     22880     22883     22885
     22882     22880     22883     22886     22887     22888     22903     22904
     22887     22888     22903     22905     22887     22888     22903     22909
     22888     22887     22891     22892     22888     22887     22891     22893
     22888     22887     22891     22894     22888     22887     22895     22896
     22888     22887     22895     22897     22888     22887     22895     22898
     22888     22887     22899     22900     22888     22887     22899     22901
     22888     22887     22899     22902     22888     22903     22909     22906
     22889     22888     22887     22891     22889     22888     22887     22895
     22889     22888     22887     22899     22889     22888     22903     22904
     22889     22888     22903     22905     22889     22888     22903     22909
     22890     22888     22887     22891     22890     22888     22887     22895
     22890     22888     22887     22899     22890     22888     22903     22904
     22890     22888     22903     22905     22890     22888     22903     22909
     22891     22887     22888     22903     22891     22887     22895     22896
     22891     22887     22895     22897     22891     22887     22895     22898
     22891     22887     22899     22900     22891     22887     22899     22901
     22891     22887     22899     22902     22892     22891     22887     22895
     22892     22891     22887     22899     22893     22891     22887     22895
     22893     22891     22887     22899     22894     22891     22887     22895
     22894     22891     22887     22899     22895     22887     22888     22903
     22895     22887     22899     22900     22895     22887     22899     22901
     22895     22887     22899     22902     22896     22895     22887     22899
     22897     22895     22887     22899     22898     22895     22887     22899
     22899     22887     22888     22903     22903     22909     22906     22907
     22903     22909     22906     22908     22903     22909     22906     22910
     22904     22903     22909     22906     22905     22903     22909     22906
     22906     22910     22911     22912     22906     22910     22911     22913
     22906     22910     22911     22914     22907     22906     22910     22911
     22908     22906     22910     22911     22909     22906     22910     22911
     22910     22911     22914     22915     22910     22911     22914     22916
     22910     22911     22914     22922     22911     22914     22916     22917
     22911     22914     22922     22923     22911     22914     22922     22924
     22911     22914     22922     22925     22912     22911     22914     22915
     22912     22911     22914     22916     22912     22911     22914     22922
     22913     22911     22914     22915     22913     22911     22914     22916
     22913     22911     22914     22922     22914     22916     22917     22918
     22914     22916     22917     22919     22914     22922     22925     22926
     22915     22914     22916     22917     22915     22914     22922     22923
     22915     22914     22922     22924     22915     22914     22922     22925
     22916     22914     22922     22923     22916     22914     22922     22924
     22916     22914     22922     22925     22916     22917     22919     22920
     22916     22917     22919     22921     22916     22917     22919     22931
     22917     22916     22914     22922     22917     22919     22931     22932
     22917     22919     22931     22933     22917     22919     22931     22934
     22918     22917     22919     22920     22918     22917     22919     22921
     22918     22917     22919     22931     22919     22931     22934     22935
     22919     22931     22934     22936     22919     22931     22934     22937
     22920     22919     22931     22932     22920     22919     22931     22933
     22920     22919     22931     22934     22921     22919     22931     22932
     22921     22919     22931     22933     22921     22919     22931     22934
     22922     22925     22926     22927     22922     22925     22926     22928
     22923     22922     22925     22926     22924     22922     22925     22926
     22925     22926     22928     22929     22925     22926     22928     22930
     22925     22926     22928     22978     22926     22928     22978     22979
     22926     22928     22978     22980     22926     22928     22978     22981
     22927     22926     22928     22929     22927     22926     22928     22930
     22927     22926     22928     22978     22928     22978     22981     22982
     22928     22978     22981     22983     22928     22978     22981     22984
     22929     22928     22978     22979     22929     22928     22978     22980
     22929     22928     22978     22981     22930     22928     22978     22979
     22930     22928     22978     22980     22930     22928     22978     22981
     22931     22934     22937     22938     22931     22934     22937     22939
     22931     22934     22937     22940     22932     22931     22934     22935
     22932     22931     22934     22936     22932     22931     22934     22937
     22933     22931     22934     22935     22933     22931     22934     22936
     22933     22931     22934     22937     22934     22937     22940     22941
     22934     22937     22940     22942     22934     22937     22940     22943
     22935     22934     22937     22938     22935     22934     22937     22939
     22935     22934     22937     22940     22936     22934     22937     22938
     22936     22934     22937     22939     22936     22934     22937     22940
     22937     22940     22943     22944     22937     22940     22943     22945
     22937     22940     22943     22946     22938     22937     22940     22941
     22938     22937     22940     22942     22938     22937     22940     22943
     22939     22937     22940     22941     22939     22937     22940     22942
     22939     22937     22940     22943     22940     22943     22946     22947
     22940     22943     22946     22948     22940     22943     22946     22949
     22941     22940     22943     22944     22941     22940     22943     22945
     22941     22940     22943     22946     22942     22940     22943     22944
     22942     22940     22943     22945     22942     22940     22943     22946
     22943     22946     22949     22950     22943     22946     22949     22951
     22944     22943     22946     22947     22944     22943     22946     22948
     22944     22943     22946     22949     22945     22943     22946     22947
     22945     22943     22946     22948     22945     22943     22946     22949
     22946     22949     22951     22952     22946     22949     22951     22953
     22947     22946     22949     22950     22947     22946     22949     22951
     22948     22946     22949     22950     22948     22946     22949     22951
     22949     22951     22953     22954     22949     22951     22953     22955
     22949     22951     22953     22956     22950     22949     22951     22952
     22950     22949     22951     22953     22951     22953     22956     22957
     22951     22953     22956     22958     22951     22953     22956     22959
     22952     22951     22953     22954     22952     22951     22953     22955
     22952     22951     22953     22956     22953     22956     22959     22960
     22953     22956     22959     22961     22953     22956     22959     22962
     22954     22953     22956     22957     22954     22953     22956     22958
     22954     22953     22956     22959     22955     22953     22956     22957
     22955     22953     22956     22958     22955     22953     22956     22959
     22956     22959     22962     22963     22956     22959     22962     22964
     22956     22959     22962     22965     22957     22956     22959     22960
     22957     22956     22959     22961     22957     22956     22959     22962
     22958     22956     22959     22960     22958     22956     22959     22961
     22958     22956     22959     22962     22959     22962     22965     22966
     22959     22962     22965     22967     22959     22962     22965     22968
     22960     22959     22962     22963     22960     22959     22962     22964
     22960     22959     22962     22965     22961     22959     22962     22963
     22961     22959     22962     22964     22961     22959     22962     22965
     22962     22965     22968     22969     22962     22965     22968     22970
     22962     22965     22968     22971     22963     22962     22965     22966
     22963     22962     22965     22967     22963     22962     22965     22968
     22964     22962     22965     22966     22964     22962     22965     22967
     22964     22962     22965     22968     22965     22968     22971     22972
     22965     22968     22971     22973     22965     22968     22971     22974
     22966     22965     22968     22969     22966     22965     22968     22970
     22966     22965     22968     22971     22967     22965     22968     22969
     22967     22965     22968     22970     22967     22965     22968     22971
     22968     22971     22974     22975     22968     22971     22974     22976
     22968     22971     22974     22977     22969     22968     22971     22972
     22969     22968     22971     22973     22969     22968     22971     22974
     22970     22968     22971     22972     22970     22968     22971     22973
     22970     22968     22971     22974     22972     22971     22974     22975
     22972     22971     22974     22976     22972     22971     22974     22977
     22973     22971     22974     22975     22973     22971     22974     22976
     22973     22971     22974     22977     22978     22981     22984     22985
     22978     22981     22984     22986     22978     22981     22984     22987
     22979     22978     22981     22982     22979     22978     22981     22983
     22979     22978     22981     22984     22980     22978     22981     22982
     22980     22978     22981     22983     22980     22978     22981     22984
     22981     22984     22987     22988     22981     22984     22987     22989
     22981     22984     22987     22990     22982     22981     22984     22985
     22982     22981     22984     22986     22982     22981     22984     22987
     22983     22981     22984     22985     22983     22981     22984     22986
     22983     22981     22984     22987     22984     22987     22990     22991
     22984     22987     22990     22992     22984     22987     22990     22993
     22985     22984     22987     22988     22985     22984     22987     22989
     22985     22984     22987     22990     22986     22984     22987     22988
     22986     22984     22987     22989     22986     22984     22987     22990
     22987     22990     22993     22994     22987     22990     22993     22995
     22987     22990     22993     22996     22988     22987     22990     22991
     22988     22987     22990     22992     22988     22987     22990     22993
     22989     22987     22990     22991     22989     22987     22990     22992
     22989     22987     22990     22993     22990     22993     22996     22997
     22990     22993     22996     22998     22990     22993     22996     22999
     22991     22990     22993     22994     22991     22990     22993     22995
     22991     22990     22993     22996     22992     22990     22993     22994
     22992     22990     22993     22995     22992     22990     22993     22996
     22993     22996     22999     23000     22993     22996     22999     23001
     22993     22996     22999     23002     22994     22993     22996     22997
     22994     22993     22996     22998     22994     22993     22996     22999
     22995     22993     22996     22997     22995     22993     22996     22998
     22995     22993     22996     22999     22996     22999     23002     23003
     22996     22999     23002     23004     22996     22999     23002     23005
     22997     22996     22999     23000     22997     22996     22999     23001
     22997     22996     22999     23002     22998     22996     22999     23000
     22998     22996     22999     23001     22998     22996     22999     23002
     22999     23002     23005     23006     22999     23002     23005     23007
     22999     23002     23005     23008     23000     22999     23002     23003
     23000     22999     23002     23004     23000     22999     23002     23005
     23001     22999     23002     23003     23001     22999     23002     23004
     23001     22999     23002     23005     23002     23005     23008     23009
     23002     23005     23008     23010     23002     23005     23008     23011
     23003     23002     23005     23006     23003     23002     23005     23007
     23003     23002     23005     23008     23004     23002     23005     23006
     23004     23002     23005     23007     23004     23002     23005     23008
     23005     23008     23011     23012     23005     23008     23011     23013
     23005     23008     23011     23014     23006     23005     23008     23009
     23006     23005     23008     23010     23006     23005     23008     23011
     23007     23005     23008     23009     23007     23005     23008     23010
     23007     23005     23008     23011     23008     23011     23014     23015
     23008     23011     23014     23016     23008     23011     23014     23017
     23009     23008     23011     23012     23009     23008     23011     23013
     23009     23008     23011     23014     23010     23008     23011     23012
     23010     23008     23011     23013     23010     23008     23011     23014
     23011     23014     23017     23018     23011     23014     23017     23019
     23011     23014     23017     23020     23012     23011     23014     23015
     23012     23011     23014     23016     23012     23011     23014     23017
     23013     23011     23014     23015     23013     23011     23014     23016
     23013     23011     23014     23017     23015     23014     23017     23018
     23015     23014     23017     23019     23015     23014     23017     23020
     23016     23014     23017     23018     23016     23014     23017     23019
     23016     23014     23017     23020     23021     23022     23037     23038
     23021     23022     23037     23039     23021     23022     23037     23043
     23022     23021     23025     23026     23022     23021     23025     23027
     23022     23021     23025     23028     23022     23021     23029     23030
     23022     23021     23029     23031     23022     23021     23029     23032
     23022     23021     23033     23034     23022     23021     23033     23035
     23022     23021     23033     23036     23022     23037     23043     23040
     23023     23022     23021     23025     23023     23022     23021     23029
     23023     23022     23021     23033     23023     23022     23037     23038
     23023     23022     23037     23039     23023     23022     23037     23043
     23024     23022     23021     23025     23024     23022     23021     23029
     23024     23022     23021     23033     23024     23022     23037     23038
     23024     23022     23037     23039     23024     23022     23037     23043
     23025     23021     23022     23037     23025     23021     23029     23030
     23025     23021     23029     23031     23025     23021     23029     23032
     23025     23021     23033     23034     23025     23021     23033     23035
     23025     23021     23033     23036     23026     23025     23021     23029
     23026     23025     23021     23033     23027     23025     23021     23029
     23027     23025     23021     23033     23028     23025     23021     23029
     23028     23025     23021     23033     23029     23021     23022     23037
     23029     23021     23033     23034     23029     23021     23033     23035
     23029     23021     23033     23036     23030     23029     23021     23033
     23031     23029     23021     23033     23032     23029     23021     23033
     23033     23021     23022     23037     23037     23043     23040     23041
     23037     23043     23040     23042     23037     23043     23040     23044
     23038     23037     23043     23040     23039     23037     23043     23040
     23040     23044     23045     23046     23040     23044     23045     23047
     23040     23044     23045     23048     23041     23040     23044     23045
     23042     23040     23044     23045     23043     23040     23044     23045
     23044     23045     23048     23049     23044     23045     23048     23050
     23044     23045     23048     23056     23045     23048     23050     23051
     23045     23048     23056     23057     23045     23048     23056     23058
     23045     23048     23056     23059     23046     23045     23048     23049
     23046     23045     23048     23050     23046     23045     23048     23056
     23047     23045     23048     23049     23047     23045     23048     23050
     23047     23045     23048     23056     23048     23050     23051     23052
     23048     23050     23051     23053     23048     23056     23059     23060
     23049     23048     23050     23051     23049     23048     23056     23057
     23049     23048     23056     23058     23049     23048     23056     23059
     23050     23048     23056     23057     23050     23048     23056     23058
     23050     23048     23056     23059     23050     23051     23053     23054
     23050     23051     23053     23055     23050     23051     23053     23065
     23051     23050     23048     23056     23051     23053     23065     23066
     23051     23053     23065     23067     23051     23053     23065     23068
     23052     23051     23053     23054     23052     23051     23053     23055
     23052     23051     23053     23065     23053     23065     23068     23069
     23053     23065     23068     23070     23053     23065     23068     23071
     23054     23053     23065     23066     23054     23053     23065     23067
     23054     23053     23065     23068     23055     23053     23065     23066
     23055     23053     23065     23067     23055     23053     23065     23068
     23056     23059     23060     23061     23056     23059     23060     23062
     23057     23056     23059     23060     23058     23056     23059     23060
     23059     23060     23062     23063     23059     23060     23062     23064
     23059     23060     23062     23112     23060     23062     23112     23113
     23060     23062     23112     23114     23060     23062     23112     23115
     23061     23060     23062     23063     23061     23060     23062     23064
     23061     23060     23062     23112     23062     23112     23115     23116
     23062     23112     23115     23117     23062     23112     23115     23118
     23063     23062     23112     23113     23063     23062     23112     23114
     23063     23062     23112     23115     23064     23062     23112     23113
     23064     23062     23112     23114     23064     23062     23112     23115
     23065     23068     23071     23072     23065     23068     23071     23073
     23065     23068     23071     23074     23066     23065     23068     23069
     23066     23065     23068     23070     23066     23065     23068     23071
     23067     23065     23068     23069     23067     23065     23068     23070
     23067     23065     23068     23071     23068     23071     23074     23075
     23068     23071     23074     23076     23068     23071     23074     23077
     23069     23068     23071     23072     23069     23068     23071     23073
     23069     23068     23071     23074     23070     23068     23071     23072
     23070     23068     23071     23073     23070     23068     23071     23074
     23071     23074     23077     23078     23071     23074     23077     23079
     23071     23074     23077     23080     23072     23071     23074     23075
     23072     23071     23074     23076     23072     23071     23074     23077
     23073     23071     23074     23075     23073     23071     23074     23076
     23073     23071     23074     23077     23074     23077     23080     23081
     23074     23077     23080     23082     23074     23077     23080     23083
     23075     23074     23077     23078     23075     23074     23077     23079
     23075     23074     23077     23080     23076     23074     23077     23078
     23076     23074     23077     23079     23076     23074     23077     23080
     23077     23080     23083     23084     23077     23080     23083     23085
     23078     23077     23080     23081     23078     23077     23080     23082
     23078     23077     23080     23083     23079     23077     23080     23081
     23079     23077     23080     23082     23079     23077     23080     23083
     23080     23083     23085     23086     23080     23083     23085     23087
     23081     23080     23083     23084     23081     23080     23083     23085
     23082     23080     23083     23084     23082     23080     23083     23085
     23083     23085     23087     23088     23083     23085     23087     23089
     23083     23085     23087     23090     23084     23083     23085     23086
     23084     23083     23085     23087     23085     23087     23090     23091
     23085     23087     23090     23092     23085     23087     23090     23093
     23086     23085     23087     23088     23086     23085     23087     23089
     23086     23085     23087     23090     23087     23090     23093     23094
     23087     23090     23093     23095     23087     23090     23093     23096
     23088     23087     23090     23091     23088     23087     23090     23092
     23088     23087     23090     23093     23089     23087     23090     23091
     23089     23087     23090     23092     23089     23087     23090     23093
     23090     23093     23096     23097     23090     23093     23096     23098
     23090     23093     23096     23099     23091     23090     23093     23094
     23091     23090     23093     23095     23091     23090     23093     23096
     23092     23090     23093     23094     23092     23090     23093     23095
     23092     23090     23093     23096     23093     23096     23099     23100
     23093     23096     23099     23101     23093     23096     23099     23102
     23094     23093     23096     23097     23094     23093     23096     23098
     23094     23093     23096     23099     23095     23093     23096     23097
     23095     23093     23096     23098     23095     23093     23096     23099
     23096     23099     23102     23103     23096     23099     23102     23104
     23096     23099     23102     23105     23097     23096     23099     23100
     23097     23096     23099     23101     23097     23096     23099     23102
     23098     23096     23099     23100     23098     23096     23099     23101
     23098     23096     23099     23102     23099     23102     23105     23106
     23099     23102     23105     23107     23099     23102     23105     23108
     23100     23099     23102     23103     23100     23099     23102     23104
     23100     23099     23102     23105     23101     23099     23102     23103
     23101     23099     23102     23104     23101     23099     23102     23105
     23102     23105     23108     23109     23102     23105     23108     23110
     23102     23105     23108     23111     23103     23102     23105     23106
     23103     23102     23105     23107     23103     23102     23105     23108
     23104     23102     23105     23106     23104     23102     23105     23107
     23104     23102     23105     23108     23106     23105     23108     23109
     23106     23105     23108     23110     23106     23105     23108     23111
     23107     23105     23108     23109     23107     23105     23108     23110
     23107     23105     23108     23111     23112     23115     23118     23119
     23112     23115     23118     23120     23112     23115     23118     23121
     23113     23112     23115     23116     23113     23112     23115     23117
     23113     23112     23115     23118     23114     23112     23115     23116
     23114     23112     23115     23117     23114     23112     23115     23118
     23115     23118     23121     23122     23115     23118     23121     23123
     23115     23118     23121     23124     23116     23115     23118     23119
     23116     23115     23118     23120     23116     23115     23118     23121
     23117     23115     23118     23119     23117     23115     23118     23120
     23117     23115     23118     23121     23118     23121     23124     23125
     23118     23121     23124     23126     23118     23121     23124     23127
     23119     23118     23121     23122     23119     23118     23121     23123
     23119     23118     23121     23124     23120     23118     23121     23122
     23120     23118     23121     23123     23120     23118     23121     23124
     23121     23124     23127     23128     23121     23124     23127     23129
     23121     23124     23127     23130     23122     23121     23124     23125
     23122     23121     23124     23126     23122     23121     23124     23127
     23123     23121     23124     23125     23123     23121     23124     23126
     23123     23121     23124     23127     23124     23127     23130     23131
     23124     23127     23130     23132     23124     23127     23130     23133
     23125     23124     23127     23128     23125     23124     23127     23129
     23125     23124     23127     23130     23126     23124     23127     23128
     23126     23124     23127     23129     23126     23124     23127     23130
     23127     23130     23133     23134     23127     23130     23133     23135
     23127     23130     23133     23136     23128     23127     23130     23131
     23128     23127     23130     23132     23128     23127     23130     23133
     23129     23127     23130     23131     23129     23127     23130     23132
     23129     23127     23130     23133     23130     23133     23136     23137
     23130     23133     23136     23138     23130     23133     23136     23139
     23131     23130     23133     23134     23131     23130     23133     23135
     23131     23130     23133     23136     23132     23130     23133     23134
     23132     23130     23133     23135     23132     23130     23133     23136
     23133     23136     23139     23140     23133     23136     23139     23141
     23133     23136     23139     23142     23134     23133     23136     23137
     23134     23133     23136     23138     23134     23133     23136     23139
     23135     23133     23136     23137     23135     23133     23136     23138
     23135     23133     23136     23139     23136     23139     23142     23143
     23136     23139     23142     23144     23136     23139     23142     23145
     23137     23136     23139     23140     23137     23136     23139     23141
     23137     23136     23139     23142     23138     23136     23139     23140
     23138     23136     23139     23141     23138     23136     23139     23142
     23139     23142     23145     23146     23139     23142     23145     23147
     23139     23142     23145     23148     23140     23139     23142     23143
     23140     23139     23142     23144     23140     23139     23142     23145
     23141     23139     23142     23143     23141     23139     23142     23144
     23141     23139     23142     23145     23142     23145     23148     23149
     23142     23145     23148     23150     23142     23145     23148     23151
     23143     23142     23145     23146     23143     23142     23145     23147
     23143     23142     23145     23148     23144     23142     23145     23146
     23144     23142     23145     23147     23144     23142     23145     23148
     23145     23148     23151     23152     23145     23148     23151     23153
     23145     23148     23151     23154     23146     23145     23148     23149
     23146     23145     23148     23150     23146     23145     23148     23151
     23147     23145     23148     23149     23147     23145     23148     23150
     23147     23145     23148     23151     23149     23148     23151     23152
     23149     23148     23151     23153     23149     23148     23151     23154
     23150     23148     23151     23152     23150     23148     23151     23153
     23150     23148     23151     23154     23155     23156     23171     23172
     23155     23156     23171     23173     23155     23156     23171     23177
     23156     23155     23159     23160     23156     23155     23159     23161
     23156     23155     23159     23162     23156     23155     23163     23164
     23156     23155     23163     23165     23156     23155     23163     23166
     23156     23155     23167     23168     23156     23155     23167     23169
     23156     23155     23167     23170     23156     23171     23177     23174
     23157     23156     23155     23159     23157     23156     23155     23163
     23157     23156     23155     23167     23157     23156     23171     23172
     23157     23156     23171     23173     23157     23156     23171     23177
     23158     23156     23155     23159     23158     23156     23155     23163
     23158     23156     23155     23167     23158     23156     23171     23172
     23158     23156     23171     23173     23158     23156     23171     23177
     23159     23155     23156     23171     23159     23155     23163     23164
     23159     23155     23163     23165     23159     23155     23163     23166
     23159     23155     23167     23168     23159     23155     23167     23169
     23159     23155     23167     23170     23160     23159     23155     23163
     23160     23159     23155     23167     23161     23159     23155     23163
     23161     23159     23155     23167     23162     23159     23155     23163
     23162     23159     23155     23167     23163     23155     23156     23171
     23163     23155     23167     23168     23163     23155     23167     23169
     23163     23155     23167     23170     23164     23163     23155     23167
     23165     23163     23155     23167     23166     23163     23155     23167
     23167     23155     23156     23171     23171     23177     23174     23175
     23171     23177     23174     23176     23171     23177     23174     23178
     23172     23171     23177     23174     23173     23171     23177     23174
     23174     23178     23179     23180     23174     23178     23179     23181
     23174     23178     23179     23182     23175     23174     23178     23179
     23176     23174     23178     23179     23177     23174     23178     23179
     23178     23179     23182     23183     23178     23179     23182     23184
     23178     23179     23182     23190     23179     23182     23184     23185
     23179     23182     23190     23191     23179     23182     23190     23192
     23179     23182     23190     23193     23180     23179     23182     23183
     23180     23179     23182     23184     23180     23179     23182     23190
     23181     23179     23182     23183     23181     23179     23182     23184
     23181     23179     23182     23190     23182     23184     23185     23186
     23182     23184     23185     23187     23182     23190     23193     23194
     23183     23182     23184     23185     23183     23182     23190     23191
     23183     23182     23190     23192     23183     23182     23190     23193
     23184     23182     23190     23191     23184     23182     23190     23192
     23184     23182     23190     23193     23184     23185     23187     23188
     23184     23185     23187     23189     23184     23185     23187     23199
     23185     23184     23182     23190     23185     23187     23199     23200
     23185     23187     23199     23201     23185     23187     23199     23202
     23186     23185     23187     23188     23186     23185     23187     23189
     23186     23185     23187     23199     23187     23199     23202     23203
     23187     23199     23202     23204     23187     23199     23202     23205
     23188     23187     23199     23200     23188     23187     23199     23201
     23188     23187     23199     23202     23189     23187     23199     23200
     23189     23187     23199     23201     23189     23187     23199     23202
     23190     23193     23194     23195     23190     23193     23194     23196
     23191     23190     23193     23194     23192     23190     23193     23194
     23193     23194     23196     23197     23193     23194     23196     23198
     23193     23194     23196     23246     23194     23196     23246     23247
     23194     23196     23246     23248     23194     23196     23246     23249
     23195     23194     23196     23197     23195     23194     23196     23198
     23195     23194     23196     23246     23196     23246     23249     23250
     23196     23246     23249     23251     23196     23246     23249     23252
     23197     23196     23246     23247     23197     23196     23246     23248
     23197     23196     23246     23249     23198     23196     23246     23247
     23198     23196     23246     23248     23198     23196     23246     23249
     23199     23202     23205     23206     23199     23202     23205     23207
     23199     23202     23205     23208     23200     23199     23202     23203
     23200     23199     23202     23204     23200     23199     23202     23205
     23201     23199     23202     23203     23201     23199     23202     23204
     23201     23199     23202     23205     23202     23205     23208     23209
     23202     23205     23208     23210     23202     23205     23208     23211
     23203     23202     23205     23206     23203     23202     23205     23207
     23203     23202     23205     23208     23204     23202     23205     23206
     23204     23202     23205     23207     23204     23202     23205     23208
     23205     23208     23211     23212     23205     23208     23211     23213
     23205     23208     23211     23214     23206     23205     23208     23209
     23206     23205     23208     23210     23206     23205     23208     23211
     23207     23205     23208     23209     23207     23205     23208     23210
     23207     23205     23208     23211     23208     23211     23214     23215
     23208     23211     23214     23216     23208     23211     23214     23217
     23209     23208     23211     23212     23209     23208     23211     23213
     23209     23208     23211     23214     23210     23208     23211     23212
     23210     23208     23211     23213     23210     23208     23211     23214
     23211     23214     23217     23218     23211     23214     23217     23219
     23212     23211     23214     23215     23212     23211     23214     23216
     23212     23211     23214     23217     23213     23211     23214     23215
     23213     23211     23214     23216     23213     23211     23214     23217
     23214     23217     23219     23220     23214     23217     23219     23221
     23215     23214     23217     23218     23215     23214     23217     23219
     23216     23214     23217     23218     23216     23214     23217     23219
     23217     23219     23221     23222     23217     23219     23221     23223
     23217     23219     23221     23224     23218     23217     23219     23220
     23218     23217     23219     23221     23219     23221     23224     23225
     23219     23221     23224     23226     23219     23221     23224     23227
     23220     23219     23221     23222     23220     23219     23221     23223
     23220     23219     23221     23224     23221     23224     23227     23228
     23221     23224     23227     23229     23221     23224     23227     23230
     23222     23221     23224     23225     23222     23221     23224     23226
     23222     23221     23224     23227     23223     23221     23224     23225
     23223     23221     23224     23226     23223     23221     23224     23227
     23224     23227     23230     23231     23224     23227     23230     23232
     23224     23227     23230     23233     23225     23224     23227     23228
     23225     23224     23227     23229     23225     23224     23227     23230
     23226     23224     23227     23228     23226     23224     23227     23229
     23226     23224     23227     23230     23227     23230     23233     23234
     23227     23230     23233     23235     23227     23230     23233     23236
     23228     23227     23230     23231     23228     23227     23230     23232
     23228     23227     23230     23233     23229     23227     23230     23231
     23229     23227     23230     23232     23229     23227     23230     23233
     23230     23233     23236     23237     23230     23233     23236     23238
     23230     23233     23236     23239     23231     23230     23233     23234
     23231     23230     23233     23235     23231     23230     23233     23236
     23232     23230     23233     23234     23232     23230     23233     23235
     23232     23230     23233     23236     23233     23236     23239     23240
     23233     23236     23239     23241     23233     23236     23239     23242
     23234     23233     23236     23237     23234     23233     23236     23238
     23234     23233     23236     23239     23235     23233     23236     23237
     23235     23233     23236     23238     23235     23233     23236     23239
     23236     23239     23242     23243     23236     23239     23242     23244
     23236     23239     23242     23245     23237     23236     23239     23240
     23237     23236     23239     23241     23237     23236     23239     23242
     23238     23236     23239     23240     23238     23236     23239     23241
     23238     23236     23239     23242     23240     23239     23242     23243
     23240     23239     23242     23244     23240     23239     23242     23245
     23241     23239     23242     23243     23241     23239     23242     23244
     23241     23239     23242     23245     23246     23249     23252     23253
     23246     23249     23252     23254     23246     23249     23252     23255
     23247     23246     23249     23250     23247     23246     23249     23251
     23247     23246     23249     23252     23248     23246     23249     23250
     23248     23246     23249     23251     23248     23246     23249     23252
     23249     23252     23255     23256     23249     23252     23255     23257
     23249     23252     23255     23258     23250     23249     23252     23253
     23250     23249     23252     23254     23250     23249     23252     23255
     23251     23249     23252     23253     23251     23249     23252     23254
     23251     23249     23252     23255     23252     23255     23258     23259
     23252     23255     23258     23260     23252     23255     23258     23261
     23253     23252     23255     23256     23253     23252     23255     23257
     23253     23252     23255     23258     23254     23252     23255     23256
     23254     23252     23255     23257     23254     23252     23255     23258
     23255     23258     23261     23262     23255     23258     23261     23263
     23255     23258     23261     23264     23256     23255     23258     23259
     23256     23255     23258     23260     23256     23255     23258     23261
     23257     23255     23258     23259     23257     23255     23258     23260
     23257     23255     23258     23261     23258     23261     23264     23265
     23258     23261     23264     23266     23258     23261     23264     23267
     23259     23258     23261     23262     23259     23258     23261     23263
     23259     23258     23261     23264     23260     23258     23261     23262
     23260     23258     23261     23263     23260     23258     23261     23264
     23261     23264     23267     23268     23261     23264     23267     23269
     23261     23264     23267     23270     23262     23261     23264     23265
     23262     23261     23264     23266     23262     23261     23264     23267
     23263     23261     23264     23265     23263     23261     23264     23266
     23263     23261     23264     23267     23264     23267     23270     23271
     23264     23267     23270     23272     23264     23267     23270     23273
     23265     23264     23267     23268     23265     23264     23267     23269
     23265     23264     23267     23270     23266     23264     23267     23268
     23266     23264     23267     23269     23266     23264     23267     23270
     23267     23270     23273     23274     23267     23270     23273     23275
     23267     23270     23273     23276     23268     23267     23270     23271
     23268     23267     23270     23272     23268     23267     23270     23273
     23269     23267     23270     23271     23269     23267     23270     23272
     23269     23267     23270     23273     23270     23273     23276     23277
     23270     23273     23276     23278     23270     23273     23276     23279
     23271     23270     23273     23274     23271     23270     23273     23275
     23271     23270     23273     23276     23272     23270     23273     23274
     23272     23270     23273     23275     23272     23270     23273     23276
     23273     23276     23279     23280     23273     23276     23279     23281
     23273     23276     23279     23282     23274     23273     23276     23277
     23274     23273     23276     23278     23274     23273     23276     23279
     23275     23273     23276     23277     23275     23273     23276     23278
     23275     23273     23276     23279     23276     23279     23282     23283
     23276     23279     23282     23284     23276     23279     23282     23285
     23277     23276     23279     23280     23277     23276     23279     23281
     23277     23276     23279     23282     23278     23276     23279     23280
     23278     23276     23279     23281     23278     23276     23279     23282
     23279     23282     23285     23286     23279     23282     23285     23287
     23279     23282     23285     23288     23280     23279     23282     23283
     23280     23279     23282     23284     23280     23279     23282     23285
     23281     23279     23282     23283     23281     23279     23282     23284
     23281     23279     23282     23285     23283     23282     23285     23286
     23283     23282     23285     23287     23283     23282     23285     23288
     23284     23282     23285     23286     23284     23282     23285     23287
     23284     23282     23285     23288     23289     23290     23305     23306
     23289     23290     23305     23307     23289     23290     23305     23311
     23290     23289     23293     23294     23290     23289     23293     23295
     23290     23289     23293     23296     23290     23289     23297     23298
     23290     23289     23297     23299     23290     23289     23297     23300
     23290     23289     23301     23302     23290     23289     23301     23303
     23290     23289     23301     23304     23290     23305     23311     23308
     23291     23290     23289     23293     23291     23290     23289     23297
     23291     23290     23289     23301     23291     23290     23305     23306
     23291     23290     23305     23307     23291     23290     23305     23311
     23292     23290     23289     23293     23292     23290     23289     23297
     23292     23290     23289     23301     23292     23290     23305     23306
     23292     23290     23305     23307     23292     23290     23305     23311
     23293     23289     23290     23305     23293     23289     23297     23298
     23293     23289     23297     23299     23293     23289     23297     23300
     23293     23289     23301     23302     23293     23289     23301     23303
     23293     23289     23301     23304     23294     23293     23289     23297
     23294     23293     23289     23301     23295     23293     23289     23297
     23295     23293     23289     23301     23296     23293     23289     23297
     23296     23293     23289     23301     23297     23289     23290     23305
     23297     23289     23301     23302     23297     23289     23301     23303
     23297     23289     23301     23304     23298     23297     23289     23301
     23299     23297     23289     23301     23300     23297     23289     23301
     23301     23289     23290     23305     23305     23311     23308     23309
     23305     23311     23308     23310     23305     23311     23308     23312
     23306     23305     23311     23308     23307     23305     23311     23308
     23308     23312     23313     23314     23308     23312     23313     23315
     23308     23312     23313     23316     23309     23308     23312     23313
     23310     23308     23312     23313     23311     23308     23312     23313
     23312     23313     23316     23317     23312     23313     23316     23318
     23312     23313     23316     23324     23313     23316     23318     23319
     23313     23316     23324     23325     23313     23316     23324     23326
     23313     23316     23324     23327     23314     23313     23316     23317
     23314     23313     23316     23318     23314     23313     23316     23324
     23315     23313     23316     23317     23315     23313     23316     23318
     23315     23313     23316     23324     23316     23318     23319     23320
     23316     23318     23319     23321     23316     23324     23327     23328
     23317     23316     23318     23319     23317     23316     23324     23325
     23317     23316     23324     23326     23317     23316     23324     23327
     23318     23316     23324     23325     23318     23316     23324     23326
     23318     23316     23324     23327     23318     23319     23321     23322
     23318     23319     23321     23323     23318     23319     23321     23333
     23319     23318     23316     23324     23319     23321     23333     23334
     23319     23321     23333     23335     23319     23321     23333     23336
     23320     23319     23321     23322     23320     23319     23321     23323
     23320     23319     23321     23333     23321     23333     23336     23337
     23321     23333     23336     23338     23321     23333     23336     23339
     23322     23321     23333     23334     23322     23321     23333     23335
     23322     23321     23333     23336     23323     23321     23333     23334
     23323     23321     23333     23335     23323     23321     23333     23336
     23324     23327     23328     23329     23324     23327     23328     23330
     23325     23324     23327     23328     23326     23324     23327     23328
     23327     23328     23330     23331     23327     23328     23330     23332
     23327     23328     23330     23380     23328     23330     23380     23381
     23328     23330     23380     23382     23328     23330     23380     23383
     23329     23328     23330     23331     23329     23328     23330     23332
     23329     23328     23330     23380     23330     23380     23383     23384
     23330     23380     23383     23385     23330     23380     23383     23386
     23331     23330     23380     23381     23331     23330     23380     23382
     23331     23330     23380     23383     23332     23330     23380     23381
     23332     23330     23380     23382     23332     23330     23380     23383
     23333     23336     23339     23340     23333     23336     23339     23341
     23333     23336     23339     23342     23334     23333     23336     23337
     23334     23333     23336     23338     23334     23333     23336     23339
     23335     23333     23336     23337     23335     23333     23336     23338
     23335     23333     23336     23339     23336     23339     23342     23343
     23336     23339     23342     23344     23336     23339     23342     23345
     23337     23336     23339     23340     23337     23336     23339     23341
     23337     23336     23339     23342     23338     23336     23339     23340
     23338     23336     23339     23341     23338     23336     23339     23342
     23339     23342     23345     23346     23339     23342     23345     23347
     23339     23342     23345     23348     23340     23339     23342     23343
     23340     23339     23342     23344     23340     23339     23342     23345
     23341     23339     23342     23343     23341     23339     23342     23344
     23341     23339     23342     23345     23342     23345     23348     23349
     23342     23345     23348     23350     23342     23345     23348     23351
     23343     23342     23345     23346     23343     23342     23345     23347
     23343     23342     23345     23348     23344     23342     23345     23346
     23344     23342     23345     23347     23344     23342     23345     23348
     23345     23348     23351     23352     23345     23348     23351     23353
     23346     23345     23348     23349     23346     23345     23348     23350
     23346     23345     23348     23351     23347     23345     23348     23349
     23347     23345     23348     23350     23347     23345     23348     23351
     23348     23351     23353     23354     23348     23351     23353     23355
     23349     23348     23351     23352     23349     23348     23351     23353
     23350     23348     23351     23352     23350     23348     23351     23353
     23351     23353     23355     23356     23351     23353     23355     23357
     23351     23353     23355     23358     23352     23351     23353     23354
     23352     23351     23353     23355     23353     23355     23358     23359
     23353     23355     23358     23360     23353     23355     23358     23361
     23354     23353     23355     23356     23354     23353     23355     23357
     23354     23353     23355     23358     23355     23358     23361     23362
     23355     23358     23361     23363     23355     23358     23361     23364
     23356     23355     23358     23359     23356     23355     23358     23360
     23356     23355     23358     23361     23357     23355     23358     23359
     23357     23355     23358     23360     23357     23355     23358     23361
     23358     23361     23364     23365     23358     23361     23364     23366
     23358     23361     23364     23367     23359     23358     23361     23362
     23359     23358     23361     23363     23359     23358     23361     23364
     23360     23358     23361     23362     23360     23358     23361     23363
     23360     23358     23361     23364     23361     23364     23367     23368
     23361     23364     23367     23369     23361     23364     23367     23370
     23362     23361     23364     23365     23362     23361     23364     23366
     23362     23361     23364     23367     23363     23361     23364     23365
     23363     23361     23364     23366     23363     23361     23364     23367
     23364     23367     23370     23371     23364     23367     23370     23372
     23364     23367     23370     23373     23365     23364     23367     23368
     23365     23364     23367     23369     23365     23364     23367     23370
     23366     23364     23367     23368     23366     23364     23367     23369
     23366     23364     23367     23370     23367     23370     23373     23374
     23367     23370     23373     23375     23367     23370     23373     23376
     23368     23367     23370     23371     23368     23367     23370     23372
     23368     23367     23370     23373     23369     23367     23370     23371
     23369     23367     23370     23372     23369     23367     23370     23373
     23370     23373     23376     23377     23370     23373     23376     23378
     23370     23373     23376     23379     23371     23370     23373     23374
     23371     23370     23373     23375     23371     23370     23373     23376
     23372     23370     23373     23374     23372     23370     23373     23375
     23372     23370     23373     23376     23374     23373     23376     23377
     23374     23373     23376     23378     23374     23373     23376     23379
     23375     23373     23376     23377     23375     23373     23376     23378
     23375     23373     23376     23379     23380     23383     23386     23387
     23380     23383     23386     23388     23380     23383     23386     23389
     23381     23380     23383     23384     23381     23380     23383     23385
     23381     23380     23383     23386     23382     23380     23383     23384
     23382     23380     23383     23385     23382     23380     23383     23386
     23383     23386     23389     23390     23383     23386     23389     23391
     23383     23386     23389     23392     23384     23383     23386     23387
     23384     23383     23386     23388     23384     23383     23386     23389
     23385     23383     23386     23387     23385     23383     23386     23388
     23385     23383     23386     23389     23386     23389     23392     23393
     23386     23389     23392     23394     23386     23389     23392     23395
     23387     23386     23389     23390     23387     23386     23389     23391
     23387     23386     23389     23392     23388     23386     23389     23390
     23388     23386     23389     23391     23388     23386     23389     23392
     23389     23392     23395     23396     23389     23392     23395     23397
     23389     23392     23395     23398     23390     23389     23392     23393
     23390     23389     23392     23394     23390     23389     23392     23395
     23391     23389     23392     23393     23391     23389     23392     23394
     23391     23389     23392     23395     23392     23395     23398     23399
     23392     23395     23398     23400     23392     23395     23398     23401
     23393     23392     23395     23396     23393     23392     23395     23397
     23393     23392     23395     23398     23394     23392     23395     23396
     23394     23392     23395     23397     23394     23392     23395     23398
     23395     23398     23401     23402     23395     23398     23401     23403
     23395     23398     23401     23404     23396     23395     23398     23399
     23396     23395     23398     23400     23396     23395     23398     23401
     23397     23395     23398     23399     23397     23395     23398     23400
     23397     23395     23398     23401     23398     23401     23404     23405
     23398     23401     23404     23406     23398     23401     23404     23407
     23399     23398     23401     23402     23399     23398     23401     23403
     23399     23398     23401     23404     23400     23398     23401     23402
     23400     23398     23401     23403     23400     23398     23401     23404
     23401     23404     23407     23408     23401     23404     23407     23409
     23401     23404     23407     23410     23402     23401     23404     23405
     23402     23401     23404     23406     23402     23401     23404     23407
     23403     23401     23404     23405     23403     23401     23404     23406
     23403     23401     23404     23407     23404     23407     23410     23411
     23404     23407     23410     23412     23404     23407     23410     23413
     23405     23404     23407     23408     23405     23404     23407     23409
     23405     23404     23407     23410     23406     23404     23407     23408
     23406     23404     23407     23409     23406     23404     23407     23410
     23407     23410     23413     23414     23407     23410     23413     23415
     23407     23410     23413     23416     23408     23407     23410     23411
     23408     23407     23410     23412     23408     23407     23410     23413
     23409     23407     23410     23411     23409     23407     23410     23412
     23409     23407     23410     23413     23410     23413     23416     23417
     23410     23413     23416     23418     23410     23413     23416     23419
     23411     23410     23413     23414     23411     23410     23413     23415
     23411     23410     23413     23416     23412     23410     23413     23414
     23412     23410     23413     23415     23412     23410     23413     23416
     23413     23416     23419     23420     23413     23416     23419     23421
     23413     23416     23419     23422     23414     23413     23416     23417
     23414     23413     23416     23418     23414     23413     23416     23419
     23415     23413     23416     23417     23415     23413     23416     23418
     23415     23413     23416     23419     23417     23416     23419     23420
     23417     23416     23419     23421     23417     23416     23419     23422
     23418     23416     23419     23420     23418     23416     23419     23421
     23418     23416     23419     23422     23423     23424     23439     23440
     23423     23424     23439     23441     23423     23424     23439     23445
     23424     23423     23427     23428     23424     23423     23427     23429
     23424     23423     23427     23430     23424     23423     23431     23432
     23424     23423     23431     23433     23424     23423     23431     23434
     23424     23423     23435     23436     23424     23423     23435     23437
     23424     23423     23435     23438     23424     23439     23445     23442
     23425     23424     23423     23427     23425     23424     23423     23431
     23425     23424     23423     23435     23425     23424     23439     23440
     23425     23424     23439     23441     23425     23424     23439     23445
     23426     23424     23423     23427     23426     23424     23423     23431
     23426     23424     23423     23435     23426     23424     23439     23440
     23426     23424     23439     23441     23426     23424     23439     23445
     23427     23423     23424     23439     23427     23423     23431     23432
     23427     23423     23431     23433     23427     23423     23431     23434
     23427     23423     23435     23436     23427     23423     23435     23437
     23427     23423     23435     23438     23428     23427     23423     23431
     23428     23427     23423     23435     23429     23427     23423     23431
     23429     23427     23423     23435     23430     23427     23423     23431
     23430     23427     23423     23435     23431     23423     23424     23439
     23431     23423     23435     23436     23431     23423     23435     23437
     23431     23423     23435     23438     23432     23431     23423     23435
     23433     23431     23423     23435     23434     23431     23423     23435
     23435     23423     23424     23439     23439     23445     23442     23443
     23439     23445     23442     23444     23439     23445     23442     23446
     23440     23439     23445     23442     23441     23439     23445     23442
     23442     23446     23447     23448     23442     23446     23447     23449
     23442     23446     23447     23450     23443     23442     23446     23447
     23444     23442     23446     23447     23445     23442     23446     23447
     23446     23447     23450     23451     23446     23447     23450     23452
     23446     23447     23450     23458     23447     23450     23452     23453
     23447     23450     23458     23459     23447     23450     23458     23460
     23447     23450     23458     23461     23448     23447     23450     23451
     23448     23447     23450     23452     23448     23447     23450     23458
     23449     23447     23450     23451     23449     23447     23450     23452
     23449     23447     23450     23458     23450     23452     23453     23454
     23450     23452     23453     23455     23450     23458     23461     23462
     23451     23450     23452     23453     23451     23450     23458     23459
     23451     23450     23458     23460     23451     23450     23458     23461
     23452     23450     23458     23459     23452     23450     23458     23460
     23452     23450     23458     23461     23452     23453     23455     23456
     23452     23453     23455     23457     23452     23453     23455     23467
     23453     23452     23450     23458     23453     23455     23467     23468
     23453     23455     23467     23469     23453     23455     23467     23470
     23454     23453     23455     23456     23454     23453     23455     23457
     23454     23453     23455     23467     23455     23467     23470     23471
     23455     23467     23470     23472     23455     23467     23470     23473
     23456     23455     23467     23468     23456     23455     23467     23469
     23456     23455     23467     23470     23457     23455     23467     23468
     23457     23455     23467     23469     23457     23455     23467     23470
     23458     23461     23462     23463     23458     23461     23462     23464
     23459     23458     23461     23462     23460     23458     23461     23462
     23461     23462     23464     23465     23461     23462     23464     23466
     23461     23462     23464     23514     23462     23464     23514     23515
     23462     23464     23514     23516     23462     23464     23514     23517
     23463     23462     23464     23465     23463     23462     23464     23466
     23463     23462     23464     23514     23464     23514     23517     23518
     23464     23514     23517     23519     23464     23514     23517     23520
     23465     23464     23514     23515     23465     23464     23514     23516
     23465     23464     23514     23517     23466     23464     23514     23515
     23466     23464     23514     23516     23466     23464     23514     23517
     23467     23470     23473     23474     23467     23470     23473     23475
     23467     23470     23473     23476     23468     23467     23470     23471
     23468     23467     23470     23472     23468     23467     23470     23473
     23469     23467     23470     23471     23469     23467     23470     23472
     23469     23467     23470     23473     23470     23473     23476     23477
     23470     23473     23476     23478     23470     23473     23476     23479
     23471     23470     23473     23474     23471     23470     23473     23475
     23471     23470     23473     23476     23472     23470     23473     23474
     23472     23470     23473     23475     23472     23470     23473     23476
     23473     23476     23479     23480     23473     23476     23479     23481
     23473     23476     23479     23482     23474     23473     23476     23477
     23474     23473     23476     23478     23474     23473     23476     23479
     23475     23473     23476     23477     23475     23473     23476     23478
     23475     23473     23476     23479     23476     23479     23482     23483
     23476     23479     23482     23484     23476     23479     23482     23485
     23477     23476     23479     23480     23477     23476     23479     23481
     23477     23476     23479     23482     23478     23476     23479     23480
     23478     23476     23479     23481     23478     23476     23479     23482
     23479     23482     23485     23486     23479     23482     23485     23487
     23480     23479     23482     23483     23480     23479     23482     23484
     23480     23479     23482     23485     23481     23479     23482     23483
     23481     23479     23482     23484     23481     23479     23482     23485
     23482     23485     23487     23488     23482     23485     23487     23489
     23483     23482     23485     23486     23483     23482     23485     23487
     23484     23482     23485     23486     23484     23482     23485     23487
     23485     23487     23489     23490     23485     23487     23489     23491
     23485     23487     23489     23492     23486     23485     23487     23488
     23486     23485     23487     23489     23487     23489     23492     23493
     23487     23489     23492     23494     23487     23489     23492     23495
     23488     23487     23489     23490     23488     23487     23489     23491
     23488     23487     23489     23492     23489     23492     23495     23496
     23489     23492     23495     23497     23489     23492     23495     23498
     23490     23489     23492     23493     23490     23489     23492     23494
     23490     23489     23492     23495     23491     23489     23492     23493
     23491     23489     23492     23494     23491     23489     23492     23495
     23492     23495     23498     23499     23492     23495     23498     23500
     23492     23495     23498     23501     23493     23492     23495     23496
     23493     23492     23495     23497     23493     23492     23495     23498
     23494     23492     23495     23496     23494     23492     23495     23497
     23494     23492     23495     23498     23495     23498     23501     23502
     23495     23498     23501     23503     23495     23498     23501     23504
     23496     23495     23498     23499     23496     23495     23498     23500
     23496     23495     23498     23501     23497     23495     23498     23499
     23497     23495     23498     23500     23497     23495     23498     23501
     23498     23501     23504     23505     23498     23501     23504     23506
     23498     23501     23504     23507     23499     23498     23501     23502
     23499     23498     23501     23503     23499     23498     23501     23504
     23500     23498     23501     23502     23500     23498     23501     23503
     23500     23498     23501     23504     23501     23504     23507     23508
     23501     23504     23507     23509     23501     23504     23507     23510
     23502     23501     23504     23505     23502     23501     23504     23506
     23502     23501     23504     23507     23503     23501     23504     23505
     23503     23501     23504     23506     23503     23501     23504     23507
     23504     23507     23510     23511     23504     23507     23510     23512
     23504     23507     23510     23513     23505     23504     23507     23508
     23505     23504     23507     23509     23505     23504     23507     23510
     23506     23504     23507     23508     23506     23504     23507     23509
     23506     23504     23507     23510     23508     23507     23510     23511
     23508     23507     23510     23512     23508     23507     23510     23513
     23509     23507     23510     23511     23509     23507     23510     23512
     23509     23507     23510     23513     23514     23517     23520     23521
     23514     23517     23520     23522     23514     23517     23520     23523
     23515     23514     23517     23518     23515     23514     23517     23519
     23515     23514     23517     23520     23516     23514     23517     23518
     23516     23514     23517     23519     23516     23514     23517     23520
     23517     23520     23523     23524     23517     23520     23523     23525
     23517     23520     23523     23526     23518     23517     23520     23521
     23518     23517     23520     23522     23518     23517     23520     23523
     23519     23517     23520     23521     23519     23517     23520     23522
     23519     23517     23520     23523     23520     23523     23526     23527
     23520     23523     23526     23528     23520     23523     23526     23529
     23521     23520     23523     23524     23521     23520     23523     23525
     23521     23520     23523     23526     23522     23520     23523     23524
     23522     23520     23523     23525     23522     23520     23523     23526
     23523     23526     23529     23530     23523     23526     23529     23531
     23523     23526     23529     23532     23524     23523     23526     23527
     23524     23523     23526     23528     23524     23523     23526     23529
     23525     23523     23526     23527     23525     23523     23526     23528
     23525     23523     23526     23529     23526     23529     23532     23533
     23526     23529     23532     23534     23526     23529     23532     23535
     23527     23526     23529     23530     23527     23526     23529     23531
     23527     23526     23529     23532     23528     23526     23529     23530
     23528     23526     23529     23531     23528     23526     23529     23532
     23529     23532     23535     23536     23529     23532     23535     23537
     23529     23532     23535     23538     23530     23529     23532     23533
     23530     23529     23532     23534     23530     23529     23532     23535
     23531     23529     23532     23533     23531     23529     23532     23534
     23531     23529     23532     23535     23532     23535     23538     23539
     23532     23535     23538     23540     23532     23535     23538     23541
     23533     23532     23535     23536     23533     23532     23535     23537
     23533     23532     23535     23538     23534     23532     23535     23536
     23534     23532     23535     23537     23534     23532     23535     23538
     23535     23538     23541     23542     23535     23538     23541     23543
     23535     23538     23541     23544     23536     23535     23538     23539
     23536     23535     23538     23540     23536     23535     23538     23541
     23537     23535     23538     23539     23537     23535     23538     23540
     23537     23535     23538     23541     23538     23541     23544     23545
     23538     23541     23544     23546     23538     23541     23544     23547
     23539     23538     23541     23542     23539     23538     23541     23543
     23539     23538     23541     23544     23540     23538     23541     23542
     23540     23538     23541     23543     23540     23538     23541     23544
     23541     23544     23547     23548     23541     23544     23547     23549
     23541     23544     23547     23550     23542     23541     23544     23545
     23542     23541     23544     23546     23542     23541     23544     23547
     23543     23541     23544     23545     23543     23541     23544     23546
     23543     23541     23544     23547     23544     23547     23550     23551
     23544     23547     23550     23552     23544     23547     23550     23553
     23545     23544     23547     23548     23545     23544     23547     23549
     23545     23544     23547     23550     23546     23544     23547     23548
     23546     23544     23547     23549     23546     23544     23547     23550
     23547     23550     23553     23554     23547     23550     23553     23555
     23547     23550     23553     23556     23548     23547     23550     23551
     23548     23547     23550     23552     23548     23547     23550     23553
     23549     23547     23550     23551     23549     23547     23550     23552
     23549     23547     23550     23553     23551     23550     23553     23554
     23551     23550     23553     23555     23551     23550     23553     23556
     23552     23550     23553     23554     23552     23550     23553     23555
     23552     23550     23553     23556     23557     23558     23573     23574
     23557     23558     23573     23575     23557     23558     23573     23579
     23558     23557     23561     23562     23558     23557     23561     23563
     23558     23557     23561     23564     23558     23557     23565     23566
     23558     23557     23565     23567     23558     23557     23565     23568
     23558     23557     23569     23570     23558     23557     23569     23571
     23558     23557     23569     23572     23558     23573     23579     23576
     23559     23558     23557     23561     23559     23558     23557     23565
     23559     23558     23557     23569     23559     23558     23573     23574
     23559     23558     23573     23575     23559     23558     23573     23579
     23560     23558     23557     23561     23560     23558     23557     23565
     23560     23558     23557     23569     23560     23558     23573     23574
     23560     23558     23573     23575     23560     23558     23573     23579
     23561     23557     23558     23573     23561     23557     23565     23566
     23561     23557     23565     23567     23561     23557     23565     23568
     23561     23557     23569     23570     23561     23557     23569     23571
     23561     23557     23569     23572     23562     23561     23557     23565
     23562     23561     23557     23569     23563     23561     23557     23565
     23563     23561     23557     23569     23564     23561     23557     23565
     23564     23561     23557     23569     23565     23557     23558     23573
     23565     23557     23569     23570     23565     23557     23569     23571
     23565     23557     23569     23572     23566     23565     23557     23569
     23567     23565     23557     23569     23568     23565     23557     23569
     23569     23557     23558     23573     23573     23579     23576     23577
     23573     23579     23576     23578     23573     23579     23576     23580
     23574     23573     23579     23576     23575     23573     23579     23576
     23576     23580     23581     23582     23576     23580     23581     23583
     23576     23580     23581     23584     23577     23576     23580     23581
     23578     23576     23580     23581     23579     23576     23580     23581
     23580     23581     23584     23585     23580     23581     23584     23586
     23580     23581     23584     23592     23581     23584     23586     23587
     23581     23584     23592     23593     23581     23584     23592     23594
     23581     23584     23592     23595     23582     23581     23584     23585
     23582     23581     23584     23586     23582     23581     23584     23592
     23583     23581     23584     23585     23583     23581     23584     23586
     23583     23581     23584     23592     23584     23586     23587     23588
     23584     23586     23587     23589     23584     23592     23595     23596
     23585     23584     23586     23587     23585     23584     23592     23593
     23585     23584     23592     23594     23585     23584     23592     23595
     23586     23584     23592     23593     23586     23584     23592     23594
     23586     23584     23592     23595     23586     23587     23589     23590
     23586     23587     23589     23591     23586     23587     23589     23601
     23587     23586     23584     23592     23587     23589     23601     23602
     23587     23589     23601     23603     23587     23589     23601     23604
     23588     23587     23589     23590     23588     23587     23589     23591
     23588     23587     23589     23601     23589     23601     23604     23605
     23589     23601     23604     23606     23589     23601     23604     23607
     23590     23589     23601     23602     23590     23589     23601     23603
     23590     23589     23601     23604     23591     23589     23601     23602
     23591     23589     23601     23603     23591     23589     23601     23604
     23592     23595     23596     23597     23592     23595     23596     23598
     23593     23592     23595     23596     23594     23592     23595     23596
     23595     23596     23598     23599     23595     23596     23598     23600
     23595     23596     23598     23648     23596     23598     23648     23649
     23596     23598     23648     23650     23596     23598     23648     23651
     23597     23596     23598     23599     23597     23596     23598     23600
     23597     23596     23598     23648     23598     23648     23651     23652
     23598     23648     23651     23653     23598     23648     23651     23654
     23599     23598     23648     23649     23599     23598     23648     23650
     23599     23598     23648     23651     23600     23598     23648     23649
     23600     23598     23648     23650     23600     23598     23648     23651
     23601     23604     23607     23608     23601     23604     23607     23609
     23601     23604     23607     23610     23602     23601     23604     23605
     23602     23601     23604     23606     23602     23601     23604     23607
     23603     23601     23604     23605     23603     23601     23604     23606
     23603     23601     23604     23607     23604     23607     23610     23611
     23604     23607     23610     23612     23604     23607     23610     23613
     23605     23604     23607     23608     23605     23604     23607     23609
     23605     23604     23607     23610     23606     23604     23607     23608
     23606     23604     23607     23609     23606     23604     23607     23610
     23607     23610     23613     23614     23607     23610     23613     23615
     23607     23610     23613     23616     23608     23607     23610     23611
     23608     23607     23610     23612     23608     23607     23610     23613
     23609     23607     23610     23611     23609     23607     23610     23612
     23609     23607     23610     23613     23610     23613     23616     23617
     23610     23613     23616     23618     23610     23613     23616     23619
     23611     23610     23613     23614     23611     23610     23613     23615
     23611     23610     23613     23616     23612     23610     23613     23614
     23612     23610     23613     23615     23612     23610     23613     23616
     23613     23616     23619     23620     23613     23616     23619     23621
     23614     23613     23616     23617     23614     23613     23616     23618
     23614     23613     23616     23619     23615     23613     23616     23617
     23615     23613     23616     23618     23615     23613     23616     23619
     23616     23619     23621     23622     23616     23619     23621     23623
     23617     23616     23619     23620     23617     23616     23619     23621
     23618     23616     23619     23620     23618     23616     23619     23621
     23619     23621     23623     23624     23619     23621     23623     23625
     23619     23621     23623     23626     23620     23619     23621     23622
     23620     23619     23621     23623     23621     23623     23626     23627
     23621     23623     23626     23628     23621     23623     23626     23629
     23622     23621     23623     23624     23622     23621     23623     23625
     23622     23621     23623     23626     23623     23626     23629     23630
     23623     23626     23629     23631     23623     23626     23629     23632
     23624     23623     23626     23627     23624     23623     23626     23628
     23624     23623     23626     23629     23625     23623     23626     23627
     23625     23623     23626     23628     23625     23623     23626     23629
     23626     23629     23632     23633     23626     23629     23632     23634
     23626     23629     23632     23635     23627     23626     23629     23630
     23627     23626     23629     23631     23627     23626     23629     23632
     23628     23626     23629     23630     23628     23626     23629     23631
     23628     23626     23629     23632     23629     23632     23635     23636
     23629     23632     23635     23637     23629     23632     23635     23638
     23630     23629     23632     23633     23630     23629     23632     23634
     23630     23629     23632     23635     23631     23629     23632     23633
     23631     23629     23632     23634     23631     23629     23632     23635
     23632     23635     23638     23639     23632     23635     23638     23640
     23632     23635     23638     23641     23633     23632     23635     23636
     23633     23632     23635     23637     23633     23632     23635     23638
     23634     23632     23635     23636     23634     23632     23635     23637
     23634     23632     23635     23638     23635     23638     23641     23642
     23635     23638     23641     23643     23635     23638     23641     23644
     23636     23635     23638     23639     23636     23635     23638     23640
     23636     23635     23638     23641     23637     23635     23638     23639
     23637     23635     23638     23640     23637     23635     23638     23641
     23638     23641     23644     23645     23638     23641     23644     23646
     23638     23641     23644     23647     23639     23638     23641     23642
     23639     23638     23641     23643     23639     23638     23641     23644
     23640     23638     23641     23642     23640     23638     23641     23643
     23640     23638     23641     23644     23642     23641     23644     23645
     23642     23641     23644     23646     23642     23641     23644     23647
     23643     23641     23644     23645     23643     23641     23644     23646
     23643     23641     23644     23647     23648     23651     23654     23655
     23648     23651     23654     23656     23648     23651     23654     23657
     23649     23648     23651     23652     23649     23648     23651     23653
     23649     23648     23651     23654     23650     23648     23651     23652
     23650     23648     23651     23653     23650     23648     23651     23654
     23651     23654     23657     23658     23651     23654     23657     23659
     23651     23654     23657     23660     23652     23651     23654     23655
     23652     23651     23654     23656     23652     23651     23654     23657
     23653     23651     23654     23655     23653     23651     23654     23656
     23653     23651     23654     23657     23654     23657     23660     23661
     23654     23657     23660     23662     23654     23657     23660     23663
     23655     23654     23657     23658     23655     23654     23657     23659
     23655     23654     23657     23660     23656     23654     23657     23658
     23656     23654     23657     23659     23656     23654     23657     23660
     23657     23660     23663     23664     23657     23660     23663     23665
     23657     23660     23663     23666     23658     23657     23660     23661
     23658     23657     23660     23662     23658     23657     23660     23663
     23659     23657     23660     23661     23659     23657     23660     23662
     23659     23657     23660     23663     23660     23663     23666     23667
     23660     23663     23666     23668     23660     23663     23666     23669
     23661     23660     23663     23664     23661     23660     23663     23665
     23661     23660     23663     23666     23662     23660     23663     23664
     23662     23660     23663     23665     23662     23660     23663     23666
     23663     23666     23669     23670     23663     23666     23669     23671
     23663     23666     23669     23672     23664     23663     23666     23667
     23664     23663     23666     23668     23664     23663     23666     23669
     23665     23663     23666     23667     23665     23663     23666     23668
     23665     23663     23666     23669     23666     23669     23672     23673
     23666     23669     23672     23674     23666     23669     23672     23675
     23667     23666     23669     23670     23667     23666     23669     23671
     23667     23666     23669     23672     23668     23666     23669     23670
     23668     23666     23669     23671     23668     23666     23669     23672
     23669     23672     23675     23676     23669     23672     23675     23677
     23669     23672     23675     23678     23670     23669     23672     23673
     23670     23669     23672     23674     23670     23669     23672     23675
     23671     23669     23672     23673     23671     23669     23672     23674
     23671     23669     23672     23675     23672     23675     23678     23679
     23672     23675     23678     23680     23672     23675     23678     23681
     23673     23672     23675     23676     23673     23672     23675     23677
     23673     23672     23675     23678     23674     23672     23675     23676
     23674     23672     23675     23677     23674     23672     23675     23678
     23675     23678     23681     23682     23675     23678     23681     23683
     23675     23678     23681     23684     23676     23675     23678     23679
     23676     23675     23678     23680     23676     23675     23678     23681
     23677     23675     23678     23679     23677     23675     23678     23680
     23677     23675     23678     23681     23678     23681     23684     23685
     23678     23681     23684     23686     23678     23681     23684     23687
     23679     23678     23681     23682     23679     23678     23681     23683
     23679     23678     23681     23684     23680     23678     23681     23682
     23680     23678     23681     23683     23680     23678     23681     23684
     23681     23684     23687     23688     23681     23684     23687     23689
     23681     23684     23687     23690     23682     23681     23684     23685
     23682     23681     23684     23686     23682     23681     23684     23687
     23683     23681     23684     23685     23683     23681     23684     23686
     23683     23681     23684     23687     23685     23684     23687     23688
     23685     23684     23687     23689     23685     23684     23687     23690
     23686     23684     23687     23688     23686     23684     23687     23689
     23686     23684     23687     23690     23691     23692     23707     23708
     23691     23692     23707     23709     23691     23692     23707     23713
     23692     23691     23695     23696     23692     23691     23695     23697
     23692     23691     23695     23698     23692     23691     23699     23700
     23692     23691     23699     23701     23692     23691     23699     23702
     23692     23691     23703     23704     23692     23691     23703     23705
     23692     23691     23703     23706     23692     23707     23713     23710
     23693     23692     23691     23695     23693     23692     23691     23699
     23693     23692     23691     23703     23693     23692     23707     23708
     23693     23692     23707     23709     23693     23692     23707     23713
     23694     23692     23691     23695     23694     23692     23691     23699
     23694     23692     23691     23703     23694     23692     23707     23708
     23694     23692     23707     23709     23694     23692     23707     23713
     23695     23691     23692     23707     23695     23691     23699     23700
     23695     23691     23699     23701     23695     23691     23699     23702
     23695     23691     23703     23704     23695     23691     23703     23705
     23695     23691     23703     23706     23696     23695     23691     23699
     23696     23695     23691     23703     23697     23695     23691     23699
     23697     23695     23691     23703     23698     23695     23691     23699
     23698     23695     23691     23703     23699     23691     23692     23707
     23699     23691     23703     23704     23699     23691     23703     23705
     23699     23691     23703     23706     23700     23699     23691     23703
     23701     23699     23691     23703     23702     23699     23691     23703
     23703     23691     23692     23707     23707     23713     23710     23711
     23707     23713     23710     23712     23707     23713     23710     23714
     23708     23707     23713     23710     23709     23707     23713     23710
     23710     23714     23715     23716     23710     23714     23715     23717
     23710     23714     23715     23718     23711     23710     23714     23715
     23712     23710     23714     23715     23713     23710     23714     23715
     23714     23715     23718     23719     23714     23715     23718     23720
     23714     23715     23718     23726     23715     23718     23720     23721
     23715     23718     23726     23727     23715     23718     23726     23728
     23715     23718     23726     23729     23716     23715     23718     23719
     23716     23715     23718     23720     23716     23715     23718     23726
     23717     23715     23718     23719     23717     23715     23718     23720
     23717     23715     23718     23726     23718     23720     23721     23722
     23718     23720     23721     23723     23718     23726     23729     23730
     23719     23718     23720     23721     23719     23718     23726     23727
     23719     23718     23726     23728     23719     23718     23726     23729
     23720     23718     23726     23727     23720     23718     23726     23728
     23720     23718     23726     23729     23720     23721     23723     23724
     23720     23721     23723     23725     23720     23721     23723     23735
     23721     23720     23718     23726     23721     23723     23735     23736
     23721     23723     23735     23737     23721     23723     23735     23738
     23722     23721     23723     23724     23722     23721     23723     23725
     23722     23721     23723     23735     23723     23735     23738     23739
     23723     23735     23738     23740     23723     23735     23738     23741
     23724     23723     23735     23736     23724     23723     23735     23737
     23724     23723     23735     23738     23725     23723     23735     23736
     23725     23723     23735     23737     23725     23723     23735     23738
     23726     23729     23730     23731     23726     23729     23730     23732
     23727     23726     23729     23730     23728     23726     23729     23730
     23729     23730     23732     23733     23729     23730     23732     23734
     23729     23730     23732     23782     23730     23732     23782     23783
     23730     23732     23782     23784     23730     23732     23782     23785
     23731     23730     23732     23733     23731     23730     23732     23734
     23731     23730     23732     23782     23732     23782     23785     23786
     23732     23782     23785     23787     23732     23782     23785     23788
     23733     23732     23782     23783     23733     23732     23782     23784
     23733     23732     23782     23785     23734     23732     23782     23783
     23734     23732     23782     23784     23734     23732     23782     23785
     23735     23738     23741     23742     23735     23738     23741     23743
     23735     23738     23741     23744     23736     23735     23738     23739
     23736     23735     23738     23740     23736     23735     23738     23741
     23737     23735     23738     23739     23737     23735     23738     23740
     23737     23735     23738     23741     23738     23741     23744     23745
     23738     23741     23744     23746     23738     23741     23744     23747
     23739     23738     23741     23742     23739     23738     23741     23743
     23739     23738     23741     23744     23740     23738     23741     23742
     23740     23738     23741     23743     23740     23738     23741     23744
     23741     23744     23747     23748     23741     23744     23747     23749
     23741     23744     23747     23750     23742     23741     23744     23745
     23742     23741     23744     23746     23742     23741     23744     23747
     23743     23741     23744     23745     23743     23741     23744     23746
     23743     23741     23744     23747     23744     23747     23750     23751
     23744     23747     23750     23752     23744     23747     23750     23753
     23745     23744     23747     23748     23745     23744     23747     23749
     23745     23744     23747     23750     23746     23744     23747     23748
     23746     23744     23747     23749     23746     23744     23747     23750
     23747     23750     23753     23754     23747     23750     23753     23755
     23748     23747     23750     23751     23748     23747     23750     23752
     23748     23747     23750     23753     23749     23747     23750     23751
     23749     23747     23750     23752     23749     23747     23750     23753
     23750     23753     23755     23756     23750     23753     23755     23757
     23751     23750     23753     23754     23751     23750     23753     23755
     23752     23750     23753     23754     23752     23750     23753     23755
     23753     23755     23757     23758     23753     23755     23757     23759
     23753     23755     23757     23760     23754     23753     23755     23756
     23754     23753     23755     23757     23755     23757     23760     23761
     23755     23757     23760     23762     23755     23757     23760     23763
     23756     23755     23757     23758     23756     23755     23757     23759
     23756     23755     23757     23760     23757     23760     23763     23764
     23757     23760     23763     23765     23757     23760     23763     23766
     23758     23757     23760     23761     23758     23757     23760     23762
     23758     23757     23760     23763     23759     23757     23760     23761
     23759     23757     23760     23762     23759     23757     23760     23763
     23760     23763     23766     23767     23760     23763     23766     23768
     23760     23763     23766     23769     23761     23760     23763     23764
     23761     23760     23763     23765     23761     23760     23763     23766
     23762     23760     23763     23764     23762     23760     23763     23765
     23762     23760     23763     23766     23763     23766     23769     23770
     23763     23766     23769     23771     23763     23766     23769     23772
     23764     23763     23766     23767     23764     23763     23766     23768
     23764     23763     23766     23769     23765     23763     23766     23767
     23765     23763     23766     23768     23765     23763     23766     23769
     23766     23769     23772     23773     23766     23769     23772     23774
     23766     23769     23772     23775     23767     23766     23769     23770
     23767     23766     23769     23771     23767     23766     23769     23772
     23768     23766     23769     23770     23768     23766     23769     23771
     23768     23766     23769     23772     23769     23772     23775     23776
     23769     23772     23775     23777     23769     23772     23775     23778
     23770     23769     23772     23773     23770     23769     23772     23774
     23770     23769     23772     23775     23771     23769     23772     23773
     23771     23769     23772     23774     23771     23769     23772     23775
     23772     23775     23778     23779     23772     23775     23778     23780
     23772     23775     23778     23781     23773     23772     23775     23776
     23773     23772     23775     23777     23773     23772     23775     23778
     23774     23772     23775     23776     23774     23772     23775     23777
     23774     23772     23775     23778     23776     23775     23778     23779
     23776     23775     23778     23780     23776     23775     23778     23781
     23777     23775     23778     23779     23777     23775     23778     23780
     23777     23775     23778     23781     23782     23785     23788     23789
     23782     23785     23788     23790     23782     23785     23788     23791
     23783     23782     23785     23786     23783     23782     23785     23787
     23783     23782     23785     23788     23784     23782     23785     23786
     23784     23782     23785     23787     23784     23782     23785     23788
     23785     23788     23791     23792     23785     23788     23791     23793
     23785     23788     23791     23794     23786     23785     23788     23789
     23786     23785     23788     23790     23786     23785     23788     23791
     23787     23785     23788     23789     23787     23785     23788     23790
     23787     23785     23788     23791     23788     23791     23794     23795
     23788     23791     23794     23796     23788     23791     23794     23797
     23789     23788     23791     23792     23789     23788     23791     23793
     23789     23788     23791     23794     23790     23788     23791     23792
     23790     23788     23791     23793     23790     23788     23791     23794
     23791     23794     23797     23798     23791     23794     23797     23799
     23791     23794     23797     23800     23792     23791     23794     23795
     23792     23791     23794     23796     23792     23791     23794     23797
     23793     23791     23794     23795     23793     23791     23794     23796
     23793     23791     23794     23797     23794     23797     23800     23801
     23794     23797     23800     23802     23794     23797     23800     23803
     23795     23794     23797     23798     23795     23794     23797     23799
     23795     23794     23797     23800     23796     23794     23797     23798
     23796     23794     23797     23799     23796     23794     23797     23800
     23797     23800     23803     23804     23797     23800     23803     23805
     23797     23800     23803     23806     23798     23797     23800     23801
     23798     23797     23800     23802     23798     23797     23800     23803
     23799     23797     23800     23801     23799     23797     23800     23802
     23799     23797     23800     23803     23800     23803     23806     23807
     23800     23803     23806     23808     23800     23803     23806     23809
     23801     23800     23803     23804     23801     23800     23803     23805
     23801     23800     23803     23806     23802     23800     23803     23804
     23802     23800     23803     23805     23802     23800     23803     23806
     23803     23806     23809     23810     23803     23806     23809     23811
     23803     23806     23809     23812     23804     23803     23806     23807
     23804     23803     23806     23808     23804     23803     23806     23809
     23805     23803     23806     23807     23805     23803     23806     23808
     23805     23803     23806     23809     23806     23809     23812     23813
     23806     23809     23812     23814     23806     23809     23812     23815
     23807     23806     23809     23810     23807     23806     23809     23811
     23807     23806     23809     23812     23808     23806     23809     23810
     23808     23806     23809     23811     23808     23806     23809     23812
     23809     23812     23815     23816     23809     23812     23815     23817
     23809     23812     23815     23818     23810     23809     23812     23813
     23810     23809     23812     23814     23810     23809     23812     23815
     23811     23809     23812     23813     23811     23809     23812     23814
     23811     23809     23812     23815     23812     23815     23818     23819
     23812     23815     23818     23820     23812     23815     23818     23821
     23813     23812     23815     23816     23813     23812     23815     23817
     23813     23812     23815     23818     23814     23812     23815     23816
     23814     23812     23815     23817     23814     23812     23815     23818
     23815     23818     23821     23822     23815     23818     23821     23823
     23815     23818     23821     23824     23816     23815     23818     23819
     23816     23815     23818     23820     23816     23815     23818     23821
     23817     23815     23818     23819     23817     23815     23818     23820
     23817     23815     23818     23821     23819     23818     23821     23822
     23819     23818     23821     23823     23819     23818     23821     23824
     23820     23818     23821     23822     23820     23818     23821     23823
     23820     23818     23821     23824     23825     23826     23841     23842
     23825     23826     23841     23843     23825     23826     23841     23847
     23826     23825     23829     23830     23826     23825     23829     23831
     23826     23825     23829     23832     23826     23825     23833     23834
     23826     23825     23833     23835     23826     23825     23833     23836
     23826     23825     23837     23838     23826     23825     23837     23839
     23826     23825     23837     23840     23826     23841     23847     23844
     23827     23826     23825     23829     23827     23826     23825     23833
     23827     23826     23825     23837     23827     23826     23841     23842
     23827     23826     23841     23843     23827     23826     23841     23847
     23828     23826     23825     23829     23828     23826     23825     23833
     23828     23826     23825     23837     23828     23826     23841     23842
     23828     23826     23841     23843     23828     23826     23841     23847
     23829     23825     23826     23841     23829     23825     23833     23834
     23829     23825     23833     23835     23829     23825     23833     23836
     23829     23825     23837     23838     23829     23825     23837     23839
     23829     23825     23837     23840     23830     23829     23825     23833
     23830     23829     23825     23837     23831     23829     23825     23833
     23831     23829     23825     23837     23832     23829     23825     23833
     23832     23829     23825     23837     23833     23825     23826     23841
     23833     23825     23837     23838     23833     23825     23837     23839
     23833     23825     23837     23840     23834     23833     23825     23837
     23835     23833     23825     23837     23836     23833     23825     23837
     23837     23825     23826     23841     23841     23847     23844     23845
     23841     23847     23844     23846     23841     23847     23844     23848
     23842     23841     23847     23844     23843     23841     23847     23844
     23844     23848     23849     23850     23844     23848     23849     23851
     23844     23848     23849     23852     23845     23844     23848     23849
     23846     23844     23848     23849     23847     23844     23848     23849
     23848     23849     23852     23853     23848     23849     23852     23854
     23848     23849     23852     23860     23849     23852     23854     23855
     23849     23852     23860     23861     23849     23852     23860     23862
     23849     23852     23860     23863     23850     23849     23852     23853
     23850     23849     23852     23854     23850     23849     23852     23860
     23851     23849     23852     23853     23851     23849     23852     23854
     23851     23849     23852     23860     23852     23854     23855     23856
     23852     23854     23855     23857     23852     23860     23863     23864
     23853     23852     23854     23855     23853     23852     23860     23861
     23853     23852     23860     23862     23853     23852     23860     23863
     23854     23852     23860     23861     23854     23852     23860     23862
     23854     23852     23860     23863     23854     23855     23857     23858
     23854     23855     23857     23859     23854     23855     23857     23869
     23855     23854     23852     23860     23855     23857     23869     23870
     23855     23857     23869     23871     23855     23857     23869     23872
     23856     23855     23857     23858     23856     23855     23857     23859
     23856     23855     23857     23869     23857     23869     23872     23873
     23857     23869     23872     23874     23857     23869     23872     23875
     23858     23857     23869     23870     23858     23857     23869     23871
     23858     23857     23869     23872     23859     23857     23869     23870
     23859     23857     23869     23871     23859     23857     23869     23872
     23860     23863     23864     23865     23860     23863     23864     23866
     23861     23860     23863     23864     23862     23860     23863     23864
     23863     23864     23866     23867     23863     23864     23866     23868
     23863     23864     23866     23916     23864     23866     23916     23917
     23864     23866     23916     23918     23864     23866     23916     23919
     23865     23864     23866     23867     23865     23864     23866     23868
     23865     23864     23866     23916     23866     23916     23919     23920
     23866     23916     23919     23921     23866     23916     23919     23922
     23867     23866     23916     23917     23867     23866     23916     23918
     23867     23866     23916     23919     23868     23866     23916     23917
     23868     23866     23916     23918     23868     23866     23916     23919
     23869     23872     23875     23876     23869     23872     23875     23877
     23869     23872     23875     23878     23870     23869     23872     23873
     23870     23869     23872     23874     23870     23869     23872     23875
     23871     23869     23872     23873     23871     23869     23872     23874
     23871     23869     23872     23875     23872     23875     23878     23879
     23872     23875     23878     23880     23872     23875     23878     23881
     23873     23872     23875     23876     23873     23872     23875     23877
     23873     23872     23875     23878     23874     23872     23875     23876
     23874     23872     23875     23877     23874     23872     23875     23878
     23875     23878     23881     23882     23875     23878     23881     23883
     23875     23878     23881     23884     23876     23875     23878     23879
     23876     23875     23878     23880     23876     23875     23878     23881
     23877     23875     23878     23879     23877     23875     23878     23880
     23877     23875     23878     23881     23878     23881     23884     23885
     23878     23881     23884     23886     23878     23881     23884     23887
     23879     23878     23881     23882     23879     23878     23881     23883
     23879     23878     23881     23884     23880     23878     23881     23882
     23880     23878     23881     23883     23880     23878     23881     23884
     23881     23884     23887     23888     23881     23884     23887     23889
     23882     23881     23884     23885     23882     23881     23884     23886
     23882     23881     23884     23887     23883     23881     23884     23885
     23883     23881     23884     23886     23883     23881     23884     23887
     23884     23887     23889     23890     23884     23887     23889     23891
     23885     23884     23887     23888     23885     23884     23887     23889
     23886     23884     23887     23888     23886     23884     23887     23889
     23887     23889     23891     23892     23887     23889     23891     23893
     23887     23889     23891     23894     23888     23887     23889     23890
     23888     23887     23889     23891     23889     23891     23894     23895
     23889     23891     23894     23896     23889     23891     23894     23897
     23890     23889     23891     23892     23890     23889     23891     23893
     23890     23889     23891     23894     23891     23894     23897     23898
     23891     23894     23897     23899     23891     23894     23897     23900
     23892     23891     23894     23895     23892     23891     23894     23896
     23892     23891     23894     23897     23893     23891     23894     23895
     23893     23891     23894     23896     23893     23891     23894     23897
     23894     23897     23900     23901     23894     23897     23900     23902
     23894     23897     23900     23903     23895     23894     23897     23898
     23895     23894     23897     23899     23895     23894     23897     23900
     23896     23894     23897     23898     23896     23894     23897     23899
     23896     23894     23897     23900     23897     23900     23903     23904
     23897     23900     23903     23905     23897     23900     23903     23906
     23898     23897     23900     23901     23898     23897     23900     23902
     23898     23897     23900     23903     23899     23897     23900     23901
     23899     23897     23900     23902     23899     23897     23900     23903
     23900     23903     23906     23907     23900     23903     23906     23908
     23900     23903     23906     23909     23901     23900     23903     23904
     23901     23900     23903     23905     23901     23900     23903     23906
     23902     23900     23903     23904     23902     23900     23903     23905
     23902     23900     23903     23906     23903     23906     23909     23910
     23903     23906     23909     23911     23903     23906     23909     23912
     23904     23903     23906     23907     23904     23903     23906     23908
     23904     23903     23906     23909     23905     23903     23906     23907
     23905     23903     23906     23908     23905     23903     23906     23909
     23906     23909     23912     23913     23906     23909     23912     23914
     23906     23909     23912     23915     23907     23906     23909     23910
     23907     23906     23909     23911     23907     23906     23909     23912
     23908     23906     23909     23910     23908     23906     23909     23911
     23908     23906     23909     23912     23910     23909     23912     23913
     23910     23909     23912     23914     23910     23909     23912     23915
     23911     23909     23912     23913     23911     23909     23912     23914
     23911     23909     23912     23915     23916     23919     23922     23923
     23916     23919     23922     23924     23916     23919     23922     23925
     23917     23916     23919     23920     23917     23916     23919     23921
     23917     23916     23919     23922     23918     23916     23919     23920
     23918     23916     23919     23921     23918     23916     23919     23922
     23919     23922     23925     23926     23919     23922     23925     23927
     23919     23922     23925     23928     23920     23919     23922     23923
     23920     23919     23922     23924     23920     23919     23922     23925
     23921     23919     23922     23923     23921     23919     23922     23924
     23921     23919     23922     23925     23922     23925     23928     23929
     23922     23925     23928     23930     23922     23925     23928     23931
     23923     23922     23925     23926     23923     23922     23925     23927
     23923     23922     23925     23928     23924     23922     23925     23926
     23924     23922     23925     23927     23924     23922     23925     23928
     23925     23928     23931     23932     23925     23928     23931     23933
     23925     23928     23931     23934     23926     23925     23928     23929
     23926     23925     23928     23930     23926     23925     23928     23931
     23927     23925     23928     23929     23927     23925     23928     23930
     23927     23925     23928     23931     23928     23931     23934     23935
     23928     23931     23934     23936     23928     23931     23934     23937
     23929     23928     23931     23932     23929     23928     23931     23933
     23929     23928     23931     23934     23930     23928     23931     23932
     23930     23928     23931     23933     23930     23928     23931     23934
     23931     23934     23937     23938     23931     23934     23937     23939
     23931     23934     23937     23940     23932     23931     23934     23935
     23932     23931     23934     23936     23932     23931     23934     23937
     23933     23931     23934     23935     23933     23931     23934     23936
     23933     23931     23934     23937     23934     23937     23940     23941
     23934     23937     23940     23942     23934     23937     23940     23943
     23935     23934     23937     23938     23935     23934     23937     23939
     23935     23934     23937     23940     23936     23934     23937     23938
     23936     23934     23937     23939     23936     23934     23937     23940
     23937     23940     23943     23944     23937     23940     23943     23945
     23937     23940     23943     23946     23938     23937     23940     23941
     23938     23937     23940     23942     23938     23937     23940     23943
     23939     23937     23940     23941     23939     23937     23940     23942
     23939     23937     23940     23943     23940     23943     23946     23947
     23940     23943     23946     23948     23940     23943     23946     23949
     23941     23940     23943     23944     23941     23940     23943     23945
     23941     23940     23943     23946     23942     23940     23943     23944
     23942     23940     23943     23945     23942     23940     23943     23946
     23943     23946     23949     23950     23943     23946     23949     23951
     23943     23946     23949     23952     23944     23943     23946     23947
     23944     23943     23946     23948     23944     23943     23946     23949
     23945     23943     23946     23947     23945     23943     23946     23948
     23945     23943     23946     23949     23946     23949     23952     23953
     23946     23949     23952     23954     23946     23949     23952     23955
     23947     23946     23949     23950     23947     23946     23949     23951
     23947     23946     23949     23952     23948     23946     23949     23950
     23948     23946     23949     23951     23948     23946     23949     23952
     23949     23952     23955     23956     23949     23952     23955     23957
     23949     23952     23955     23958     23950     23949     23952     23953
     23950     23949     23952     23954     23950     23949     23952     23955
     23951     23949     23952     23953     23951     23949     23952     23954
     23951     23949     23952     23955     23953     23952     23955     23956
     23953     23952     23955     23957     23953     23952     23955     23958
     23954     23952     23955     23956     23954     23952     23955     23957
     23954     23952     23955     23958     23959     23960     23975     23976
     23959     23960     23975     23977     23959     23960     23975     23981
     23960     23959     23963     23964     23960     23959     23963     23965
     23960     23959     23963     23966     23960     23959     23967     23968
     23960     23959     23967     23969     23960     23959     23967     23970
     23960     23959     23971     23972     23960     23959     23971     23973
     23960     23959     23971     23974     23960     23975     23981     23978
     23961     23960     23959     23963     23961     23960     23959     23967
     23961     23960     23959     23971     23961     23960     23975     23976
     23961     23960     23975     23977     23961     23960     23975     23981
     23962     23960     23959     23963     23962     23960     23959     23967
     23962     23960     23959     23971     23962     23960     23975     23976
     23962     23960     23975     23977     23962     23960     23975     23981
     23963     23959     23960     23975     23963     23959     23967     23968
     23963     23959     23967     23969     23963     23959     23967     23970
     23963     23959     23971     23972     23963     23959     23971     23973
     23963     23959     23971     23974     23964     23963     23959     23967
     23964     23963     23959     23971     23965     23963     23959     23967
     23965     23963     23959     23971     23966     23963     23959     23967
     23966     23963     23959     23971     23967     23959     23960     23975
     23967     23959     23971     23972     23967     23959     23971     23973
     23967     23959     23971     23974     23968     23967     23959     23971
     23969     23967     23959     23971     23970     23967     23959     23971
     23971     23959     23960     23975     23975     23981     23978     23979
     23975     23981     23978     23980     23975     23981     23978     23982
     23976     23975     23981     23978     23977     23975     23981     23978
     23978     23982     23983     23984     23978     23982     23983     23985
     23978     23982     23983     23986     23979     23978     23982     23983
     23980     23978     23982     23983     23981     23978     23982     23983
     23982     23983     23986     23987     23982     23983     23986     23988
     23982     23983     23986     23994     23983     23986     23988     23989
     23983     23986     23994     23995     23983     23986     23994     23996
     23983     23986     23994     23997     23984     23983     23986     23987
     23984     23983     23986     23988     23984     23983     23986     23994
     23985     23983     23986     23987     23985     23983     23986     23988
     23985     23983     23986     23994     23986     23988     23989     23990
     23986     23988     23989     23991     23986     23994     23997     23998
     23987     23986     23988     23989     23987     23986     23994     23995
     23987     23986     23994     23996     23987     23986     23994     23997
     23988     23986     23994     23995     23988     23986     23994     23996
     23988     23986     23994     23997     23988     23989     23991     23992
     23988     23989     23991     23993     23988     23989     23991     24003
     23989     23988     23986     23994     23989     23991     24003     24004
     23989     23991     24003     24005     23989     23991     24003     24006
     23990     23989     23991     23992     23990     23989     23991     23993
     23990     23989     23991     24003     23991     24003     24006     24007
     23991     24003     24006     24008     23991     24003     24006     24009
     23992     23991     24003     24004     23992     23991     24003     24005
     23992     23991     24003     24006     23993     23991     24003     24004
     23993     23991     24003     24005     23993     23991     24003     24006
     23994     23997     23998     23999     23994     23997     23998     24000
     23995     23994     23997     23998     23996     23994     23997     23998
     23997     23998     24000     24001     23997     23998     24000     24002
     23997     23998     24000     24050     23998     24000     24050     24051
     23998     24000     24050     24052     23998     24000     24050     24053
     23999     23998     24000     24001     23999     23998     24000     24002
     23999     23998     24000     24050     24000     24050     24053     24054
     24000     24050     24053     24055     24000     24050     24053     24056
     24001     24000     24050     24051     24001     24000     24050     24052
     24001     24000     24050     24053     24002     24000     24050     24051
     24002     24000     24050     24052     24002     24000     24050     24053
     24003     24006     24009     24010     24003     24006     24009     24011
     24003     24006     24009     24012     24004     24003     24006     24007
     24004     24003     24006     24008     24004     24003     24006     24009
     24005     24003     24006     24007     24005     24003     24006     24008
     24005     24003     24006     24009     24006     24009     24012     24013
     24006     24009     24012     24014     24006     24009     24012     24015
     24007     24006     24009     24010     24007     24006     24009     24011
     24007     24006     24009     24012     24008     24006     24009     24010
     24008     24006     24009     24011     24008     24006     24009     24012
     24009     24012     24015     24016     24009     24012     24015     24017
     24009     24012     24015     24018     24010     24009     24012     24013
     24010     24009     24012     24014     24010     24009     24012     24015
     24011     24009     24012     24013     24011     24009     24012     24014
     24011     24009     24012     24015     24012     24015     24018     24019
     24012     24015     24018     24020     24012     24015     24018     24021
     24013     24012     24015     24016     24013     24012     24015     24017
     24013     24012     24015     24018     24014     24012     24015     24016
     24014     24012     24015     24017     24014     24012     24015     24018
     24015     24018     24021     24022     24015     24018     24021     24023
     24016     24015     24018     24019     24016     24015     24018     24020
     24016     24015     24018     24021     24017     24015     24018     24019
     24017     24015     24018     24020     24017     24015     24018     24021
     24018     24021     24023     24024     24018     24021     24023     24025
     24019     24018     24021     24022     24019     24018     24021     24023
     24020     24018     24021     24022     24020     24018     24021     24023
     24021     24023     24025     24026     24021     24023     24025     24027
     24021     24023     24025     24028     24022     24021     24023     24024
     24022     24021     24023     24025     24023     24025     24028     24029
     24023     24025     24028     24030     24023     24025     24028     24031
     24024     24023     24025     24026     24024     24023     24025     24027
     24024     24023     24025     24028     24025     24028     24031     24032
     24025     24028     24031     24033     24025     24028     24031     24034
     24026     24025     24028     24029     24026     24025     24028     24030
     24026     24025     24028     24031     24027     24025     24028     24029
     24027     24025     24028     24030     24027     24025     24028     24031
     24028     24031     24034     24035     24028     24031     24034     24036
     24028     24031     24034     24037     24029     24028     24031     24032
     24029     24028     24031     24033     24029     24028     24031     24034
     24030     24028     24031     24032     24030     24028     24031     24033
     24030     24028     24031     24034     24031     24034     24037     24038
     24031     24034     24037     24039     24031     24034     24037     24040
     24032     24031     24034     24035     24032     24031     24034     24036
     24032     24031     24034     24037     24033     24031     24034     24035
     24033     24031     24034     24036     24033     24031     24034     24037
     24034     24037     24040     24041     24034     24037     24040     24042
     24034     24037     24040     24043     24035     24034     24037     24038
     24035     24034     24037     24039     24035     24034     24037     24040
     24036     24034     24037     24038     24036     24034     24037     24039
     24036     24034     24037     24040     24037     24040     24043     24044
     24037     24040     24043     24045     24037     24040     24043     24046
     24038     24037     24040     24041     24038     24037     24040     24042
     24038     24037     24040     24043     24039     24037     24040     24041
     24039     24037     24040     24042     24039     24037     24040     24043
     24040     24043     24046     24047     24040     24043     24046     24048
     24040     24043     24046     24049     24041     24040     24043     24044
     24041     24040     24043     24045     24041     24040     24043     24046
     24042     24040     24043     24044     24042     24040     24043     24045
     24042     24040     24043     24046     24044     24043     24046     24047
     24044     24043     24046     24048     24044     24043     24046     24049
     24045     24043     24046     24047     24045     24043     24046     24048
     24045     24043     24046     24049     24050     24053     24056     24057
     24050     24053     24056     24058     24050     24053     24056     24059
     24051     24050     24053     24054     24051     24050     24053     24055
     24051     24050     24053     24056     24052     24050     24053     24054
     24052     24050     24053     24055     24052     24050     24053     24056
     24053     24056     24059     24060     24053     24056     24059     24061
     24053     24056     24059     24062     24054     24053     24056     24057
     24054     24053     24056     24058     24054     24053     24056     24059
     24055     24053     24056     24057     24055     24053     24056     24058
     24055     24053     24056     24059     24056     24059     24062     24063
     24056     24059     24062     24064     24056     24059     24062     24065
     24057     24056     24059     24060     24057     24056     24059     24061
     24057     24056     24059     24062     24058     24056     24059     24060
     24058     24056     24059     24061     24058     24056     24059     24062
     24059     24062     24065     24066     24059     24062     24065     24067
     24059     24062     24065     24068     24060     24059     24062     24063
     24060     24059     24062     24064     24060     24059     24062     24065
     24061     24059     24062     24063     24061     24059     24062     24064
     24061     24059     24062     24065     24062     24065     24068     24069
     24062     24065     24068     24070     24062     24065     24068     24071
     24063     24062     24065     24066     24063     24062     24065     24067
     24063     24062     24065     24068     24064     24062     24065     24066
     24064     24062     24065     24067     24064     24062     24065     24068
     24065     24068     24071     24072     24065     24068     24071     24073
     24065     24068     24071     24074     24066     24065     24068     24069
     24066     24065     24068     24070     24066     24065     24068     24071
     24067     24065     24068     24069     24067     24065     24068     24070
     24067     24065     24068     24071     24068     24071     24074     24075
     24068     24071     24074     24076     24068     24071     24074     24077
     24069     24068     24071     24072     24069     24068     24071     24073
     24069     24068     24071     24074     24070     24068     24071     24072
     24070     24068     24071     24073     24070     24068     24071     24074
     24071     24074     24077     24078     24071     24074     24077     24079
     24071     24074     24077     24080     24072     24071     24074     24075
     24072     24071     24074     24076     24072     24071     24074     24077
     24073     24071     24074     24075     24073     24071     24074     24076
     24073     24071     24074     24077     24074     24077     24080     24081
     24074     24077     24080     24082     24074     24077     24080     24083
     24075     24074     24077     24078     24075     24074     24077     24079
     24075     24074     24077     24080     24076     24074     24077     24078
     24076     24074     24077     24079     24076     24074     24077     24080
     24077     24080     24083     24084     24077     24080     24083     24085
     24077     24080     24083     24086     24078     24077     24080     24081
     24078     24077     24080     24082     24078     24077     24080     24083
     24079     24077     24080     24081     24079     24077     24080     24082
     24079     24077     24080     24083     24080     24083     24086     24087
     24080     24083     24086     24088     24080     24083     24086     24089
     24081     24080     24083     24084     24081     24080     24083     24085
     24081     24080     24083     24086     24082     24080     24083     24084
     24082     24080     24083     24085     24082     24080     24083     24086
     24083     24086     24089     24090     24083     24086     24089     24091
     24083     24086     24089     24092     24084     24083     24086     24087
     24084     24083     24086     24088     24084     24083     24086     24089
     24085     24083     24086     24087     24085     24083     24086     24088
     24085     24083     24086     24089     24087     24086     24089     24090
     24087     24086     24089     24091     24087     24086     24089     24092
     24088     24086     24089     24090     24088     24086     24089     24091
     24088     24086     24089     24092     24093     24094     24109     24110
     24093     24094     24109     24111     24093     24094     24109     24115
     24094     24093     24097     24098     24094     24093     24097     24099
     24094     24093     24097     24100     24094     24093     24101     24102
     24094     24093     24101     24103     24094     24093     24101     24104
     24094     24093     24105     24106     24094     24093     24105     24107
     24094     24093     24105     24108     24094     24109     24115     24112
     24095     24094     24093     24097     24095     24094     24093     24101
     24095     24094     24093     24105     24095     24094     24109     24110
     24095     24094     24109     24111     24095     24094     24109     24115
     24096     24094     24093     24097     24096     24094     24093     24101
     24096     24094     24093     24105     24096     24094     24109     24110
     24096     24094     24109     24111     24096     24094     24109     24115
     24097     24093     24094     24109     24097     24093     24101     24102
     24097     24093     24101     24103     24097     24093     24101     24104
     24097     24093     24105     24106     24097     24093     24105     24107
     24097     24093     24105     24108     24098     24097     24093     24101
     24098     24097     24093     24105     24099     24097     24093     24101
     24099     24097     24093     24105     24100     24097     24093     24101
     24100     24097     24093     24105     24101     24093     24094     24109
     24101     24093     24105     24106     24101     24093     24105     24107
     24101     24093     24105     24108     24102     24101     24093     24105
     24103     24101     24093     24105     24104     24101     24093     24105
     24105     24093     24094     24109     24109     24115     24112     24113
     24109     24115     24112     24114     24109     24115     24112     24116
     24110     24109     24115     24112     24111     24109     24115     24112
     24112     24116     24117     24118     24112     24116     24117     24119
     24112     24116     24117     24120     24113     24112     24116     24117
     24114     24112     24116     24117     24115     24112     24116     24117
     24116     24117     24120     24121     24116     24117     24120     24122
     24116     24117     24120     24128     24117     24120     24122     24123
     24117     24120     24128     24129     24117     24120     24128     24130
     24117     24120     24128     24131     24118     24117     24120     24121
     24118     24117     24120     24122     24118     24117     24120     24128
     24119     24117     24120     24121     24119     24117     24120     24122
     24119     24117     24120     24128     24120     24122     24123     24124
     24120     24122     24123     24125     24120     24128     24131     24132
     24121     24120     24122     24123     24121     24120     24128     24129
     24121     24120     24128     24130     24121     24120     24128     24131
     24122     24120     24128     24129     24122     24120     24128     24130
     24122     24120     24128     24131     24122     24123     24125     24126
     24122     24123     24125     24127     24122     24123     24125     24137
     24123     24122     24120     24128     24123     24125     24137     24138
     24123     24125     24137     24139     24123     24125     24137     24140
     24124     24123     24125     24126     24124     24123     24125     24127
     24124     24123     24125     24137     24125     24137     24140     24141
     24125     24137     24140     24142     24125     24137     24140     24143
     24126     24125     24137     24138     24126     24125     24137     24139
     24126     24125     24137     24140     24127     24125     24137     24138
     24127     24125     24137     24139     24127     24125     24137     24140
     24128     24131     24132     24133     24128     24131     24132     24134
     24129     24128     24131     24132     24130     24128     24131     24132
     24131     24132     24134     24135     24131     24132     24134     24136
     24131     24132     24134     24184     24132     24134     24184     24185
     24132     24134     24184     24186     24132     24134     24184     24187
     24133     24132     24134     24135     24133     24132     24134     24136
     24133     24132     24134     24184     24134     24184     24187     24188
     24134     24184     24187     24189     24134     24184     24187     24190
     24135     24134     24184     24185     24135     24134     24184     24186
     24135     24134     24184     24187     24136     24134     24184     24185
     24136     24134     24184     24186     24136     24134     24184     24187
     24137     24140     24143     24144     24137     24140     24143     24145
     24137     24140     24143     24146     24138     24137     24140     24141
     24138     24137     24140     24142     24138     24137     24140     24143
     24139     24137     24140     24141     24139     24137     24140     24142
     24139     24137     24140     24143     24140     24143     24146     24147
     24140     24143     24146     24148     24140     24143     24146     24149
     24141     24140     24143     24144     24141     24140     24143     24145
     24141     24140     24143     24146     24142     24140     24143     24144
     24142     24140     24143     24145     24142     24140     24143     24146
     24143     24146     24149     24150     24143     24146     24149     24151
     24143     24146     24149     24152     24144     24143     24146     24147
     24144     24143     24146     24148     24144     24143     24146     24149
     24145     24143     24146     24147     24145     24143     24146     24148
     24145     24143     24146     24149     24146     24149     24152     24153
     24146     24149     24152     24154     24146     24149     24152     24155
     24147     24146     24149     24150     24147     24146     24149     24151
     24147     24146     24149     24152     24148     24146     24149     24150
     24148     24146     24149     24151     24148     24146     24149     24152
     24149     24152     24155     24156     24149     24152     24155     24157
     24150     24149     24152     24153     24150     24149     24152     24154
     24150     24149     24152     24155     24151     24149     24152     24153
     24151     24149     24152     24154     24151     24149     24152     24155
     24152     24155     24157     24158     24152     24155     24157     24159
     24153     24152     24155     24156     24153     24152     24155     24157
     24154     24152     24155     24156     24154     24152     24155     24157
     24155     24157     24159     24160     24155     24157     24159     24161
     24155     24157     24159     24162     24156     24155     24157     24158
     24156     24155     24157     24159     24157     24159     24162     24163
     24157     24159     24162     24164     24157     24159     24162     24165
     24158     24157     24159     24160     24158     24157     24159     24161
     24158     24157     24159     24162     24159     24162     24165     24166
     24159     24162     24165     24167     24159     24162     24165     24168
     24160     24159     24162     24163     24160     24159     24162     24164
     24160     24159     24162     24165     24161     24159     24162     24163
     24161     24159     24162     24164     24161     24159     24162     24165
     24162     24165     24168     24169     24162     24165     24168     24170
     24162     24165     24168     24171     24163     24162     24165     24166
     24163     24162     24165     24167     24163     24162     24165     24168
     24164     24162     24165     24166     24164     24162     24165     24167
     24164     24162     24165     24168     24165     24168     24171     24172
     24165     24168     24171     24173     24165     24168     24171     24174
     24166     24165     24168     24169     24166     24165     24168     24170
     24166     24165     24168     24171     24167     24165     24168     24169
     24167     24165     24168     24170     24167     24165     24168     24171
     24168     24171     24174     24175     24168     24171     24174     24176
     24168     24171     24174     24177     24169     24168     24171     24172
     24169     24168     24171     24173     24169     24168     24171     24174
     24170     24168     24171     24172     24170     24168     24171     24173
     24170     24168     24171     24174     24171     24174     24177     24178
     24171     24174     24177     24179     24171     24174     24177     24180
     24172     24171     24174     24175     24172     24171     24174     24176
     24172     24171     24174     24177     24173     24171     24174     24175
     24173     24171     24174     24176     24173     24171     24174     24177
     24174     24177     24180     24181     24174     24177     24180     24182
     24174     24177     24180     24183     24175     24174     24177     24178
     24175     24174     24177     24179     24175     24174     24177     24180
     24176     24174     24177     24178     24176     24174     24177     24179
     24176     24174     24177     24180     24178     24177     24180     24181
     24178     24177     24180     24182     24178     24177     24180     24183
     24179     24177     24180     24181     24179     24177     24180     24182
     24179     24177     24180     24183     24184     24187     24190     24191
     24184     24187     24190     24192     24184     24187     24190     24193
     24185     24184     24187     24188     24185     24184     24187     24189
     24185     24184     24187     24190     24186     24184     24187     24188
     24186     24184     24187     24189     24186     24184     24187     24190
     24187     24190     24193     24194     24187     24190     24193     24195
     24187     24190     24193     24196     24188     24187     24190     24191
     24188     24187     24190     24192     24188     24187     24190     24193
     24189     24187     24190     24191     24189     24187     24190     24192
     24189     24187     24190     24193     24190     24193     24196     24197
     24190     24193     24196     24198     24190     24193     24196     24199
     24191     24190     24193     24194     24191     24190     24193     24195
     24191     24190     24193     24196     24192     24190     24193     24194
     24192     24190     24193     24195     24192     24190     24193     24196
     24193     24196     24199     24200     24193     24196     24199     24201
     24193     24196     24199     24202     24194     24193     24196     24197
     24194     24193     24196     24198     24194     24193     24196     24199
     24195     24193     24196     24197     24195     24193     24196     24198
     24195     24193     24196     24199     24196     24199     24202     24203
     24196     24199     24202     24204     24196     24199     24202     24205
     24197     24196     24199     24200     24197     24196     24199     24201
     24197     24196     24199     24202     24198     24196     24199     24200
     24198     24196     24199     24201     24198     24196     24199     24202
     24199     24202     24205     24206     24199     24202     24205     24207
     24199     24202     24205     24208     24200     24199     24202     24203
     24200     24199     24202     24204     24200     24199     24202     24205
     24201     24199     24202     24203     24201     24199     24202     24204
     24201     24199     24202     24205     24202     24205     24208     24209
     24202     24205     24208     24210     24202     24205     24208     24211
     24203     24202     24205     24206     24203     24202     24205     24207
     24203     24202     24205     24208     24204     24202     24205     24206
     24204     24202     24205     24207     24204     24202     24205     24208
     24205     24208     24211     24212     24205     24208     24211     24213
     24205     24208     24211     24214     24206     24205     24208     24209
     24206     24205     24208     24210     24206     24205     24208     24211
     24207     24205     24208     24209     24207     24205     24208     24210
     24207     24205     24208     24211     24208     24211     24214     24215
     24208     24211     24214     24216     24208     24211     24214     24217
     24209     24208     24211     24212     24209     24208     24211     24213
     24209     24208     24211     24214     24210     24208     24211     24212
     24210     24208     24211     24213     24210     24208     24211     24214
     24211     24214     24217     24218     24211     24214     24217     24219
     24211     24214     24217     24220     24212     24211     24214     24215
     24212     24211     24214     24216     24212     24211     24214     24217
     24213     24211     24214     24215     24213     24211     24214     24216
     24213     24211     24214     24217     24214     24217     24220     24221
     24214     24217     24220     24222     24214     24217     24220     24223
     24215     24214     24217     24218     24215     24214     24217     24219
     24215     24214     24217     24220     24216     24214     24217     24218
     24216     24214     24217     24219     24216     24214     24217     24220
     24217     24220     24223     24224     24217     24220     24223     24225
     24217     24220     24223     24226     24218     24217     24220     24221
     24218     24217     24220     24222     24218     24217     24220     24223
     24219     24217     24220     24221     24219     24217     24220     24222
     24219     24217     24220     24223     24221     24220     24223     24224
     24221     24220     24223     24225     24221     24220     24223     24226
     24222     24220     24223     24224     24222     24220     24223     24225
     24222     24220     24223     24226     24227     24228     24243     24244
     24227     24228     24243     24245     24227     24228     24243     24249
     24228     24227     24231     24232     24228     24227     24231     24233
     24228     24227     24231     24234     24228     24227     24235     24236
     24228     24227     24235     24237     24228     24227     24235     24238
     24228     24227     24239     24240     24228     24227     24239     24241
     24228     24227     24239     24242     24228     24243     24249     24246
     24229     24228     24227     24231     24229     24228     24227     24235
     24229     24228     24227     24239     24229     24228     24243     24244
     24229     24228     24243     24245     24229     24228     24243     24249
     24230     24228     24227     24231     24230     24228     24227     24235
     24230     24228     24227     24239     24230     24228     24243     24244
     24230     24228     24243     24245     24230     24228     24243     24249
     24231     24227     24228     24243     24231     24227     24235     24236
     24231     24227     24235     24237     24231     24227     24235     24238
     24231     24227     24239     24240     24231     24227     24239     24241
     24231     24227     24239     24242     24232     24231     24227     24235
     24232     24231     24227     24239     24233     24231     24227     24235
     24233     24231     24227     24239     24234     24231     24227     24235
     24234     24231     24227     24239     24235     24227     24228     24243
     24235     24227     24239     24240     24235     24227     24239     24241
     24235     24227     24239     24242     24236     24235     24227     24239
     24237     24235     24227     24239     24238     24235     24227     24239
     24239     24227     24228     24243     24243     24249     24246     24247
     24243     24249     24246     24248     24243     24249     24246     24250
     24244     24243     24249     24246     24245     24243     24249     24246
     24246     24250     24251     24252     24246     24250     24251     24253
     24246     24250     24251     24254     24247     24246     24250     24251
     24248     24246     24250     24251     24249     24246     24250     24251
     24250     24251     24254     24255     24250     24251     24254     24256
     24250     24251     24254     24262     24251     24254     24256     24257
     24251     24254     24262     24263     24251     24254     24262     24264
     24251     24254     24262     24265     24252     24251     24254     24255
     24252     24251     24254     24256     24252     24251     24254     24262
     24253     24251     24254     24255     24253     24251     24254     24256
     24253     24251     24254     24262     24254     24256     24257     24258
     24254     24256     24257     24259     24254     24262     24265     24266
     24255     24254     24256     24257     24255     24254     24262     24263
     24255     24254     24262     24264     24255     24254     24262     24265
     24256     24254     24262     24263     24256     24254     24262     24264
     24256     24254     24262     24265     24256     24257     24259     24260
     24256     24257     24259     24261     24256     24257     24259     24271
     24257     24256     24254     24262     24257     24259     24271     24272
     24257     24259     24271     24273     24257     24259     24271     24274
     24258     24257     24259     24260     24258     24257     24259     24261
     24258     24257     24259     24271     24259     24271     24274     24275
     24259     24271     24274     24276     24259     24271     24274     24277
     24260     24259     24271     24272     24260     24259     24271     24273
     24260     24259     24271     24274     24261     24259     24271     24272
     24261     24259     24271     24273     24261     24259     24271     24274
     24262     24265     24266     24267     24262     24265     24266     24268
     24263     24262     24265     24266     24264     24262     24265     24266
     24265     24266     24268     24269     24265     24266     24268     24270
     24265     24266     24268     24318     24266     24268     24318     24319
     24266     24268     24318     24320     24266     24268     24318     24321
     24267     24266     24268     24269     24267     24266     24268     24270
     24267     24266     24268     24318     24268     24318     24321     24322
     24268     24318     24321     24323     24268     24318     24321     24324
     24269     24268     24318     24319     24269     24268     24318     24320
     24269     24268     24318     24321     24270     24268     24318     24319
     24270     24268     24318     24320     24270     24268     24318     24321
     24271     24274     24277     24278     24271     24274     24277     24279
     24271     24274     24277     24280     24272     24271     24274     24275
     24272     24271     24274     24276     24272     24271     24274     24277
     24273     24271     24274     24275     24273     24271     24274     24276
     24273     24271     24274     24277     24274     24277     24280     24281
     24274     24277     24280     24282     24274     24277     24280     24283
     24275     24274     24277     24278     24275     24274     24277     24279
     24275     24274     24277     24280     24276     24274     24277     24278
     24276     24274     24277     24279     24276     24274     24277     24280
     24277     24280     24283     24284     24277     24280     24283     24285
     24277     24280     24283     24286     24278     24277     24280     24281
     24278     24277     24280     24282     24278     24277     24280     24283
     24279     24277     24280     24281     24279     24277     24280     24282
     24279     24277     24280     24283     24280     24283     24286     24287
     24280     24283     24286     24288     24280     24283     24286     24289
     24281     24280     24283     24284     24281     24280     24283     24285
     24281     24280     24283     24286     24282     24280     24283     24284
     24282     24280     24283     24285     24282     24280     24283     24286
     24283     24286     24289     24290     24283     24286     24289     24291
     24284     24283     24286     24287     24284     24283     24286     24288
     24284     24283     24286     24289     24285     24283     24286     24287
     24285     24283     24286     24288     24285     24283     24286     24289
     24286     24289     24291     24292     24286     24289     24291     24293
     24287     24286     24289     24290     24287     24286     24289     24291
     24288     24286     24289     24290     24288     24286     24289     24291
     24289     24291     24293     24294     24289     24291     24293     24295
     24289     24291     24293     24296     24290     24289     24291     24292
     24290     24289     24291     24293     24291     24293     24296     24297
     24291     24293     24296     24298     24291     24293     24296     24299
     24292     24291     24293     24294     24292     24291     24293     24295
     24292     24291     24293     24296     24293     24296     24299     24300
     24293     24296     24299     24301     24293     24296     24299     24302
     24294     24293     24296     24297     24294     24293     24296     24298
     24294     24293     24296     24299     24295     24293     24296     24297
     24295     24293     24296     24298     24295     24293     24296     24299
     24296     24299     24302     24303     24296     24299     24302     24304
     24296     24299     24302     24305     24297     24296     24299     24300
     24297     24296     24299     24301     24297     24296     24299     24302
     24298     24296     24299     24300     24298     24296     24299     24301
     24298     24296     24299     24302     24299     24302     24305     24306
     24299     24302     24305     24307     24299     24302     24305     24308
     24300     24299     24302     24303     24300     24299     24302     24304
     24300     24299     24302     24305     24301     24299     24302     24303
     24301     24299     24302     24304     24301     24299     24302     24305
     24302     24305     24308     24309     24302     24305     24308     24310
     24302     24305     24308     24311     24303     24302     24305     24306
     24303     24302     24305     24307     24303     24302     24305     24308
     24304     24302     24305     24306     24304     24302     24305     24307
     24304     24302     24305     24308     24305     24308     24311     24312
     24305     24308     24311     24313     24305     24308     24311     24314
     24306     24305     24308     24309     24306     24305     24308     24310
     24306     24305     24308     24311     24307     24305     24308     24309
     24307     24305     24308     24310     24307     24305     24308     24311
     24308     24311     24314     24315     24308     24311     24314     24316
     24308     24311     24314     24317     24309     24308     24311     24312
     24309     24308     24311     24313     24309     24308     24311     24314
     24310     24308     24311     24312     24310     24308     24311     24313
     24310     24308     24311     24314     24312     24311     24314     24315
     24312     24311     24314     24316     24312     24311     24314     24317
     24313     24311     24314     24315     24313     24311     24314     24316
     24313     24311     24314     24317     24318     24321     24324     24325
     24318     24321     24324     24326     24318     24321     24324     24327
     24319     24318     24321     24322     24319     24318     24321     24323
     24319     24318     24321     24324     24320     24318     24321     24322
     24320     24318     24321     24323     24320     24318     24321     24324
     24321     24324     24327     24328     24321     24324     24327     24329
     24321     24324     24327     24330     24322     24321     24324     24325
     24322     24321     24324     24326     24322     24321     24324     24327
     24323     24321     24324     24325     24323     24321     24324     24326
     24323     24321     24324     24327     24324     24327     24330     24331
     24324     24327     24330     24332     24324     24327     24330     24333
     24325     24324     24327     24328     24325     24324     24327     24329
     24325     24324     24327     24330     24326     24324     24327     24328
     24326     24324     24327     24329     24326     24324     24327     24330
     24327     24330     24333     24334     24327     24330     24333     24335
     24327     24330     24333     24336     24328     24327     24330     24331
     24328     24327     24330     24332     24328     24327     24330     24333
     24329     24327     24330     24331     24329     24327     24330     24332
     24329     24327     24330     24333     24330     24333     24336     24337
     24330     24333     24336     24338     24330     24333     24336     24339
     24331     24330     24333     24334     24331     24330     24333     24335
     24331     24330     24333     24336     24332     24330     24333     24334
     24332     24330     24333     24335     24332     24330     24333     24336
     24333     24336     24339     24340     24333     24336     24339     24341
     24333     24336     24339     24342     24334     24333     24336     24337
     24334     24333     24336     24338     24334     24333     24336     24339
     24335     24333     24336     24337     24335     24333     24336     24338
     24335     24333     24336     24339     24336     24339     24342     24343
     24336     24339     24342     24344     24336     24339     24342     24345
     24337     24336     24339     24340     24337     24336     24339     24341
     24337     24336     24339     24342     24338     24336     24339     24340
     24338     24336     24339     24341     24338     24336     24339     24342
     24339     24342     24345     24346     24339     24342     24345     24347
     24339     24342     24345     24348     24340     24339     24342     24343
     24340     24339     24342     24344     24340     24339     24342     24345
     24341     24339     24342     24343     24341     24339     24342     24344
     24341     24339     24342     24345     24342     24345     24348     24349
     24342     24345     24348     24350     24342     24345     24348     24351
     24343     24342     24345     24346     24343     24342     24345     24347
     24343     24342     24345     24348     24344     24342     24345     24346
     24344     24342     24345     24347     24344     24342     24345     24348
     24345     24348     24351     24352     24345     24348     24351     24353
     24345     24348     24351     24354     24346     24345     24348     24349
     24346     24345     24348     24350     24346     24345     24348     24351
     24347     24345     24348     24349     24347     24345     24348     24350
     24347     24345     24348     24351     24348     24351     24354     24355
     24348     24351     24354     24356     24348     24351     24354     24357
     24349     24348     24351     24352     24349     24348     24351     24353
     24349     24348     24351     24354     24350     24348     24351     24352
     24350     24348     24351     24353     24350     24348     24351     24354
     24351     24354     24357     24358     24351     24354     24357     24359
     24351     24354     24357     24360     24352     24351     24354     24355
     24352     24351     24354     24356     24352     24351     24354     24357
     24353     24351     24354     24355     24353     24351     24354     24356
     24353     24351     24354     24357     24355     24354     24357     24358
     24355     24354     24357     24359     24355     24354     24357     24360
     24356     24354     24357     24358     24356     24354     24357     24359
     24356     24354     24357     24360     24361     24362     24377     24378
     24361     24362     24377     24379     24361     24362     24377     24383
     24362     24361     24365     24366     24362     24361     24365     24367
     24362     24361     24365     24368     24362     24361     24369     24370
     24362     24361     24369     24371     24362     24361     24369     24372
     24362     24361     24373     24374     24362     24361     24373     24375
     24362     24361     24373     24376     24362     24377     24383     24380
     24363     24362     24361     24365     24363     24362     24361     24369
     24363     24362     24361     24373     24363     24362     24377     24378
     24363     24362     24377     24379     24363     24362     24377     24383
     24364     24362     24361     24365     24364     24362     24361     24369
     24364     24362     24361     24373     24364     24362     24377     24378
     24364     24362     24377     24379     24364     24362     24377     24383
     24365     24361     24362     24377     24365     24361     24369     24370
     24365     24361     24369     24371     24365     24361     24369     24372
     24365     24361     24373     24374     24365     24361     24373     24375
     24365     24361     24373     24376     24366     24365     24361     24369
     24366     24365     24361     24373     24367     24365     24361     24369
     24367     24365     24361     24373     24368     24365     24361     24369
     24368     24365     24361     24373     24369     24361     24362     24377
     24369     24361     24373     24374     24369     24361     24373     24375
     24369     24361     24373     24376     24370     24369     24361     24373
     24371     24369     24361     24373     24372     24369     24361     24373
     24373     24361     24362     24377     24377     24383     24380     24381
     24377     24383     24380     24382     24377     24383     24380     24384
     24378     24377     24383     24380     24379     24377     24383     24380
     24380     24384     24385     24386     24380     24384     24385     24387
     24380     24384     24385     24388     24381     24380     24384     24385
     24382     24380     24384     24385     24383     24380     24384     24385
     24384     24385     24388     24389     24384     24385     24388     24390
     24384     24385     24388     24396     24385     24388     24390     24391
     24385     24388     24396     24397     24385     24388     24396     24398
     24385     24388     24396     24399     24386     24385     24388     24389
     24386     24385     24388     24390     24386     24385     24388     24396
     24387     24385     24388     24389     24387     24385     24388     24390
     24387     24385     24388     24396     24388     24390     24391     24392
     24388     24390     24391     24393     24388     24396     24399     24400
     24389     24388     24390     24391     24389     24388     24396     24397
     24389     24388     24396     24398     24389     24388     24396     24399
     24390     24388     24396     24397     24390     24388     24396     24398
     24390     24388     24396     24399     24390     24391     24393     24394
     24390     24391     24393     24395     24390     24391     24393     24405
     24391     24390     24388     24396     24391     24393     24405     24406
     24391     24393     24405     24407     24391     24393     24405     24408
     24392     24391     24393     24394     24392     24391     24393     24395
     24392     24391     24393     24405     24393     24405     24408     24409
     24393     24405     24408     24410     24393     24405     24408     24411
     24394     24393     24405     24406     24394     24393     24405     24407
     24394     24393     24405     24408     24395     24393     24405     24406
     24395     24393     24405     24407     24395     24393     24405     24408
     24396     24399     24400     24401     24396     24399     24400     24402
     24397     24396     24399     24400     24398     24396     24399     24400
     24399     24400     24402     24403     24399     24400     24402     24404
     24399     24400     24402     24452     24400     24402     24452     24453
     24400     24402     24452     24454     24400     24402     24452     24455
     24401     24400     24402     24403     24401     24400     24402     24404
     24401     24400     24402     24452     24402     24452     24455     24456
     24402     24452     24455     24457     24402     24452     24455     24458
     24403     24402     24452     24453     24403     24402     24452     24454
     24403     24402     24452     24455     24404     24402     24452     24453
     24404     24402     24452     24454     24404     24402     24452     24455
     24405     24408     24411     24412     24405     24408     24411     24413
     24405     24408     24411     24414     24406     24405     24408     24409
     24406     24405     24408     24410     24406     24405     24408     24411
     24407     24405     24408     24409     24407     24405     24408     24410
     24407     24405     24408     24411     24408     24411     24414     24415
     24408     24411     24414     24416     24408     24411     24414     24417
     24409     24408     24411     24412     24409     24408     24411     24413
     24409     24408     24411     24414     24410     24408     24411     24412
     24410     24408     24411     24413     24410     24408     24411     24414
     24411     24414     24417     24418     24411     24414     24417     24419
     24411     24414     24417     24420     24412     24411     24414     24415
     24412     24411     24414     24416     24412     24411     24414     24417
     24413     24411     24414     24415     24413     24411     24414     24416
     24413     24411     24414     24417     24414     24417     24420     24421
     24414     24417     24420     24422     24414     24417     24420     24423
     24415     24414     24417     24418     24415     24414     24417     24419
     24415     24414     24417     24420     24416     24414     24417     24418
     24416     24414     24417     24419     24416     24414     24417     24420
     24417     24420     24423     24424     24417     24420     24423     24425
     24418     24417     24420     24421     24418     24417     24420     24422
     24418     24417     24420     24423     24419     24417     24420     24421
     24419     24417     24420     24422     24419     24417     24420     24423
     24420     24423     24425     24426     24420     24423     24425     24427
     24421     24420     24423     24424     24421     24420     24423     24425
     24422     24420     24423     24424     24422     24420     24423     24425
     24423     24425     24427     24428     24423     24425     24427     24429
     24423     24425     24427     24430     24424     24423     24425     24426
     24424     24423     24425     24427     24425     24427     24430     24431
     24425     24427     24430     24432     24425     24427     24430     24433
     24426     24425     24427     24428     24426     24425     24427     24429
     24426     24425     24427     24430     24427     24430     24433     24434
     24427     24430     24433     24435     24427     24430     24433     24436
     24428     24427     24430     24431     24428     24427     24430     24432
     24428     24427     24430     24433     24429     24427     24430     24431
     24429     24427     24430     24432     24429     24427     24430     24433
     24430     24433     24436     24437     24430     24433     24436     24438
     24430     24433     24436     24439     24431     24430     24433     24434
     24431     24430     24433     24435     24431     24430     24433     24436
     24432     24430     24433     24434     24432     24430     24433     24435
     24432     24430     24433     24436     24433     24436     24439     24440
     24433     24436     24439     24441     24433     24436     24439     24442
     24434     24433     24436     24437     24434     24433     24436     24438
     24434     24433     24436     24439     24435     24433     24436     24437
     24435     24433     24436     24438     24435     24433     24436     24439
     24436     24439     24442     24443     24436     24439     24442     24444
     24436     24439     24442     24445     24437     24436     24439     24440
     24437     24436     24439     24441     24437     24436     24439     24442
     24438     24436     24439     24440     24438     24436     24439     24441
     24438     24436     24439     24442     24439     24442     24445     24446
     24439     24442     24445     24447     24439     24442     24445     24448
     24440     24439     24442     24443     24440     24439     24442     24444
     24440     24439     24442     24445     24441     24439     24442     24443
     24441     24439     24442     24444     24441     24439     24442     24445
     24442     24445     24448     24449     24442     24445     24448     24450
     24442     24445     24448     24451     24443     24442     24445     24446
     24443     24442     24445     24447     24443     24442     24445     24448
     24444     24442     24445     24446     24444     24442     24445     24447
     24444     24442     24445     24448     24446     24445     24448     24449
     24446     24445     24448     24450     24446     24445     24448     24451
     24447     24445     24448     24449     24447     24445     24448     24450
     24447     24445     24448     24451     24452     24455     24458     24459
     24452     24455     24458     24460     24452     24455     24458     24461
     24453     24452     24455     24456     24453     24452     24455     24457
     24453     24452     24455     24458     24454     24452     24455     24456
     24454     24452     24455     24457     24454     24452     24455     24458
     24455     24458     24461     24462     24455     24458     24461     24463
     24455     24458     24461     24464     24456     24455     24458     24459
     24456     24455     24458     24460     24456     24455     24458     24461
     24457     24455     24458     24459     24457     24455     24458     24460
     24457     24455     24458     24461     24458     24461     24464     24465
     24458     24461     24464     24466     24458     24461     24464     24467
     24459     24458     24461     24462     24459     24458     24461     24463
     24459     24458     24461     24464     24460     24458     24461     24462
     24460     24458     24461     24463     24460     24458     24461     24464
     24461     24464     24467     24468     24461     24464     24467     24469
     24461     24464     24467     24470     24462     24461     24464     24465
     24462     24461     24464     24466     24462     24461     24464     24467
     24463     24461     24464     24465     24463     24461     24464     24466
     24463     24461     24464     24467     24464     24467     24470     24471
     24464     24467     24470     24472     24464     24467     24470     24473
     24465     24464     24467     24468     24465     24464     24467     24469
     24465     24464     24467     24470     24466     24464     24467     24468
     24466     24464     24467     24469     24466     24464     24467     24470
     24467     24470     24473     24474     24467     24470     24473     24475
     24467     24470     24473     24476     24468     24467     24470     24471
     24468     24467     24470     24472     24468     24467     24470     24473
     24469     24467     24470     24471     24469     24467     24470     24472
     24469     24467     24470     24473     24470     24473     24476     24477
     24470     24473     24476     24478     24470     24473     24476     24479
     24471     24470     24473     24474     24471     24470     24473     24475
     24471     24470     24473     24476     24472     24470     24473     24474
     24472     24470     24473     24475     24472     24470     24473     24476
     24473     24476     24479     24480     24473     24476     24479     24481
     24473     24476     24479     24482     24474     24473     24476     24477
     24474     24473     24476     24478     24474     24473     24476     24479
     24475     24473     24476     24477     24475     24473     24476     24478
     24475     24473     24476     24479     24476     24479     24482     24483
     24476     24479     24482     24484     24476     24479     24482     24485
     24477     24476     24479     24480     24477     24476     24479     24481
     24477     24476     24479     24482     24478     24476     24479     24480
     24478     24476     24479     24481     24478     24476     24479     24482
     24479     24482     24485     24486     24479     24482     24485     24487
     24479     24482     24485     24488     24480     24479     24482     24483
     24480     24479     24482     24484     24480     24479     24482     24485
     24481     24479     24482     24483     24481     24479     24482     24484
     24481     24479     24482     24485     24482     24485     24488     24489
     24482     24485     24488     24490     24482     24485     24488     24491
     24483     24482     24485     24486     24483     24482     24485     24487
     24483     24482     24485     24488     24484     24482     24485     24486
     24484     24482     24485     24487     24484     24482     24485     24488
     24485     24488     24491     24492     24485     24488     24491     24493
     24485     24488     24491     24494     24486     24485     24488     24489
     24486     24485     24488     24490     24486     24485     24488     24491
     24487     24485     24488     24489     24487     24485     24488     24490
     24487     24485     24488     24491     24489     24488     24491     24492
     24489     24488     24491     24493     24489     24488     24491     24494
     24490     24488     24491     24492     24490     24488     24491     24493
     24490     24488     24491     24494     24495     24496     24511     24512
     24495     24496     24511     24513     24495     24496     24511     24517
     24496     24495     24499     24500     24496     24495     24499     24501
     24496     24495     24499     24502     24496     24495     24503     24504
     24496     24495     24503     24505     24496     24495     24503     24506
     24496     24495     24507     24508     24496     24495     24507     24509
     24496     24495     24507     24510     24496     24511     24517     24514
     24497     24496     24495     24499     24497     24496     24495     24503
     24497     24496     24495     24507     24497     24496     24511     24512
     24497     24496     24511     24513     24497     24496     24511     24517
     24498     24496     24495     24499     24498     24496     24495     24503
     24498     24496     24495     24507     24498     24496     24511     24512
     24498     24496     24511     24513     24498     24496     24511     24517
     24499     24495     24496     24511     24499     24495     24503     24504
     24499     24495     24503     24505     24499     24495     24503     24506
     24499     24495     24507     24508     24499     24495     24507     24509
     24499     24495     24507     24510     24500     24499     24495     24503
     24500     24499     24495     24507     24501     24499     24495     24503
     24501     24499     24495     24507     24502     24499     24495     24503
     24502     24499     24495     24507     24503     24495     24496     24511
     24503     24495     24507     24508     24503     24495     24507     24509
     24503     24495     24507     24510     24504     24503     24495     24507
     24505     24503     24495     24507     24506     24503     24495     24507
     24507     24495     24496     24511     24511     24517     24514     24515
     24511     24517     24514     24516     24511     24517     24514     24518
     24512     24511     24517     24514     24513     24511     24517     24514
     24514     24518     24519     24520     24514     24518     24519     24521
     24514     24518     24519     24522     24515     24514     24518     24519
     24516     24514     24518     24519     24517     24514     24518     24519
     24518     24519     24522     24523     24518     24519     24522     24524
     24518     24519     24522     24530     24519     24522     24524     24525
     24519     24522     24530     24531     24519     24522     24530     24532
     24519     24522     24530     24533     24520     24519     24522     24523
     24520     24519     24522     24524     24520     24519     24522     24530
     24521     24519     24522     24523     24521     24519     24522     24524
     24521     24519     24522     24530     24522     24524     24525     24526
     24522     24524     24525     24527     24522     24530     24533     24534
     24523     24522     24524     24525     24523     24522     24530     24531
     24523     24522     24530     24532     24523     24522     24530     24533
     24524     24522     24530     24531     24524     24522     24530     24532
     24524     24522     24530     24533     24524     24525     24527     24528
     24524     24525     24527     24529     24524     24525     24527     24539
     24525     24524     24522     24530     24525     24527     24539     24540
     24525     24527     24539     24541     24525     24527     24539     24542
     24526     24525     24527     24528     24526     24525     24527     24529
     24526     24525     24527     24539     24527     24539     24542     24543
     24527     24539     24542     24544     24527     24539     24542     24545
     24528     24527     24539     24540     24528     24527     24539     24541
     24528     24527     24539     24542     24529     24527     24539     24540
     24529     24527     24539     24541     24529     24527     24539     24542
     24530     24533     24534     24535     24530     24533     24534     24536
     24531     24530     24533     24534     24532     24530     24533     24534
     24533     24534     24536     24537     24533     24534     24536     24538
     24533     24534     24536     24586     24534     24536     24586     24587
     24534     24536     24586     24588     24534     24536     24586     24589
     24535     24534     24536     24537     24535     24534     24536     24538
     24535     24534     24536     24586     24536     24586     24589     24590
     24536     24586     24589     24591     24536     24586     24589     24592
     24537     24536     24586     24587     24537     24536     24586     24588
     24537     24536     24586     24589     24538     24536     24586     24587
     24538     24536     24586     24588     24538     24536     24586     24589
     24539     24542     24545     24546     24539     24542     24545     24547
     24539     24542     24545     24548     24540     24539     24542     24543
     24540     24539     24542     24544     24540     24539     24542     24545
     24541     24539     24542     24543     24541     24539     24542     24544
     24541     24539     24542     24545     24542     24545     24548     24549
     24542     24545     24548     24550     24542     24545     24548     24551
     24543     24542     24545     24546     24543     24542     24545     24547
     24543     24542     24545     24548     24544     24542     24545     24546
     24544     24542     24545     24547     24544     24542     24545     24548
     24545     24548     24551     24552     24545     24548     24551     24553
     24545     24548     24551     24554     24546     24545     24548     24549
     24546     24545     24548     24550     24546     24545     24548     24551
     24547     24545     24548     24549     24547     24545     24548     24550
     24547     24545     24548     24551     24548     24551     24554     24555
     24548     24551     24554     24556     24548     24551     24554     24557
     24549     24548     24551     24552     24549     24548     24551     24553
     24549     24548     24551     24554     24550     24548     24551     24552
     24550     24548     24551     24553     24550     24548     24551     24554
     24551     24554     24557     24558     24551     24554     24557     24559
     24552     24551     24554     24555     24552     24551     24554     24556
     24552     24551     24554     24557     24553     24551     24554     24555
     24553     24551     24554     24556     24553     24551     24554     24557
     24554     24557     24559     24560     24554     24557     24559     24561
     24555     24554     24557     24558     24555     24554     24557     24559
     24556     24554     24557     24558     24556     24554     24557     24559
     24557     24559     24561     24562     24557     24559     24561     24563
     24557     24559     24561     24564     24558     24557     24559     24560
     24558     24557     24559     24561     24559     24561     24564     24565
     24559     24561     24564     24566     24559     24561     24564     24567
     24560     24559     24561     24562     24560     24559     24561     24563
     24560     24559     24561     24564     24561     24564     24567     24568
     24561     24564     24567     24569     24561     24564     24567     24570
     24562     24561     24564     24565     24562     24561     24564     24566
     24562     24561     24564     24567     24563     24561     24564     24565
     24563     24561     24564     24566     24563     24561     24564     24567
     24564     24567     24570     24571     24564     24567     24570     24572
     24564     24567     24570     24573     24565     24564     24567     24568
     24565     24564     24567     24569     24565     24564     24567     24570
     24566     24564     24567     24568     24566     24564     24567     24569
     24566     24564     24567     24570     24567     24570     24573     24574
     24567     24570     24573     24575     24567     24570     24573     24576
     24568     24567     24570     24571     24568     24567     24570     24572
     24568     24567     24570     24573     24569     24567     24570     24571
     24569     24567     24570     24572     24569     24567     24570     24573
     24570     24573     24576     24577     24570     24573     24576     24578
     24570     24573     24576     24579     24571     24570     24573     24574
     24571     24570     24573     24575     24571     24570     24573     24576
     24572     24570     24573     24574     24572     24570     24573     24575
     24572     24570     24573     24576     24573     24576     24579     24580
     24573     24576     24579     24581     24573     24576     24579     24582
     24574     24573     24576     24577     24574     24573     24576     24578
     24574     24573     24576     24579     24575     24573     24576     24577
     24575     24573     24576     24578     24575     24573     24576     24579
     24576     24579     24582     24583     24576     24579     24582     24584
     24576     24579     24582     24585     24577     24576     24579     24580
     24577     24576     24579     24581     24577     24576     24579     24582
     24578     24576     24579     24580     24578     24576     24579     24581
     24578     24576     24579     24582     24580     24579     24582     24583
     24580     24579     24582     24584     24580     24579     24582     24585
     24581     24579     24582     24583     24581     24579     24582     24584
     24581     24579     24582     24585     24586     24589     24592     24593
     24586     24589     24592     24594     24586     24589     24592     24595
     24587     24586     24589     24590     24587     24586     24589     24591
     24587     24586     24589     24592     24588     24586     24589     24590
     24588     24586     24589     24591     24588     24586     24589     24592
     24589     24592     24595     24596     24589     24592     24595     24597
     24589     24592     24595     24598     24590     24589     24592     24593
     24590     24589     24592     24594     24590     24589     24592     24595
     24591     24589     24592     24593     24591     24589     24592     24594
     24591     24589     24592     24595     24592     24595     24598     24599
     24592     24595     24598     24600     24592     24595     24598     24601
     24593     24592     24595     24596     24593     24592     24595     24597
     24593     24592     24595     24598     24594     24592     24595     24596
     24594     24592     24595     24597     24594     24592     24595     24598
     24595     24598     24601     24602     24595     24598     24601     24603
     24595     24598     24601     24604     24596     24595     24598     24599
     24596     24595     24598     24600     24596     24595     24598     24601
     24597     24595     24598     24599     24597     24595     24598     24600
     24597     24595     24598     24601     24598     24601     24604     24605
     24598     24601     24604     24606     24598     24601     24604     24607
     24599     24598     24601     24602     24599     24598     24601     24603
     24599     24598     24601     24604     24600     24598     24601     24602
     24600     24598     24601     24603     24600     24598     24601     24604
     24601     24604     24607     24608     24601     24604     24607     24609
     24601     24604     24607     24610     24602     24601     24604     24605
     24602     24601     24604     24606     24602     24601     24604     24607
     24603     24601     24604     24605     24603     24601     24604     24606
     24603     24601     24604     24607     24604     24607     24610     24611
     24604     24607     24610     24612     24604     24607     24610     24613
     24605     24604     24607     24608     24605     24604     24607     24609
     24605     24604     24607     24610     24606     24604     24607     24608
     24606     24604     24607     24609     24606     24604     24607     24610
     24607     24610     24613     24614     24607     24610     24613     24615
     24607     24610     24613     24616     24608     24607     24610     24611
     24608     24607     24610     24612     24608     24607     24610     24613
     24609     24607     24610     24611     24609     24607     24610     24612
     24609     24607     24610     24613     24610     24613     24616     24617
     24610     24613     24616     24618     24610     24613     24616     24619
     24611     24610     24613     24614     24611     24610     24613     24615
     24611     24610     24613     24616     24612     24610     24613     24614
     24612     24610     24613     24615     24612     24610     24613     24616
     24613     24616     24619     24620     24613     24616     24619     24621
     24613     24616     24619     24622     24614     24613     24616     24617
     24614     24613     24616     24618     24614     24613     24616     24619
     24615     24613     24616     24617     24615     24613     24616     24618
     24615     24613     24616     24619     24616     24619     24622     24623
     24616     24619     24622     24624     24616     24619     24622     24625
     24617     24616     24619     24620     24617     24616     24619     24621
     24617     24616     24619     24622     24618     24616     24619     24620
     24618     24616     24619     24621     24618     24616     24619     24622
     24619     24622     24625     24626     24619     24622     24625     24627
     24619     24622     24625     24628     24620     24619     24622     24623
     24620     24619     24622     24624     24620     24619     24622     24625
     24621     24619     24622     24623     24621     24619     24622     24624
     24621     24619     24622     24625     24623     24622     24625     24626
     24623     24622     24625     24627     24623     24622     24625     24628
     24624     24622     24625     24626     24624     24622     24625     24627
     24624     24622     24625     24628     24629     24630     24645     24646
     24629     24630     24645     24647     24629     24630     24645     24651
     24630     24629     24633     24634     24630     24629     24633     24635
     24630     24629     24633     24636     24630     24629     24637     24638
     24630     24629     24637     24639     24630     24629     24637     24640
     24630     24629     24641     24642     24630     24629     24641     24643
     24630     24629     24641     24644     24630     24645     24651     24648
     24631     24630     24629     24633     24631     24630     24629     24637
     24631     24630     24629     24641     24631     24630     24645     24646
     24631     24630     24645     24647     24631     24630     24645     24651
     24632     24630     24629     24633     24632     24630     24629     24637
     24632     24630     24629     24641     24632     24630     24645     24646
     24632     24630     24645     24647     24632     24630     24645     24651
     24633     24629     24630     24645     24633     24629     24637     24638
     24633     24629     24637     24639     24633     24629     24637     24640
     24633     24629     24641     24642     24633     24629     24641     24643
     24633     24629     24641     24644     24634     24633     24629     24637
     24634     24633     24629     24641     24635     24633     24629     24637
     24635     24633     24629     24641     24636     24633     24629     24637
     24636     24633     24629     24641     24637     24629     24630     24645
     24637     24629     24641     24642     24637     24629     24641     24643
     24637     24629     24641     24644     24638     24637     24629     24641
     24639     24637     24629     24641     24640     24637     24629     24641
     24641     24629     24630     24645     24645     24651     24648     24649
     24645     24651     24648     24650     24645     24651     24648     24652
     24646     24645     24651     24648     24647     24645     24651     24648
     24648     24652     24653     24654     24648     24652     24653     24655
     24648     24652     24653     24656     24649     24648     24652     24653
     24650     24648     24652     24653     24651     24648     24652     24653
     24652     24653     24656     24657     24652     24653     24656     24658
     24652     24653     24656     24664     24653     24656     24658     24659
     24653     24656     24664     24665     24653     24656     24664     24666
     24653     24656     24664     24667     24654     24653     24656     24657
     24654     24653     24656     24658     24654     24653     24656     24664
     24655     24653     24656     24657     24655     24653     24656     24658
     24655     24653     24656     24664     24656     24658     24659     24660
     24656     24658     24659     24661     24656     24664     24667     24668
     24657     24656     24658     24659     24657     24656     24664     24665
     24657     24656     24664     24666     24657     24656     24664     24667
     24658     24656     24664     24665     24658     24656     24664     24666
     24658     24656     24664     24667     24658     24659     24661     24662
     24658     24659     24661     24663     24658     24659     24661     24673
     24659     24658     24656     24664     24659     24661     24673     24674
     24659     24661     24673     24675     24659     24661     24673     24676
     24660     24659     24661     24662     24660     24659     24661     24663
     24660     24659     24661     24673     24661     24673     24676     24677
     24661     24673     24676     24678     24661     24673     24676     24679
     24662     24661     24673     24674     24662     24661     24673     24675
     24662     24661     24673     24676     24663     24661     24673     24674
     24663     24661     24673     24675     24663     24661     24673     24676
     24664     24667     24668     24669     24664     24667     24668     24670
     24665     24664     24667     24668     24666     24664     24667     24668
     24667     24668     24670     24671     24667     24668     24670     24672
     24667     24668     24670     24720     24668     24670     24720     24721
     24668     24670     24720     24722     24668     24670     24720     24723
     24669     24668     24670     24671     24669     24668     24670     24672
     24669     24668     24670     24720     24670     24720     24723     24724
     24670     24720     24723     24725     24670     24720     24723     24726
     24671     24670     24720     24721     24671     24670     24720     24722
     24671     24670     24720     24723     24672     24670     24720     24721
     24672     24670     24720     24722     24672     24670     24720     24723
     24673     24676     24679     24680     24673     24676     24679     24681
     24673     24676     24679     24682     24674     24673     24676     24677
     24674     24673     24676     24678     24674     24673     24676     24679
     24675     24673     24676     24677     24675     24673     24676     24678
     24675     24673     24676     24679     24676     24679     24682     24683
     24676     24679     24682     24684     24676     24679     24682     24685
     24677     24676     24679     24680     24677     24676     24679     24681
     24677     24676     24679     24682     24678     24676     24679     24680
     24678     24676     24679     24681     24678     24676     24679     24682
     24679     24682     24685     24686     24679     24682     24685     24687
     24679     24682     24685     24688     24680     24679     24682     24683
     24680     24679     24682     24684     24680     24679     24682     24685
     24681     24679     24682     24683     24681     24679     24682     24684
     24681     24679     24682     24685     24682     24685     24688     24689
     24682     24685     24688     24690     24682     24685     24688     24691
     24683     24682     24685     24686     24683     24682     24685     24687
     24683     24682     24685     24688     24684     24682     24685     24686
     24684     24682     24685     24687     24684     24682     24685     24688
     24685     24688     24691     24692     24685     24688     24691     24693
     24686     24685     24688     24689     24686     24685     24688     24690
     24686     24685     24688     24691     24687     24685     24688     24689
     24687     24685     24688     24690     24687     24685     24688     24691
     24688     24691     24693     24694     24688     24691     24693     24695
     24689     24688     24691     24692     24689     24688     24691     24693
     24690     24688     24691     24692     24690     24688     24691     24693
     24691     24693     24695     24696     24691     24693     24695     24697
     24691     24693     24695     24698     24692     24691     24693     24694
     24692     24691     24693     24695     24693     24695     24698     24699
     24693     24695     24698     24700     24693     24695     24698     24701
     24694     24693     24695     24696     24694     24693     24695     24697
     24694     24693     24695     24698     24695     24698     24701     24702
     24695     24698     24701     24703     24695     24698     24701     24704
     24696     24695     24698     24699     24696     24695     24698     24700
     24696     24695     24698     24701     24697     24695     24698     24699
     24697     24695     24698     24700     24697     24695     24698     24701
     24698     24701     24704     24705     24698     24701     24704     24706
     24698     24701     24704     24707     24699     24698     24701     24702
     24699     24698     24701     24703     24699     24698     24701     24704
     24700     24698     24701     24702     24700     24698     24701     24703
     24700     24698     24701     24704     24701     24704     24707     24708
     24701     24704     24707     24709     24701     24704     24707     24710
     24702     24701     24704     24705     24702     24701     24704     24706
     24702     24701     24704     24707     24703     24701     24704     24705
     24703     24701     24704     24706     24703     24701     24704     24707
     24704     24707     24710     24711     24704     24707     24710     24712
     24704     24707     24710     24713     24705     24704     24707     24708
     24705     24704     24707     24709     24705     24704     24707     24710
     24706     24704     24707     24708     24706     24704     24707     24709
     24706     24704     24707     24710     24707     24710     24713     24714
     24707     24710     24713     24715     24707     24710     24713     24716
     24708     24707     24710     24711     24708     24707     24710     24712
     24708     24707     24710     24713     24709     24707     24710     24711
     24709     24707     24710     24712     24709     24707     24710     24713
     24710     24713     24716     24717     24710     24713     24716     24718
     24710     24713     24716     24719     24711     24710     24713     24714
     24711     24710     24713     24715     24711     24710     24713     24716
     24712     24710     24713     24714     24712     24710     24713     24715
     24712     24710     24713     24716     24714     24713     24716     24717
     24714     24713     24716     24718     24714     24713     24716     24719
     24715     24713     24716     24717     24715     24713     24716     24718
     24715     24713     24716     24719     24720     24723     24726     24727
     24720     24723     24726     24728     24720     24723     24726     24729
     24721     24720     24723     24724     24721     24720     24723     24725
     24721     24720     24723     24726     24722     24720     24723     24724
     24722     24720     24723     24725     24722     24720     24723     24726
     24723     24726     24729     24730     24723     24726     24729     24731
     24723     24726     24729     24732     24724     24723     24726     24727
     24724     24723     24726     24728     24724     24723     24726     24729
     24725     24723     24726     24727     24725     24723     24726     24728
     24725     24723     24726     24729     24726     24729     24732     24733
     24726     24729     24732     24734     24726     24729     24732     24735
     24727     24726     24729     24730     24727     24726     24729     24731
     24727     24726     24729     24732     24728     24726     24729     24730
     24728     24726     24729     24731     24728     24726     24729     24732
     24729     24732     24735     24736     24729     24732     24735     24737
     24729     24732     24735     24738     24730     24729     24732     24733
     24730     24729     24732     24734     24730     24729     24732     24735
     24731     24729     24732     24733     24731     24729     24732     24734
     24731     24729     24732     24735     24732     24735     24738     24739
     24732     24735     24738     24740     24732     24735     24738     24741
     24733     24732     24735     24736     24733     24732     24735     24737
     24733     24732     24735     24738     24734     24732     24735     24736
     24734     24732     24735     24737     24734     24732     24735     24738
     24735     24738     24741     24742     24735     24738     24741     24743
     24735     24738     24741     24744     24736     24735     24738     24739
     24736     24735     24738     24740     24736     24735     24738     24741
     24737     24735     24738     24739     24737     24735     24738     24740
     24737     24735     24738     24741     24738     24741     24744     24745
     24738     24741     24744     24746     24738     24741     24744     24747
     24739     24738     24741     24742     24739     24738     24741     24743
     24739     24738     24741     24744     24740     24738     24741     24742
     24740     24738     24741     24743     24740     24738     24741     24744
     24741     24744     24747     24748     24741     24744     24747     24749
     24741     24744     24747     24750     24742     24741     24744     24745
     24742     24741     24744     24746     24742     24741     24744     24747
     24743     24741     24744     24745     24743     24741     24744     24746
     24743     24741     24744     24747     24744     24747     24750     24751
     24744     24747     24750     24752     24744     24747     24750     24753
     24745     24744     24747     24748     24745     24744     24747     24749
     24745     24744     24747     24750     24746     24744     24747     24748
     24746     24744     24747     24749     24746     24744     24747     24750
     24747     24750     24753     24754     24747     24750     24753     24755
     24747     24750     24753     24756     24748     24747     24750     24751
     24748     24747     24750     24752     24748     24747     24750     24753
     24749     24747     24750     24751     24749     24747     24750     24752
     24749     24747     24750     24753     24750     24753     24756     24757
     24750     24753     24756     24758     24750     24753     24756     24759
     24751     24750     24753     24754     24751     24750     24753     24755
     24751     24750     24753     24756     24752     24750     24753     24754
     24752     24750     24753     24755     24752     24750     24753     24756
     24753     24756     24759     24760     24753     24756     24759     24761
     24753     24756     24759     24762     24754     24753     24756     24757
     24754     24753     24756     24758     24754     24753     24756     24759
     24755     24753     24756     24757     24755     24753     24756     24758
     24755     24753     24756     24759     24757     24756     24759     24760
     24757     24756     24759     24761     24757     24756     24759     24762
     24758     24756     24759     24760     24758     24756     24759     24761
     24758     24756     24759     24762     24763     24764     24779     24780
     24763     24764     24779     24781     24763     24764     24779     24785
     24764     24763     24767     24768     24764     24763     24767     24769
     24764     24763     24767     24770     24764     24763     24771     24772
     24764     24763     24771     24773     24764     24763     24771     24774
     24764     24763     24775     24776     24764     24763     24775     24777
     24764     24763     24775     24778     24764     24779     24785     24782
     24765     24764     24763     24767     24765     24764     24763     24771
     24765     24764     24763     24775     24765     24764     24779     24780
     24765     24764     24779     24781     24765     24764     24779     24785
     24766     24764     24763     24767     24766     24764     24763     24771
     24766     24764     24763     24775     24766     24764     24779     24780
     24766     24764     24779     24781     24766     24764     24779     24785
     24767     24763     24764     24779     24767     24763     24771     24772
     24767     24763     24771     24773     24767     24763     24771     24774
     24767     24763     24775     24776     24767     24763     24775     24777
     24767     24763     24775     24778     24768     24767     24763     24771
     24768     24767     24763     24775     24769     24767     24763     24771
     24769     24767     24763     24775     24770     24767     24763     24771
     24770     24767     24763     24775     24771     24763     24764     24779
     24771     24763     24775     24776     24771     24763     24775     24777
     24771     24763     24775     24778     24772     24771     24763     24775
     24773     24771     24763     24775     24774     24771     24763     24775
     24775     24763     24764     24779     24779     24785     24782     24783
     24779     24785     24782     24784     24779     24785     24782     24786
     24780     24779     24785     24782     24781     24779     24785     24782
     24782     24786     24787     24788     24782     24786     24787     24789
     24782     24786     24787     24790     24783     24782     24786     24787
     24784     24782     24786     24787     24785     24782     24786     24787
     24786     24787     24790     24791     24786     24787     24790     24792
     24786     24787     24790     24798     24787     24790     24792     24793
     24787     24790     24798     24799     24787     24790     24798     24800
     24787     24790     24798     24801     24788     24787     24790     24791
     24788     24787     24790     24792     24788     24787     24790     24798
     24789     24787     24790     24791     24789     24787     24790     24792
     24789     24787     24790     24798     24790     24792     24793     24794
     24790     24792     24793     24795     24790     24798     24801     24802
     24791     24790     24792     24793     24791     24790     24798     24799
     24791     24790     24798     24800     24791     24790     24798     24801
     24792     24790     24798     24799     24792     24790     24798     24800
     24792     24790     24798     24801     24792     24793     24795     24796
     24792     24793     24795     24797     24792     24793     24795     24807
     24793     24792     24790     24798     24793     24795     24807     24808
     24793     24795     24807     24809     24793     24795     24807     24810
     24794     24793     24795     24796     24794     24793     24795     24797
     24794     24793     24795     24807     24795     24807     24810     24811
     24795     24807     24810     24812     24795     24807     24810     24813
     24796     24795     24807     24808     24796     24795     24807     24809
     24796     24795     24807     24810     24797     24795     24807     24808
     24797     24795     24807     24809     24797     24795     24807     24810
     24798     24801     24802     24803     24798     24801     24802     24804
     24799     24798     24801     24802     24800     24798     24801     24802
     24801     24802     24804     24805     24801     24802     24804     24806
     24801     24802     24804     24854     24802     24804     24854     24855
     24802     24804     24854     24856     24802     24804     24854     24857
     24803     24802     24804     24805     24803     24802     24804     24806
     24803     24802     24804     24854     24804     24854     24857     24858
     24804     24854     24857     24859     24804     24854     24857     24860
     24805     24804     24854     24855     24805     24804     24854     24856
     24805     24804     24854     24857     24806     24804     24854     24855
     24806     24804     24854     24856     24806     24804     24854     24857
     24807     24810     24813     24814     24807     24810     24813     24815
     24807     24810     24813     24816     24808     24807     24810     24811
     24808     24807     24810     24812     24808     24807     24810     24813
     24809     24807     24810     24811     24809     24807     24810     24812
     24809     24807     24810     24813     24810     24813     24816     24817
     24810     24813     24816     24818     24810     24813     24816     24819
     24811     24810     24813     24814     24811     24810     24813     24815
     24811     24810     24813     24816     24812     24810     24813     24814
     24812     24810     24813     24815     24812     24810     24813     24816
     24813     24816     24819     24820     24813     24816     24819     24821
     24813     24816     24819     24822     24814     24813     24816     24817
     24814     24813     24816     24818     24814     24813     24816     24819
     24815     24813     24816     24817     24815     24813     24816     24818
     24815     24813     24816     24819     24816     24819     24822     24823
     24816     24819     24822     24824     24816     24819     24822     24825
     24817     24816     24819     24820     24817     24816     24819     24821
     24817     24816     24819     24822     24818     24816     24819     24820
     24818     24816     24819     24821     24818     24816     24819     24822
     24819     24822     24825     24826     24819     24822     24825     24827
     24820     24819     24822     24823     24820     24819     24822     24824
     24820     24819     24822     24825     24821     24819     24822     24823
     24821     24819     24822     24824     24821     24819     24822     24825
     24822     24825     24827     24828     24822     24825     24827     24829
     24823     24822     24825     24826     24823     24822     24825     24827
     24824     24822     24825     24826     24824     24822     24825     24827
     24825     24827     24829     24830     24825     24827     24829     24831
     24825     24827     24829     24832     24826     24825     24827     24828
     24826     24825     24827     24829     24827     24829     24832     24833
     24827     24829     24832     24834     24827     24829     24832     24835
     24828     24827     24829     24830     24828     24827     24829     24831
     24828     24827     24829     24832     24829     24832     24835     24836
     24829     24832     24835     24837     24829     24832     24835     24838
     24830     24829     24832     24833     24830     24829     24832     24834
     24830     24829     24832     24835     24831     24829     24832     24833
     24831     24829     24832     24834     24831     24829     24832     24835
     24832     24835     24838     24839     24832     24835     24838     24840
     24832     24835     24838     24841     24833     24832     24835     24836
     24833     24832     24835     24837     24833     24832     24835     24838
     24834     24832     24835     24836     24834     24832     24835     24837
     24834     24832     24835     24838     24835     24838     24841     24842
     24835     24838     24841     24843     24835     24838     24841     24844
     24836     24835     24838     24839     24836     24835     24838     24840
     24836     24835     24838     24841     24837     24835     24838     24839
     24837     24835     24838     24840     24837     24835     24838     24841
     24838     24841     24844     24845     24838     24841     24844     24846
     24838     24841     24844     24847     24839     24838     24841     24842
     24839     24838     24841     24843     24839     24838     24841     24844
     24840     24838     24841     24842     24840     24838     24841     24843
     24840     24838     24841     24844     24841     24844     24847     24848
     24841     24844     24847     24849     24841     24844     24847     24850
     24842     24841     24844     24845     24842     24841     24844     24846
     24842     24841     24844     24847     24843     24841     24844     24845
     24843     24841     24844     24846     24843     24841     24844     24847
     24844     24847     24850     24851     24844     24847     24850     24852
     24844     24847     24850     24853     24845     24844     24847     24848
     24845     24844     24847     24849     24845     24844     24847     24850
     24846     24844     24847     24848     24846     24844     24847     24849
     24846     24844     24847     24850     24848     24847     24850     24851
     24848     24847     24850     24852     24848     24847     24850     24853
     24849     24847     24850     24851     24849     24847     24850     24852
     24849     24847     24850     24853     24854     24857     24860     24861
     24854     24857     24860     24862     24854     24857     24860     24863
     24855     24854     24857     24858     24855     24854     24857     24859
     24855     24854     24857     24860     24856     24854     24857     24858
     24856     24854     24857     24859     24856     24854     24857     24860
     24857     24860     24863     24864     24857     24860     24863     24865
     24857     24860     24863     24866     24858     24857     24860     24861
     24858     24857     24860     24862     24858     24857     24860     24863
     24859     24857     24860     24861     24859     24857     24860     24862
     24859     24857     24860     24863     24860     24863     24866     24867
     24860     24863     24866     24868     24860     24863     24866     24869
     24861     24860     24863     24864     24861     24860     24863     24865
     24861     24860     24863     24866     24862     24860     24863     24864
     24862     24860     24863     24865     24862     24860     24863     24866
     24863     24866     24869     24870     24863     24866     24869     24871
     24863     24866     24869     24872     24864     24863     24866     24867
     24864     24863     24866     24868     24864     24863     24866     24869
     24865     24863     24866     24867     24865     24863     24866     24868
     24865     24863     24866     24869     24866     24869     24872     24873
     24866     24869     24872     24874     24866     24869     24872     24875
     24867     24866     24869     24870     24867     24866     24869     24871
     24867     24866     24869     24872     24868     24866     24869     24870
     24868     24866     24869     24871     24868     24866     24869     24872
     24869     24872     24875     24876     24869     24872     24875     24877
     24869     24872     24875     24878     24870     24869     24872     24873
     24870     24869     24872     24874     24870     24869     24872     24875
     24871     24869     24872     24873     24871     24869     24872     24874
     24871     24869     24872     24875     24872     24875     24878     24879
     24872     24875     24878     24880     24872     24875     24878     24881
     24873     24872     24875     24876     24873     24872     24875     24877
     24873     24872     24875     24878     24874     24872     24875     24876
     24874     24872     24875     24877     24874     24872     24875     24878
     24875     24878     24881     24882     24875     24878     24881     24883
     24875     24878     24881     24884     24876     24875     24878     24879
     24876     24875     24878     24880     24876     24875     24878     24881
     24877     24875     24878     24879     24877     24875     24878     24880
     24877     24875     24878     24881     24878     24881     24884     24885
     24878     24881     24884     24886     24878     24881     24884     24887
     24879     24878     24881     24882     24879     24878     24881     24883
     24879     24878     24881     24884     24880     24878     24881     24882
     24880     24878     24881     24883     24880     24878     24881     24884
     24881     24884     24887     24888     24881     24884     24887     24889
     24881     24884     24887     24890     24882     24881     24884     24885
     24882     24881     24884     24886     24882     24881     24884     24887
     24883     24881     24884     24885     24883     24881     24884     24886
     24883     24881     24884     24887     24884     24887     24890     24891
     24884     24887     24890     24892     24884     24887     24890     24893
     24885     24884     24887     24888     24885     24884     24887     24889
     24885     24884     24887     24890     24886     24884     24887     24888
     24886     24884     24887     24889     24886     24884     24887     24890
     24887     24890     24893     24894     24887     24890     24893     24895
     24887     24890     24893     24896     24888     24887     24890     24891
     24888     24887     24890     24892     24888     24887     24890     24893
     24889     24887     24890     24891     24889     24887     24890     24892
     24889     24887     24890     24893     24891     24890     24893     24894
     24891     24890     24893     24895     24891     24890     24893     24896
     24892     24890     24893     24894     24892     24890     24893     24895
     24892     24890     24893     24896     24897     24898     24913     24914
     24897     24898     24913     24915     24897     24898     24913     24919
     24898     24897     24901     24902     24898     24897     24901     24903
     24898     24897     24901     24904     24898     24897     24905     24906
     24898     24897     24905     24907     24898     24897     24905     24908
     24898     24897     24909     24910     24898     24897     24909     24911
     24898     24897     24909     24912     24898     24913     24919     24916
     24899     24898     24897     24901     24899     24898     24897     24905
     24899     24898     24897     24909     24899     24898     24913     24914
     24899     24898     24913     24915     24899     24898     24913     24919
     24900     24898     24897     24901     24900     24898     24897     24905
     24900     24898     24897     24909     24900     24898     24913     24914
     24900     24898     24913     24915     24900     24898     24913     24919
     24901     24897     24898     24913     24901     24897     24905     24906
     24901     24897     24905     24907     24901     24897     24905     24908
     24901     24897     24909     24910     24901     24897     24909     24911
     24901     24897     24909     24912     24902     24901     24897     24905
     24902     24901     24897     24909     24903     24901     24897     24905
     24903     24901     24897     24909     24904     24901     24897     24905
     24904     24901     24897     24909     24905     24897     24898     24913
     24905     24897     24909     24910     24905     24897     24909     24911
     24905     24897     24909     24912     24906     24905     24897     24909
     24907     24905     24897     24909     24908     24905     24897     24909
     24909     24897     24898     24913     24913     24919     24916     24917
     24913     24919     24916     24918     24913     24919     24916     24920
     24914     24913     24919     24916     24915     24913     24919     24916
     24916     24920     24921     24922     24916     24920     24921     24923
     24916     24920     24921     24924     24917     24916     24920     24921
     24918     24916     24920     24921     24919     24916     24920     24921
     24920     24921     24924     24925     24920     24921     24924     24926
     24920     24921     24924     24932     24921     24924     24926     24927
     24921     24924     24932     24933     24921     24924     24932     24934
     24921     24924     24932     24935     24922     24921     24924     24925
     24922     24921     24924     24926     24922     24921     24924     24932
     24923     24921     24924     24925     24923     24921     24924     24926
     24923     24921     24924     24932     24924     24926     24927     24928
     24924     24926     24927     24929     24924     24932     24935     24936
     24925     24924     24926     24927     24925     24924     24932     24933
     24925     24924     24932     24934     24925     24924     24932     24935
     24926     24924     24932     24933     24926     24924     24932     24934
     24926     24924     24932     24935     24926     24927     24929     24930
     24926     24927     24929     24931     24926     24927     24929     24941
     24927     24926     24924     24932     24927     24929     24941     24942
     24927     24929     24941     24943     24927     24929     24941     24944
     24928     24927     24929     24930     24928     24927     24929     24931
     24928     24927     24929     24941     24929     24941     24944     24945
     24929     24941     24944     24946     24929     24941     24944     24947
     24930     24929     24941     24942     24930     24929     24941     24943
     24930     24929     24941     24944     24931     24929     24941     24942
     24931     24929     24941     24943     24931     24929     24941     24944
     24932     24935     24936     24937     24932     24935     24936     24938
     24933     24932     24935     24936     24934     24932     24935     24936
     24935     24936     24938     24939     24935     24936     24938     24940
     24935     24936     24938     24988     24936     24938     24988     24989
     24936     24938     24988     24990     24936     24938     24988     24991
     24937     24936     24938     24939     24937     24936     24938     24940
     24937     24936     24938     24988     24938     24988     24991     24992
     24938     24988     24991     24993     24938     24988     24991     24994
     24939     24938     24988     24989     24939     24938     24988     24990
     24939     24938     24988     24991     24940     24938     24988     24989
     24940     24938     24988     24990     24940     24938     24988     24991
     24941     24944     24947     24948     24941     24944     24947     24949
     24941     24944     24947     24950     24942     24941     24944     24945
     24942     24941     24944     24946     24942     24941     24944     24947
     24943     24941     24944     24945     24943     24941     24944     24946
     24943     24941     24944     24947     24944     24947     24950     24951
     24944     24947     24950     24952     24944     24947     24950     24953
     24945     24944     24947     24948     24945     24944     24947     24949
     24945     24944     24947     24950     24946     24944     24947     24948
     24946     24944     24947     24949     24946     24944     24947     24950
     24947     24950     24953     24954     24947     24950     24953     24955
     24947     24950     24953     24956     24948     24947     24950     24951
     24948     24947     24950     24952     24948     24947     24950     24953
     24949     24947     24950     24951     24949     24947     24950     24952
     24949     24947     24950     24953     24950     24953     24956     24957
     24950     24953     24956     24958     24950     24953     24956     24959
     24951     24950     24953     24954     24951     24950     24953     24955
     24951     24950     24953     24956     24952     24950     24953     24954
     24952     24950     24953     24955     24952     24950     24953     24956
     24953     24956     24959     24960     24953     24956     24959     24961
     24954     24953     24956     24957     24954     24953     24956     24958
     24954     24953     24956     24959     24955     24953     24956     24957
     24955     24953     24956     24958     24955     24953     24956     24959
     24956     24959     24961     24962     24956     24959     24961     24963
     24957     24956     24959     24960     24957     24956     24959     24961
     24958     24956     24959     24960     24958     24956     24959     24961
     24959     24961     24963     24964     24959     24961     24963     24965
     24959     24961     24963     24966     24960     24959     24961     24962
     24960     24959     24961     24963     24961     24963     24966     24967
     24961     24963     24966     24968     24961     24963     24966     24969
     24962     24961     24963     24964     24962     24961     24963     24965
     24962     24961     24963     24966     24963     24966     24969     24970
     24963     24966     24969     24971     24963     24966     24969     24972
     24964     24963     24966     24967     24964     24963     24966     24968
     24964     24963     24966     24969     24965     24963     24966     24967
     24965     24963     24966     24968     24965     24963     24966     24969
     24966     24969     24972     24973     24966     24969     24972     24974
     24966     24969     24972     24975     24967     24966     24969     24970
     24967     24966     24969     24971     24967     24966     24969     24972
     24968     24966     24969     24970     24968     24966     24969     24971
     24968     24966     24969     24972     24969     24972     24975     24976
     24969     24972     24975     24977     24969     24972     24975     24978
     24970     24969     24972     24973     24970     24969     24972     24974
     24970     24969     24972     24975     24971     24969     24972     24973
     24971     24969     24972     24974     24971     24969     24972     24975
     24972     24975     24978     24979     24972     24975     24978     24980
     24972     24975     24978     24981     24973     24972     24975     24976
     24973     24972     24975     24977     24973     24972     24975     24978
     24974     24972     24975     24976     24974     24972     24975     24977
     24974     24972     24975     24978     24975     24978     24981     24982
     24975     24978     24981     24983     24975     24978     24981     24984
     24976     24975     24978     24979     24976     24975     24978     24980
     24976     24975     24978     24981     24977     24975     24978     24979
     24977     24975     24978     24980     24977     24975     24978     24981
     24978     24981     24984     24985     24978     24981     24984     24986
     24978     24981     24984     24987     24979     24978     24981     24982
     24979     24978     24981     24983     24979     24978     24981     24984
     24980     24978     24981     24982     24980     24978     24981     24983
     24980     24978     24981     24984     24982     24981     24984     24985
     24982     24981     24984     24986     24982     24981     24984     24987
     24983     24981     24984     24985     24983     24981     24984     24986
     24983     24981     24984     24987     24988     24991     24994     24995
     24988     24991     24994     24996     24988     24991     24994     24997
     24989     24988     24991     24992     24989     24988     24991     24993
     24989     24988     24991     24994     24990     24988     24991     24992
     24990     24988     24991     24993     24990     24988     24991     24994
     24991     24994     24997     24998     24991     24994     24997     24999
     24991     24994     24997     25000     24992     24991     24994     24995
     24992     24991     24994     24996     24992     24991     24994     24997
     24993     24991     24994     24995     24993     24991     24994     24996
     24993     24991     24994     24997     24994     24997     25000     25001
     24994     24997     25000     25002     24994     24997     25000     25003
     24995     24994     24997     24998     24995     24994     24997     24999
     24995     24994     24997     25000     24996     24994     24997     24998
     24996     24994     24997     24999     24996     24994     24997     25000
     24997     25000     25003     25004     24997     25000     25003     25005
     24997     25000     25003     25006     24998     24997     25000     25001
     24998     24997     25000     25002     24998     24997     25000     25003
     24999     24997     25000     25001     24999     24997     25000     25002
     24999     24997     25000     25003     25000     25003     25006     25007
     25000     25003     25006     25008     25000     25003     25006     25009
     25001     25000     25003     25004     25001     25000     25003     25005
     25001     25000     25003     25006     25002     25000     25003     25004
     25002     25000     25003     25005     25002     25000     25003     25006
     25003     25006     25009     25010     25003     25006     25009     25011
     25003     25006     25009     25012     25004     25003     25006     25007
     25004     25003     25006     25008     25004     25003     25006     25009
     25005     25003     25006     25007     25005     25003     25006     25008
     25005     25003     25006     25009     25006     25009     25012     25013
     25006     25009     25012     25014     25006     25009     25012     25015
     25007     25006     25009     25010     25007     25006     25009     25011
     25007     25006     25009     25012     25008     25006     25009     25010
     25008     25006     25009     25011     25008     25006     25009     25012
     25009     25012     25015     25016     25009     25012     25015     25017
     25009     25012     25015     25018     25010     25009     25012     25013
     25010     25009     25012     25014     25010     25009     25012     25015
     25011     25009     25012     25013     25011     25009     25012     25014
     25011     25009     25012     25015     25012     25015     25018     25019
     25012     25015     25018     25020     25012     25015     25018     25021
     25013     25012     25015     25016     25013     25012     25015     25017
     25013     25012     25015     25018     25014     25012     25015     25016
     25014     25012     25015     25017     25014     25012     25015     25018
     25015     25018     25021     25022     25015     25018     25021     25023
     25015     25018     25021     25024     25016     25015     25018     25019
     25016     25015     25018     25020     25016     25015     25018     25021
     25017     25015     25018     25019     25017     25015     25018     25020
     25017     25015     25018     25021     25018     25021     25024     25025
     25018     25021     25024     25026     25018     25021     25024     25027
     25019     25018     25021     25022     25019     25018     25021     25023
     25019     25018     25021     25024     25020     25018     25021     25022
     25020     25018     25021     25023     25020     25018     25021     25024
     25021     25024     25027     25028     25021     25024     25027     25029
     25021     25024     25027     25030     25022     25021     25024     25025
     25022     25021     25024     25026     25022     25021     25024     25027
     25023     25021     25024     25025     25023     25021     25024     25026
     25023     25021     25024     25027     25025     25024     25027     25028
     25025     25024     25027     25029     25025     25024     25027     25030
     25026     25024     25027     25028     25026     25024     25027     25029
     25026     25024     25027     25030     25031     25032     25047     25048
     25031     25032     25047     25049     25031     25032     25047     25053
     25032     25031     25035     25036     25032     25031     25035     25037
     25032     25031     25035     25038     25032     25031     25039     25040
     25032     25031     25039     25041     25032     25031     25039     25042
     25032     25031     25043     25044     25032     25031     25043     25045
     25032     25031     25043     25046     25032     25047     25053     25050
     25033     25032     25031     25035     25033     25032     25031     25039
     25033     25032     25031     25043     25033     25032     25047     25048
     25033     25032     25047     25049     25033     25032     25047     25053
     25034     25032     25031     25035     25034     25032     25031     25039
     25034     25032     25031     25043     25034     25032     25047     25048
     25034     25032     25047     25049     25034     25032     25047     25053
     25035     25031     25032     25047     25035     25031     25039     25040
     25035     25031     25039     25041     25035     25031     25039     25042
     25035     25031     25043     25044     25035     25031     25043     25045
     25035     25031     25043     25046     25036     25035     25031     25039
     25036     25035     25031     25043     25037     25035     25031     25039
     25037     25035     25031     25043     25038     25035     25031     25039
     25038     25035     25031     25043     25039     25031     25032     25047
     25039     25031     25043     25044     25039     25031     25043     25045
     25039     25031     25043     25046     25040     25039     25031     25043
     25041     25039     25031     25043     25042     25039     25031     25043
     25043     25031     25032     25047     25047     25053     25050     25051
     25047     25053     25050     25052     25047     25053     25050     25054
     25048     25047     25053     25050     25049     25047     25053     25050
     25050     25054     25055     25056     25050     25054     25055     25057
     25050     25054     25055     25058     25051     25050     25054     25055
     25052     25050     25054     25055     25053     25050     25054     25055
     25054     25055     25058     25059     25054     25055     25058     25060
     25054     25055     25058     25066     25055     25058     25060     25061
     25055     25058     25066     25067     25055     25058     25066     25068
     25055     25058     25066     25069     25056     25055     25058     25059
     25056     25055     25058     25060     25056     25055     25058     25066
     25057     25055     25058     25059     25057     25055     25058     25060
     25057     25055     25058     25066     25058     25060     25061     25062
     25058     25060     25061     25063     25058     25066     25069     25070
     25059     25058     25060     25061     25059     25058     25066     25067
     25059     25058     25066     25068     25059     25058     25066     25069
     25060     25058     25066     25067     25060     25058     25066     25068
     25060     25058     25066     25069     25060     25061     25063     25064
     25060     25061     25063     25065     25060     25061     25063     25075
     25061     25060     25058     25066     25061     25063     25075     25076
     25061     25063     25075     25077     25061     25063     25075     25078
     25062     25061     25063     25064     25062     25061     25063     25065
     25062     25061     25063     25075     25063     25075     25078     25079
     25063     25075     25078     25080     25063     25075     25078     25081
     25064     25063     25075     25076     25064     25063     25075     25077
     25064     25063     25075     25078     25065     25063     25075     25076
     25065     25063     25075     25077     25065     25063     25075     25078
     25066     25069     25070     25071     25066     25069     25070     25072
     25067     25066     25069     25070     25068     25066     25069     25070
     25069     25070     25072     25073     25069     25070     25072     25074
     25069     25070     25072     25122     25070     25072     25122     25123
     25070     25072     25122     25124     25070     25072     25122     25125
     25071     25070     25072     25073     25071     25070     25072     25074
     25071     25070     25072     25122     25072     25122     25125     25126
     25072     25122     25125     25127     25072     25122     25125     25128
     25073     25072     25122     25123     25073     25072     25122     25124
     25073     25072     25122     25125     25074     25072     25122     25123
     25074     25072     25122     25124     25074     25072     25122     25125
     25075     25078     25081     25082     25075     25078     25081     25083
     25075     25078     25081     25084     25076     25075     25078     25079
     25076     25075     25078     25080     25076     25075     25078     25081
     25077     25075     25078     25079     25077     25075     25078     25080
     25077     25075     25078     25081     25078     25081     25084     25085
     25078     25081     25084     25086     25078     25081     25084     25087
     25079     25078     25081     25082     25079     25078     25081     25083
     25079     25078     25081     25084     25080     25078     25081     25082
     25080     25078     25081     25083     25080     25078     25081     25084
     25081     25084     25087     25088     25081     25084     25087     25089
     25081     25084     25087     25090     25082     25081     25084     25085
     25082     25081     25084     25086     25082     25081     25084     25087
     25083     25081     25084     25085     25083     25081     25084     25086
     25083     25081     25084     25087     25084     25087     25090     25091
     25084     25087     25090     25092     25084     25087     25090     25093
     25085     25084     25087     25088     25085     25084     25087     25089
     25085     25084     25087     25090     25086     25084     25087     25088
     25086     25084     25087     25089     25086     25084     25087     25090
     25087     25090     25093     25094     25087     25090     25093     25095
     25088     25087     25090     25091     25088     25087     25090     25092
     25088     25087     25090     25093     25089     25087     25090     25091
     25089     25087     25090     25092     25089     25087     25090     25093
     25090     25093     25095     25096     25090     25093     25095     25097
     25091     25090     25093     25094     25091     25090     25093     25095
     25092     25090     25093     25094     25092     25090     25093     25095
     25093     25095     25097     25098     25093     25095     25097     25099
     25093     25095     25097     25100     25094     25093     25095     25096
     25094     25093     25095     25097     25095     25097     25100     25101
     25095     25097     25100     25102     25095     25097     25100     25103
     25096     25095     25097     25098     25096     25095     25097     25099
     25096     25095     25097     25100     25097     25100     25103     25104
     25097     25100     25103     25105     25097     25100     25103     25106
     25098     25097     25100     25101     25098     25097     25100     25102
     25098     25097     25100     25103     25099     25097     25100     25101
     25099     25097     25100     25102     25099     25097     25100     25103
     25100     25103     25106     25107     25100     25103     25106     25108
     25100     25103     25106     25109     25101     25100     25103     25104
     25101     25100     25103     25105     25101     25100     25103     25106
     25102     25100     25103     25104     25102     25100     25103     25105
     25102     25100     25103     25106     25103     25106     25109     25110
     25103     25106     25109     25111     25103     25106     25109     25112
     25104     25103     25106     25107     25104     25103     25106     25108
     25104     25103     25106     25109     25105     25103     25106     25107
     25105     25103     25106     25108     25105     25103     25106     25109
     25106     25109     25112     25113     25106     25109     25112     25114
     25106     25109     25112     25115     25107     25106     25109     25110
     25107     25106     25109     25111     25107     25106     25109     25112
     25108     25106     25109     25110     25108     25106     25109     25111
     25108     25106     25109     25112     25109     25112     25115     25116
     25109     25112     25115     25117     25109     25112     25115     25118
     25110     25109     25112     25113     25110     25109     25112     25114
     25110     25109     25112     25115     25111     25109     25112     25113
     25111     25109     25112     25114     25111     25109     25112     25115
     25112     25115     25118     25119     25112     25115     25118     25120
     25112     25115     25118     25121     25113     25112     25115     25116
     25113     25112     25115     25117     25113     25112     25115     25118
     25114     25112     25115     25116     25114     25112     25115     25117
     25114     25112     25115     25118     25116     25115     25118     25119
     25116     25115     25118     25120     25116     25115     25118     25121
     25117     25115     25118     25119     25117     25115     25118     25120
     25117     25115     25118     25121     25122     25125     25128     25129
     25122     25125     25128     25130     25122     25125     25128     25131
     25123     25122     25125     25126     25123     25122     25125     25127
     25123     25122     25125     25128     25124     25122     25125     25126
     25124     25122     25125     25127     25124     25122     25125     25128
     25125     25128     25131     25132     25125     25128     25131     25133
     25125     25128     25131     25134     25126     25125     25128     25129
     25126     25125     25128     25130     25126     25125     25128     25131
     25127     25125     25128     25129     25127     25125     25128     25130
     25127     25125     25128     25131     25128     25131     25134     25135
     25128     25131     25134     25136     25128     25131     25134     25137
     25129     25128     25131     25132     25129     25128     25131     25133
     25129     25128     25131     25134     25130     25128     25131     25132
     25130     25128     25131     25133     25130     25128     25131     25134
     25131     25134     25137     25138     25131     25134     25137     25139
     25131     25134     25137     25140     25132     25131     25134     25135
     25132     25131     25134     25136     25132     25131     25134     25137
     25133     25131     25134     25135     25133     25131     25134     25136
     25133     25131     25134     25137     25134     25137     25140     25141
     25134     25137     25140     25142     25134     25137     25140     25143
     25135     25134     25137     25138     25135     25134     25137     25139
     25135     25134     25137     25140     25136     25134     25137     25138
     25136     25134     25137     25139     25136     25134     25137     25140
     25137     25140     25143     25144     25137     25140     25143     25145
     25137     25140     25143     25146     25138     25137     25140     25141
     25138     25137     25140     25142     25138     25137     25140     25143
     25139     25137     25140     25141     25139     25137     25140     25142
     25139     25137     25140     25143     25140     25143     25146     25147
     25140     25143     25146     25148     25140     25143     25146     25149
     25141     25140     25143     25144     25141     25140     25143     25145
     25141     25140     25143     25146     25142     25140     25143     25144
     25142     25140     25143     25145     25142     25140     25143     25146
     25143     25146     25149     25150     25143     25146     25149     25151
     25143     25146     25149     25152     25144     25143     25146     25147
     25144     25143     25146     25148     25144     25143     25146     25149
     25145     25143     25146     25147     25145     25143     25146     25148
     25145     25143     25146     25149     25146     25149     25152     25153
     25146     25149     25152     25154     25146     25149     25152     25155
     25147     25146     25149     25150     25147     25146     25149     25151
     25147     25146     25149     25152     25148     25146     25149     25150
     25148     25146     25149     25151     25148     25146     25149     25152
     25149     25152     25155     25156     25149     25152     25155     25157
     25149     25152     25155     25158     25150     25149     25152     25153
     25150     25149     25152     25154     25150     25149     25152     25155
     25151     25149     25152     25153     25151     25149     25152     25154
     25151     25149     25152     25155     25152     25155     25158     25159
     25152     25155     25158     25160     25152     25155     25158     25161
     25153     25152     25155     25156     25153     25152     25155     25157
     25153     25152     25155     25158     25154     25152     25155     25156
     25154     25152     25155     25157     25154     25152     25155     25158
     25155     25158     25161     25162     25155     25158     25161     25163
     25155     25158     25161     25164     25156     25155     25158     25159
     25156     25155     25158     25160     25156     25155     25158     25161
     25157     25155     25158     25159     25157     25155     25158     25160
     25157     25155     25158     25161     25159     25158     25161     25162
     25159     25158     25161     25163     25159     25158     25161     25164
     25160     25158     25161     25162     25160     25158     25161     25163
     25160     25158     25161     25164     25165     25166     25181     25182
     25165     25166     25181     25183     25165     25166     25181     25187
     25166     25165     25169     25170     25166     25165     25169     25171
     25166     25165     25169     25172     25166     25165     25173     25174
     25166     25165     25173     25175     25166     25165     25173     25176
     25166     25165     25177     25178     25166     25165     25177     25179
     25166     25165     25177     25180     25166     25181     25187     25184
     25167     25166     25165     25169     25167     25166     25165     25173
     25167     25166     25165     25177     25167     25166     25181     25182
     25167     25166     25181     25183     25167     25166     25181     25187
     25168     25166     25165     25169     25168     25166     25165     25173
     25168     25166     25165     25177     25168     25166     25181     25182
     25168     25166     25181     25183     25168     25166     25181     25187
     25169     25165     25166     25181     25169     25165     25173     25174
     25169     25165     25173     25175     25169     25165     25173     25176
     25169     25165     25177     25178     25169     25165     25177     25179
     25169     25165     25177     25180     25170     25169     25165     25173
     25170     25169     25165     25177     25171     25169     25165     25173
     25171     25169     25165     25177     25172     25169     25165     25173
     25172     25169     25165     25177     25173     25165     25166     25181
     25173     25165     25177     25178     25173     25165     25177     25179
     25173     25165     25177     25180     25174     25173     25165     25177
     25175     25173     25165     25177     25176     25173     25165     25177
     25177     25165     25166     25181     25181     25187     25184     25185
     25181     25187     25184     25186     25181     25187     25184     25188
     25182     25181     25187     25184     25183     25181     25187     25184
     25184     25188     25189     25190     25184     25188     25189     25191
     25184     25188     25189     25192     25185     25184     25188     25189
     25186     25184     25188     25189     25187     25184     25188     25189
     25188     25189     25192     25193     25188     25189     25192     25194
     25188     25189     25192     25200     25189     25192     25194     25195
     25189     25192     25200     25201     25189     25192     25200     25202
     25189     25192     25200     25203     25190     25189     25192     25193
     25190     25189     25192     25194     25190     25189     25192     25200
     25191     25189     25192     25193     25191     25189     25192     25194
     25191     25189     25192     25200     25192     25194     25195     25196
     25192     25194     25195     25197     25192     25200     25203     25204
     25193     25192     25194     25195     25193     25192     25200     25201
     25193     25192     25200     25202     25193     25192     25200     25203
     25194     25192     25200     25201     25194     25192     25200     25202
     25194     25192     25200     25203     25194     25195     25197     25198
     25194     25195     25197     25199     25194     25195     25197     25209
     25195     25194     25192     25200     25195     25197     25209     25210
     25195     25197     25209     25211     25195     25197     25209     25212
     25196     25195     25197     25198     25196     25195     25197     25199
     25196     25195     25197     25209     25197     25209     25212     25213
     25197     25209     25212     25214     25197     25209     25212     25215
     25198     25197     25209     25210     25198     25197     25209     25211
     25198     25197     25209     25212     25199     25197     25209     25210
     25199     25197     25209     25211     25199     25197     25209     25212
     25200     25203     25204     25205     25200     25203     25204     25206
     25201     25200     25203     25204     25202     25200     25203     25204
     25203     25204     25206     25207     25203     25204     25206     25208
     25203     25204     25206     25256     25204     25206     25256     25257
     25204     25206     25256     25258     25204     25206     25256     25259
     25205     25204     25206     25207     25205     25204     25206     25208
     25205     25204     25206     25256     25206     25256     25259     25260
     25206     25256     25259     25261     25206     25256     25259     25262
     25207     25206     25256     25257     25207     25206     25256     25258
     25207     25206     25256     25259     25208     25206     25256     25257
     25208     25206     25256     25258     25208     25206     25256     25259
     25209     25212     25215     25216     25209     25212     25215     25217
     25209     25212     25215     25218     25210     25209     25212     25213
     25210     25209     25212     25214     25210     25209     25212     25215
     25211     25209     25212     25213     25211     25209     25212     25214
     25211     25209     25212     25215     25212     25215     25218     25219
     25212     25215     25218     25220     25212     25215     25218     25221
     25213     25212     25215     25216     25213     25212     25215     25217
     25213     25212     25215     25218     25214     25212     25215     25216
     25214     25212     25215     25217     25214     25212     25215     25218
     25215     25218     25221     25222     25215     25218     25221     25223
     25215     25218     25221     25224     25216     25215     25218     25219
     25216     25215     25218     25220     25216     25215     25218     25221
     25217     25215     25218     25219     25217     25215     25218     25220
     25217     25215     25218     25221     25218     25221     25224     25225
     25218     25221     25224     25226     25218     25221     25224     25227
     25219     25218     25221     25222     25219     25218     25221     25223
     25219     25218     25221     25224     25220     25218     25221     25222
     25220     25218     25221     25223     25220     25218     25221     25224
     25221     25224     25227     25228     25221     25224     25227     25229
     25222     25221     25224     25225     25222     25221     25224     25226
     25222     25221     25224     25227     25223     25221     25224     25225
     25223     25221     25224     25226     25223     25221     25224     25227
     25224     25227     25229     25230     25224     25227     25229     25231
     25225     25224     25227     25228     25225     25224     25227     25229
     25226     25224     25227     25228     25226     25224     25227     25229
     25227     25229     25231     25232     25227     25229     25231     25233
     25227     25229     25231     25234     25228     25227     25229     25230
     25228     25227     25229     25231     25229     25231     25234     25235
     25229     25231     25234     25236     25229     25231     25234     25237
     25230     25229     25231     25232     25230     25229     25231     25233
     25230     25229     25231     25234     25231     25234     25237     25238
     25231     25234     25237     25239     25231     25234     25237     25240
     25232     25231     25234     25235     25232     25231     25234     25236
     25232     25231     25234     25237     25233     25231     25234     25235
     25233     25231     25234     25236     25233     25231     25234     25237
     25234     25237     25240     25241     25234     25237     25240     25242
     25234     25237     25240     25243     25235     25234     25237     25238
     25235     25234     25237     25239     25235     25234     25237     25240
     25236     25234     25237     25238     25236     25234     25237     25239
     25236     25234     25237     25240     25237     25240     25243     25244
     25237     25240     25243     25245     25237     25240     25243     25246
     25238     25237     25240     25241     25238     25237     25240     25242
     25238     25237     25240     25243     25239     25237     25240     25241
     25239     25237     25240     25242     25239     25237     25240     25243
     25240     25243     25246     25247     25240     25243     25246     25248
     25240     25243     25246     25249     25241     25240     25243     25244
     25241     25240     25243     25245     25241     25240     25243     25246
     25242     25240     25243     25244     25242     25240     25243     25245
     25242     25240     25243     25246     25243     25246     25249     25250
     25243     25246     25249     25251     25243     25246     25249     25252
     25244     25243     25246     25247     25244     25243     25246     25248
     25244     25243     25246     25249     25245     25243     25246     25247
     25245     25243     25246     25248     25245     25243     25246     25249
     25246     25249     25252     25253     25246     25249     25252     25254
     25246     25249     25252     25255     25247     25246     25249     25250
     25247     25246     25249     25251     25247     25246     25249     25252
     25248     25246     25249     25250     25248     25246     25249     25251
     25248     25246     25249     25252     25250     25249     25252     25253
     25250     25249     25252     25254     25250     25249     25252     25255
     25251     25249     25252     25253     25251     25249     25252     25254
     25251     25249     25252     25255     25256     25259     25262     25263
     25256     25259     25262     25264     25256     25259     25262     25265
     25257     25256     25259     25260     25257     25256     25259     25261
     25257     25256     25259     25262     25258     25256     25259     25260
     25258     25256     25259     25261     25258     25256     25259     25262
     25259     25262     25265     25266     25259     25262     25265     25267
     25259     25262     25265     25268     25260     25259     25262     25263
     25260     25259     25262     25264     25260     25259     25262     25265
     25261     25259     25262     25263     25261     25259     25262     25264
     25261     25259     25262     25265     25262     25265     25268     25269
     25262     25265     25268     25270     25262     25265     25268     25271
     25263     25262     25265     25266     25263     25262     25265     25267
     25263     25262     25265     25268     25264     25262     25265     25266
     25264     25262     25265     25267     25264     25262     25265     25268
     25265     25268     25271     25272     25265     25268     25271     25273
     25265     25268     25271     25274     25266     25265     25268     25269
     25266     25265     25268     25270     25266     25265     25268     25271
     25267     25265     25268     25269     25267     25265     25268     25270
     25267     25265     25268     25271     25268     25271     25274     25275
     25268     25271     25274     25276     25268     25271     25274     25277
     25269     25268     25271     25272     25269     25268     25271     25273
     25269     25268     25271     25274     25270     25268     25271     25272
     25270     25268     25271     25273     25270     25268     25271     25274
     25271     25274     25277     25278     25271     25274     25277     25279
     25271     25274     25277     25280     25272     25271     25274     25275
     25272     25271     25274     25276     25272     25271     25274     25277
     25273     25271     25274     25275     25273     25271     25274     25276
     25273     25271     25274     25277     25274     25277     25280     25281
     25274     25277     25280     25282     25274     25277     25280     25283
     25275     25274     25277     25278     25275     25274     25277     25279
     25275     25274     25277     25280     25276     25274     25277     25278
     25276     25274     25277     25279     25276     25274     25277     25280
     25277     25280     25283     25284     25277     25280     25283     25285
     25277     25280     25283     25286     25278     25277     25280     25281
     25278     25277     25280     25282     25278     25277     25280     25283
     25279     25277     25280     25281     25279     25277     25280     25282
     25279     25277     25280     25283     25280     25283     25286     25287
     25280     25283     25286     25288     25280     25283     25286     25289
     25281     25280     25283     25284     25281     25280     25283     25285
     25281     25280     25283     25286     25282     25280     25283     25284
     25282     25280     25283     25285     25282     25280     25283     25286
     25283     25286     25289     25290     25283     25286     25289     25291
     25283     25286     25289     25292     25284     25283     25286     25287
     25284     25283     25286     25288     25284     25283     25286     25289
     25285     25283     25286     25287     25285     25283     25286     25288
     25285     25283     25286     25289     25286     25289     25292     25293
     25286     25289     25292     25294     25286     25289     25292     25295
     25287     25286     25289     25290     25287     25286     25289     25291
     25287     25286     25289     25292     25288     25286     25289     25290
     25288     25286     25289     25291     25288     25286     25289     25292
     25289     25292     25295     25296     25289     25292     25295     25297
     25289     25292     25295     25298     25290     25289     25292     25293
     25290     25289     25292     25294     25290     25289     25292     25295
     25291     25289     25292     25293     25291     25289     25292     25294
     25291     25289     25292     25295     25293     25292     25295     25296
     25293     25292     25295     25297     25293     25292     25295     25298
     25294     25292     25295     25296     25294     25292     25295     25297
     25294     25292     25295     25298     25299     25300     25315     25316
     25299     25300     25315     25317     25299     25300     25315     25321
     25300     25299     25303     25304     25300     25299     25303     25305
     25300     25299     25303     25306     25300     25299     25307     25308
     25300     25299     25307     25309     25300     25299     25307     25310
     25300     25299     25311     25312     25300     25299     25311     25313
     25300     25299     25311     25314     25300     25315     25321     25318
     25301     25300     25299     25303     25301     25300     25299     25307
     25301     25300     25299     25311     25301     25300     25315     25316
     25301     25300     25315     25317     25301     25300     25315     25321
     25302     25300     25299     25303     25302     25300     25299     25307
     25302     25300     25299     25311     25302     25300     25315     25316
     25302     25300     25315     25317     25302     25300     25315     25321
     25303     25299     25300     25315     25303     25299     25307     25308
     25303     25299     25307     25309     25303     25299     25307     25310
     25303     25299     25311     25312     25303     25299     25311     25313
     25303     25299     25311     25314     25304     25303     25299     25307
     25304     25303     25299     25311     25305     25303     25299     25307
     25305     25303     25299     25311     25306     25303     25299     25307
     25306     25303     25299     25311     25307     25299     25300     25315
     25307     25299     25311     25312     25307     25299     25311     25313
     25307     25299     25311     25314     25308     25307     25299     25311
     25309     25307     25299     25311     25310     25307     25299     25311
     25311     25299     25300     25315     25315     25321     25318     25319
     25315     25321     25318     25320     25315     25321     25318     25322
     25316     25315     25321     25318     25317     25315     25321     25318
     25318     25322     25323     25324     25318     25322     25323     25325
     25318     25322     25323     25326     25319     25318     25322     25323
     25320     25318     25322     25323     25321     25318     25322     25323
     25322     25323     25326     25327     25322     25323     25326     25328
     25322     25323     25326     25334     25323     25326     25328     25329
     25323     25326     25334     25335     25323     25326     25334     25336
     25323     25326     25334     25337     25324     25323     25326     25327
     25324     25323     25326     25328     25324     25323     25326     25334
     25325     25323     25326     25327     25325     25323     25326     25328
     25325     25323     25326     25334     25326     25328     25329     25330
     25326     25328     25329     25331     25326     25334     25337     25338
     25327     25326     25328     25329     25327     25326     25334     25335
     25327     25326     25334     25336     25327     25326     25334     25337
     25328     25326     25334     25335     25328     25326     25334     25336
     25328     25326     25334     25337     25328     25329     25331     25332
     25328     25329     25331     25333     25328     25329     25331     25343
     25329     25328     25326     25334     25329     25331     25343     25344
     25329     25331     25343     25345     25329     25331     25343     25346
     25330     25329     25331     25332     25330     25329     25331     25333
     25330     25329     25331     25343     25331     25343     25346     25347
     25331     25343     25346     25348     25331     25343     25346     25349
     25332     25331     25343     25344     25332     25331     25343     25345
     25332     25331     25343     25346     25333     25331     25343     25344
     25333     25331     25343     25345     25333     25331     25343     25346
     25334     25337     25338     25339     25334     25337     25338     25340
     25335     25334     25337     25338     25336     25334     25337     25338
     25337     25338     25340     25341     25337     25338     25340     25342
     25337     25338     25340     25390     25338     25340     25390     25391
     25338     25340     25390     25392     25338     25340     25390     25393
     25339     25338     25340     25341     25339     25338     25340     25342
     25339     25338     25340     25390     25340     25390     25393     25394
     25340     25390     25393     25395     25340     25390     25393     25396
     25341     25340     25390     25391     25341     25340     25390     25392
     25341     25340     25390     25393     25342     25340     25390     25391
     25342     25340     25390     25392     25342     25340     25390     25393
     25343     25346     25349     25350     25343     25346     25349     25351
     25343     25346     25349     25352     25344     25343     25346     25347
     25344     25343     25346     25348     25344     25343     25346     25349
     25345     25343     25346     25347     25345     25343     25346     25348
     25345     25343     25346     25349     25346     25349     25352     25353
     25346     25349     25352     25354     25346     25349     25352     25355
     25347     25346     25349     25350     25347     25346     25349     25351
     25347     25346     25349     25352     25348     25346     25349     25350
     25348     25346     25349     25351     25348     25346     25349     25352
     25349     25352     25355     25356     25349     25352     25355     25357
     25349     25352     25355     25358     25350     25349     25352     25353
     25350     25349     25352     25354     25350     25349     25352     25355
     25351     25349     25352     25353     25351     25349     25352     25354
     25351     25349     25352     25355     25352     25355     25358     25359
     25352     25355     25358     25360     25352     25355     25358     25361
     25353     25352     25355     25356     25353     25352     25355     25357
     25353     25352     25355     25358     25354     25352     25355     25356
     25354     25352     25355     25357     25354     25352     25355     25358
     25355     25358     25361     25362     25355     25358     25361     25363
     25356     25355     25358     25359     25356     25355     25358     25360
     25356     25355     25358     25361     25357     25355     25358     25359
     25357     25355     25358     25360     25357     25355     25358     25361
     25358     25361     25363     25364     25358     25361     25363     25365
     25359     25358     25361     25362     25359     25358     25361     25363
     25360     25358     25361     25362     25360     25358     25361     25363
     25361     25363     25365     25366     25361     25363     25365     25367
     25361     25363     25365     25368     25362     25361     25363     25364
     25362     25361     25363     25365     25363     25365     25368     25369
     25363     25365     25368     25370     25363     25365     25368     25371
     25364     25363     25365     25366     25364     25363     25365     25367
     25364     25363     25365     25368     25365     25368     25371     25372
     25365     25368     25371     25373     25365     25368     25371     25374
     25366     25365     25368     25369     25366     25365     25368     25370
     25366     25365     25368     25371     25367     25365     25368     25369
     25367     25365     25368     25370     25367     25365     25368     25371
     25368     25371     25374     25375     25368     25371     25374     25376
     25368     25371     25374     25377     25369     25368     25371     25372
     25369     25368     25371     25373     25369     25368     25371     25374
     25370     25368     25371     25372     25370     25368     25371     25373
     25370     25368     25371     25374     25371     25374     25377     25378
     25371     25374     25377     25379     25371     25374     25377     25380
     25372     25371     25374     25375     25372     25371     25374     25376
     25372     25371     25374     25377     25373     25371     25374     25375
     25373     25371     25374     25376     25373     25371     25374     25377
     25374     25377     25380     25381     25374     25377     25380     25382
     25374     25377     25380     25383     25375     25374     25377     25378
     25375     25374     25377     25379     25375     25374     25377     25380
     25376     25374     25377     25378     25376     25374     25377     25379
     25376     25374     25377     25380     25377     25380     25383     25384
     25377     25380     25383     25385     25377     25380     25383     25386
     25378     25377     25380     25381     25378     25377     25380     25382
     25378     25377     25380     25383     25379     25377     25380     25381
     25379     25377     25380     25382     25379     25377     25380     25383
     25380     25383     25386     25387     25380     25383     25386     25388
     25380     25383     25386     25389     25381     25380     25383     25384
     25381     25380     25383     25385     25381     25380     25383     25386
     25382     25380     25383     25384     25382     25380     25383     25385
     25382     25380     25383     25386     25384     25383     25386     25387
     25384     25383     25386     25388     25384     25383     25386     25389
     25385     25383     25386     25387     25385     25383     25386     25388
     25385     25383     25386     25389     25390     25393     25396     25397
     25390     25393     25396     25398     25390     25393     25396     25399
     25391     25390     25393     25394     25391     25390     25393     25395
     25391     25390     25393     25396     25392     25390     25393     25394
     25392     25390     25393     25395     25392     25390     25393     25396
     25393     25396     25399     25400     25393     25396     25399     25401
     25393     25396     25399     25402     25394     25393     25396     25397
     25394     25393     25396     25398     25394     25393     25396     25399
     25395     25393     25396     25397     25395     25393     25396     25398
     25395     25393     25396     25399     25396     25399     25402     25403
     25396     25399     25402     25404     25396     25399     25402     25405
     25397     25396     25399     25400     25397     25396     25399     25401
     25397     25396     25399     25402     25398     25396     25399     25400
     25398     25396     25399     25401     25398     25396     25399     25402
     25399     25402     25405     25406     25399     25402     25405     25407
     25399     25402     25405     25408     25400     25399     25402     25403
     25400     25399     25402     25404     25400     25399     25402     25405
     25401     25399     25402     25403     25401     25399     25402     25404
     25401     25399     25402     25405     25402     25405     25408     25409
     25402     25405     25408     25410     25402     25405     25408     25411
     25403     25402     25405     25406     25403     25402     25405     25407
     25403     25402     25405     25408     25404     25402     25405     25406
     25404     25402     25405     25407     25404     25402     25405     25408
     25405     25408     25411     25412     25405     25408     25411     25413
     25405     25408     25411     25414     25406     25405     25408     25409
     25406     25405     25408     25410     25406     25405     25408     25411
     25407     25405     25408     25409     25407     25405     25408     25410
     25407     25405     25408     25411     25408     25411     25414     25415
     25408     25411     25414     25416     25408     25411     25414     25417
     25409     25408     25411     25412     25409     25408     25411     25413
     25409     25408     25411     25414     25410     25408     25411     25412
     25410     25408     25411     25413     25410     25408     25411     25414
     25411     25414     25417     25418     25411     25414     25417     25419
     25411     25414     25417     25420     25412     25411     25414     25415
     25412     25411     25414     25416     25412     25411     25414     25417
     25413     25411     25414     25415     25413     25411     25414     25416
     25413     25411     25414     25417     25414     25417     25420     25421
     25414     25417     25420     25422     25414     25417     25420     25423
     25415     25414     25417     25418     25415     25414     25417     25419
     25415     25414     25417     25420     25416     25414     25417     25418
     25416     25414     25417     25419     25416     25414     25417     25420
     25417     25420     25423     25424     25417     25420     25423     25425
     25417     25420     25423     25426     25418     25417     25420     25421
     25418     25417     25420     25422     25418     25417     25420     25423
     25419     25417     25420     25421     25419     25417     25420     25422
     25419     25417     25420     25423     25420     25423     25426     25427
     25420     25423     25426     25428     25420     25423     25426     25429
     25421     25420     25423     25424     25421     25420     25423     25425
     25421     25420     25423     25426     25422     25420     25423     25424
     25422     25420     25423     25425     25422     25420     25423     25426
     25423     25426     25429     25430     25423     25426     25429     25431
     25423     25426     25429     25432     25424     25423     25426     25427
     25424     25423     25426     25428     25424     25423     25426     25429
     25425     25423     25426     25427     25425     25423     25426     25428
     25425     25423     25426     25429     25427     25426     25429     25430
     25427     25426     25429     25431     25427     25426     25429     25432
     25428     25426     25429     25430     25428     25426     25429     25431
     25428     25426     25429     25432     25433     25434     25449     25450
     25433     25434     25449     25451     25433     25434     25449     25455
     25434     25433     25437     25438     25434     25433     25437     25439
     25434     25433     25437     25440     25434     25433     25441     25442
     25434     25433     25441     25443     25434     25433     25441     25444
     25434     25433     25445     25446     25434     25433     25445     25447
     25434     25433     25445     25448     25434     25449     25455     25452
     25435     25434     25433     25437     25435     25434     25433     25441
     25435     25434     25433     25445     25435     25434     25449     25450
     25435     25434     25449     25451     25435     25434     25449     25455
     25436     25434     25433     25437     25436     25434     25433     25441
     25436     25434     25433     25445     25436     25434     25449     25450
     25436     25434     25449     25451     25436     25434     25449     25455
     25437     25433     25434     25449     25437     25433     25441     25442
     25437     25433     25441     25443     25437     25433     25441     25444
     25437     25433     25445     25446     25437     25433     25445     25447
     25437     25433     25445     25448     25438     25437     25433     25441
     25438     25437     25433     25445     25439     25437     25433     25441
     25439     25437     25433     25445     25440     25437     25433     25441
     25440     25437     25433     25445     25441     25433     25434     25449
     25441     25433     25445     25446     25441     25433     25445     25447
     25441     25433     25445     25448     25442     25441     25433     25445
     25443     25441     25433     25445     25444     25441     25433     25445
     25445     25433     25434     25449     25449     25455     25452     25453
     25449     25455     25452     25454     25449     25455     25452     25456
     25450     25449     25455     25452     25451     25449     25455     25452
     25452     25456     25457     25458     25452     25456     25457     25459
     25452     25456     25457     25460     25453     25452     25456     25457
     25454     25452     25456     25457     25455     25452     25456     25457
     25456     25457     25460     25461     25456     25457     25460     25462
     25456     25457     25460     25468     25457     25460     25462     25463
     25457     25460     25468     25469     25457     25460     25468     25470
     25457     25460     25468     25471     25458     25457     25460     25461
     25458     25457     25460     25462     25458     25457     25460     25468
     25459     25457     25460     25461     25459     25457     25460     25462
     25459     25457     25460     25468     25460     25462     25463     25464
     25460     25462     25463     25465     25460     25468     25471     25472
     25461     25460     25462     25463     25461     25460     25468     25469
     25461     25460     25468     25470     25461     25460     25468     25471
     25462     25460     25468     25469     25462     25460     25468     25470
     25462     25460     25468     25471     25462     25463     25465     25466
     25462     25463     25465     25467     25462     25463     25465     25477
     25463     25462     25460     25468     25463     25465     25477     25478
     25463     25465     25477     25479     25463     25465     25477     25480
     25464     25463     25465     25466     25464     25463     25465     25467
     25464     25463     25465     25477     25465     25477     25480     25481
     25465     25477     25480     25482     25465     25477     25480     25483
     25466     25465     25477     25478     25466     25465     25477     25479
     25466     25465     25477     25480     25467     25465     25477     25478
     25467     25465     25477     25479     25467     25465     25477     25480
     25468     25471     25472     25473     25468     25471     25472     25474
     25469     25468     25471     25472     25470     25468     25471     25472
     25471     25472     25474     25475     25471     25472     25474     25476
     25471     25472     25474     25524     25472     25474     25524     25525
     25472     25474     25524     25526     25472     25474     25524     25527
     25473     25472     25474     25475     25473     25472     25474     25476
     25473     25472     25474     25524     25474     25524     25527     25528
     25474     25524     25527     25529     25474     25524     25527     25530
     25475     25474     25524     25525     25475     25474     25524     25526
     25475     25474     25524     25527     25476     25474     25524     25525
     25476     25474     25524     25526     25476     25474     25524     25527
     25477     25480     25483     25484     25477     25480     25483     25485
     25477     25480     25483     25486     25478     25477     25480     25481
     25478     25477     25480     25482     25478     25477     25480     25483
     25479     25477     25480     25481     25479     25477     25480     25482
     25479     25477     25480     25483     25480     25483     25486     25487
     25480     25483     25486     25488     25480     25483     25486     25489
     25481     25480     25483     25484     25481     25480     25483     25485
     25481     25480     25483     25486     25482     25480     25483     25484
     25482     25480     25483     25485     25482     25480     25483     25486
     25483     25486     25489     25490     25483     25486     25489     25491
     25483     25486     25489     25492     25484     25483     25486     25487
     25484     25483     25486     25488     25484     25483     25486     25489
     25485     25483     25486     25487     25485     25483     25486     25488
     25485     25483     25486     25489     25486     25489     25492     25493
     25486     25489     25492     25494     25486     25489     25492     25495
     25487     25486     25489     25490     25487     25486     25489     25491
     25487     25486     25489     25492     25488     25486     25489     25490
     25488     25486     25489     25491     25488     25486     25489     25492
     25489     25492     25495     25496     25489     25492     25495     25497
     25490     25489     25492     25493     25490     25489     25492     25494
     25490     25489     25492     25495     25491     25489     25492     25493
     25491     25489     25492     25494     25491     25489     25492     25495
     25492     25495     25497     25498     25492     25495     25497     25499
     25493     25492     25495     25496     25493     25492     25495     25497
     25494     25492     25495     25496     25494     25492     25495     25497
     25495     25497     25499     25500     25495     25497     25499     25501
     25495     25497     25499     25502     25496     25495     25497     25498
     25496     25495     25497     25499     25497     25499     25502     25503
     25497     25499     25502     25504     25497     25499     25502     25505
     25498     25497     25499     25500     25498     25497     25499     25501
     25498     25497     25499     25502     25499     25502     25505     25506
     25499     25502     25505     25507     25499     25502     25505     25508
     25500     25499     25502     25503     25500     25499     25502     25504
     25500     25499     25502     25505     25501     25499     25502     25503
     25501     25499     25502     25504     25501     25499     25502     25505
     25502     25505     25508     25509     25502     25505     25508     25510
     25502     25505     25508     25511     25503     25502     25505     25506
     25503     25502     25505     25507     25503     25502     25505     25508
     25504     25502     25505     25506     25504     25502     25505     25507
     25504     25502     25505     25508     25505     25508     25511     25512
     25505     25508     25511     25513     25505     25508     25511     25514
     25506     25505     25508     25509     25506     25505     25508     25510
     25506     25505     25508     25511     25507     25505     25508     25509
     25507     25505     25508     25510     25507     25505     25508     25511
     25508     25511     25514     25515     25508     25511     25514     25516
     25508     25511     25514     25517     25509     25508     25511     25512
     25509     25508     25511     25513     25509     25508     25511     25514
     25510     25508     25511     25512     25510     25508     25511     25513
     25510     25508     25511     25514     25511     25514     25517     25518
     25511     25514     25517     25519     25511     25514     25517     25520
     25512     25511     25514     25515     25512     25511     25514     25516
     25512     25511     25514     25517     25513     25511     25514     25515
     25513     25511     25514     25516     25513     25511     25514     25517
     25514     25517     25520     25521     25514     25517     25520     25522
     25514     25517     25520     25523     25515     25514     25517     25518
     25515     25514     25517     25519     25515     25514     25517     25520
     25516     25514     25517     25518     25516     25514     25517     25519
     25516     25514     25517     25520     25518     25517     25520     25521
     25518     25517     25520     25522     25518     25517     25520     25523
     25519     25517     25520     25521     25519     25517     25520     25522
     25519     25517     25520     25523     25524     25527     25530     25531
     25524     25527     25530     25532     25524     25527     25530     25533
     25525     25524     25527     25528     25525     25524     25527     25529
     25525     25524     25527     25530     25526     25524     25527     25528
     25526     25524     25527     25529     25526     25524     25527     25530
     25527     25530     25533     25534     25527     25530     25533     25535
     25527     25530     25533     25536     25528     25527     25530     25531
     25528     25527     25530     25532     25528     25527     25530     25533
     25529     25527     25530     25531     25529     25527     25530     25532
     25529     25527     25530     25533     25530     25533     25536     25537
     25530     25533     25536     25538     25530     25533     25536     25539
     25531     25530     25533     25534     25531     25530     25533     25535
     25531     25530     25533     25536     25532     25530     25533     25534
     25532     25530     25533     25535     25532     25530     25533     25536
     25533     25536     25539     25540     25533     25536     25539     25541
     25533     25536     25539     25542     25534     25533     25536     25537
     25534     25533     25536     25538     25534     25533     25536     25539
     25535     25533     25536     25537     25535     25533     25536     25538
     25535     25533     25536     25539     25536     25539     25542     25543
     25536     25539     25542     25544     25536     25539     25542     25545
     25537     25536     25539     25540     25537     25536     25539     25541
     25537     25536     25539     25542     25538     25536     25539     25540
     25538     25536     25539     25541     25538     25536     25539     25542
     25539     25542     25545     25546     25539     25542     25545     25547
     25539     25542     25545     25548     25540     25539     25542     25543
     25540     25539     25542     25544     25540     25539     25542     25545
     25541     25539     25542     25543     25541     25539     25542     25544
     25541     25539     25542     25545     25542     25545     25548     25549
     25542     25545     25548     25550     25542     25545     25548     25551
     25543     25542     25545     25546     25543     25542     25545     25547
     25543     25542     25545     25548     25544     25542     25545     25546
     25544     25542     25545     25547     25544     25542     25545     25548
     25545     25548     25551     25552     25545     25548     25551     25553
     25545     25548     25551     25554     25546     25545     25548     25549
     25546     25545     25548     25550     25546     25545     25548     25551
     25547     25545     25548     25549     25547     25545     25548     25550
     25547     25545     25548     25551     25548     25551     25554     25555
     25548     25551     25554     25556     25548     25551     25554     25557
     25549     25548     25551     25552     25549     25548     25551     25553
     25549     25548     25551     25554     25550     25548     25551     25552
     25550     25548     25551     25553     25550     25548     25551     25554
     25551     25554     25557     25558     25551     25554     25557     25559
     25551     25554     25557     25560     25552     25551     25554     25555
     25552     25551     25554     25556     25552     25551     25554     25557
     25553     25551     25554     25555     25553     25551     25554     25556
     25553     25551     25554     25557     25554     25557     25560     25561
     25554     25557     25560     25562     25554     25557     25560     25563
     25555     25554     25557     25558     25555     25554     25557     25559
     25555     25554     25557     25560     25556     25554     25557     25558
     25556     25554     25557     25559     25556     25554     25557     25560
     25557     25560     25563     25564     25557     25560     25563     25565
     25557     25560     25563     25566     25558     25557     25560     25561
     25558     25557     25560     25562     25558     25557     25560     25563
     25559     25557     25560     25561     25559     25557     25560     25562
     25559     25557     25560     25563     25561     25560     25563     25564
     25561     25560     25563     25565     25561     25560     25563     25566
     25562     25560     25563     25564     25562     25560     25563     25565
     25562     25560     25563     25566     25567     25568     25583     25584
     25567     25568     25583     25585     25567     25568     25583     25589
     25568     25567     25571     25572     25568     25567     25571     25573
     25568     25567     25571     25574     25568     25567     25575     25576
     25568     25567     25575     25577     25568     25567     25575     25578
     25568     25567     25579     25580     25568     25567     25579     25581
     25568     25567     25579     25582     25568     25583     25589     25586
     25569     25568     25567     25571     25569     25568     25567     25575
     25569     25568     25567     25579     25569     25568     25583     25584
     25569     25568     25583     25585     25569     25568     25583     25589
     25570     25568     25567     25571     25570     25568     25567     25575
     25570     25568     25567     25579     25570     25568     25583     25584
     25570     25568     25583     25585     25570     25568     25583     25589
     25571     25567     25568     25583     25571     25567     25575     25576
     25571     25567     25575     25577     25571     25567     25575     25578
     25571     25567     25579     25580     25571     25567     25579     25581
     25571     25567     25579     25582     25572     25571     25567     25575
     25572     25571     25567     25579     25573     25571     25567     25575
     25573     25571     25567     25579     25574     25571     25567     25575
     25574     25571     25567     25579     25575     25567     25568     25583
     25575     25567     25579     25580     25575     25567     25579     25581
     25575     25567     25579     25582     25576     25575     25567     25579
     25577     25575     25567     25579     25578     25575     25567     25579
     25579     25567     25568     25583     25583     25589     25586     25587
     25583     25589     25586     25588     25583     25589     25586     25590
     25584     25583     25589     25586     25585     25583     25589     25586
     25586     25590     25591     25592     25586     25590     25591     25593
     25586     25590     25591     25594     25587     25586     25590     25591
     25588     25586     25590     25591     25589     25586     25590     25591
     25590     25591     25594     25595     25590     25591     25594     25596
     25590     25591     25594     25602     25591     25594     25596     25597
     25591     25594     25602     25603     25591     25594     25602     25604
     25591     25594     25602     25605     25592     25591     25594     25595
     25592     25591     25594     25596     25592     25591     25594     25602
     25593     25591     25594     25595     25593     25591     25594     25596
     25593     25591     25594     25602     25594     25596     25597     25598
     25594     25596     25597     25599     25594     25602     25605     25606
     25595     25594     25596     25597     25595     25594     25602     25603
     25595     25594     25602     25604     25595     25594     25602     25605
     25596     25594     25602     25603     25596     25594     25602     25604
     25596     25594     25602     25605     25596     25597     25599     25600
     25596     25597     25599     25601     25596     25597     25599     25611
     25597     25596     25594     25602     25597     25599     25611     25612
     25597     25599     25611     25613     25597     25599     25611     25614
     25598     25597     25599     25600     25598     25597     25599     25601
     25598     25597     25599     25611     25599     25611     25614     25615
     25599     25611     25614     25616     25599     25611     25614     25617
     25600     25599     25611     25612     25600     25599     25611     25613
     25600     25599     25611     25614     25601     25599     25611     25612
     25601     25599     25611     25613     25601     25599     25611     25614
     25602     25605     25606     25607     25602     25605     25606     25608
     25603     25602     25605     25606     25604     25602     25605     25606
     25605     25606     25608     25609     25605     25606     25608     25610
     25605     25606     25608     25658     25606     25608     25658     25659
     25606     25608     25658     25660     25606     25608     25658     25661
     25607     25606     25608     25609     25607     25606     25608     25610
     25607     25606     25608     25658     25608     25658     25661     25662
     25608     25658     25661     25663     25608     25658     25661     25664
     25609     25608     25658     25659     25609     25608     25658     25660
     25609     25608     25658     25661     25610     25608     25658     25659
     25610     25608     25658     25660     25610     25608     25658     25661
     25611     25614     25617     25618     25611     25614     25617     25619
     25611     25614     25617     25620     25612     25611     25614     25615
     25612     25611     25614     25616     25612     25611     25614     25617
     25613     25611     25614     25615     25613     25611     25614     25616
     25613     25611     25614     25617     25614     25617     25620     25621
     25614     25617     25620     25622     25614     25617     25620     25623
     25615     25614     25617     25618     25615     25614     25617     25619
     25615     25614     25617     25620     25616     25614     25617     25618
     25616     25614     25617     25619     25616     25614     25617     25620
     25617     25620     25623     25624     25617     25620     25623     25625
     25617     25620     25623     25626     25618     25617     25620     25621
     25618     25617     25620     25622     25618     25617     25620     25623
     25619     25617     25620     25621     25619     25617     25620     25622
     25619     25617     25620     25623     25620     25623     25626     25627
     25620     25623     25626     25628     25620     25623     25626     25629
     25621     25620     25623     25624     25621     25620     25623     25625
     25621     25620     25623     25626     25622     25620     25623     25624
     25622     25620     25623     25625     25622     25620     25623     25626
     25623     25626     25629     25630     25623     25626     25629     25631
     25624     25623     25626     25627     25624     25623     25626     25628
     25624     25623     25626     25629     25625     25623     25626     25627
     25625     25623     25626     25628     25625     25623     25626     25629
     25626     25629     25631     25632     25626     25629     25631     25633
     25627     25626     25629     25630     25627     25626     25629     25631
     25628     25626     25629     25630     25628     25626     25629     25631
     25629     25631     25633     25634     25629     25631     25633     25635
     25629     25631     25633     25636     25630     25629     25631     25632
     25630     25629     25631     25633     25631     25633     25636     25637
     25631     25633     25636     25638     25631     25633     25636     25639
     25632     25631     25633     25634     25632     25631     25633     25635
     25632     25631     25633     25636     25633     25636     25639     25640
     25633     25636     25639     25641     25633     25636     25639     25642
     25634     25633     25636     25637     25634     25633     25636     25638
     25634     25633     25636     25639     25635     25633     25636     25637
     25635     25633     25636     25638     25635     25633     25636     25639
     25636     25639     25642     25643     25636     25639     25642     25644
     25636     25639     25642     25645     25637     25636     25639     25640
     25637     25636     25639     25641     25637     25636     25639     25642
     25638     25636     25639     25640     25638     25636     25639     25641
     25638     25636     25639     25642     25639     25642     25645     25646
     25639     25642     25645     25647     25639     25642     25645     25648
     25640     25639     25642     25643     25640     25639     25642     25644
     25640     25639     25642     25645     25641     25639     25642     25643
     25641     25639     25642     25644     25641     25639     25642     25645
     25642     25645     25648     25649     25642     25645     25648     25650
     25642     25645     25648     25651     25643     25642     25645     25646
     25643     25642     25645     25647     25643     25642     25645     25648
     25644     25642     25645     25646     25644     25642     25645     25647
     25644     25642     25645     25648     25645     25648     25651     25652
     25645     25648     25651     25653     25645     25648     25651     25654
     25646     25645     25648     25649     25646     25645     25648     25650
     25646     25645     25648     25651     25647     25645     25648     25649
     25647     25645     25648     25650     25647     25645     25648     25651
     25648     25651     25654     25655     25648     25651     25654     25656
     25648     25651     25654     25657     25649     25648     25651     25652
     25649     25648     25651     25653     25649     25648     25651     25654
     25650     25648     25651     25652     25650     25648     25651     25653
     25650     25648     25651     25654     25652     25651     25654     25655
     25652     25651     25654     25656     25652     25651     25654     25657
     25653     25651     25654     25655     25653     25651     25654     25656
     25653     25651     25654     25657     25658     25661     25664     25665
     25658     25661     25664     25666     25658     25661     25664     25667
     25659     25658     25661     25662     25659     25658     25661     25663
     25659     25658     25661     25664     25660     25658     25661     25662
     25660     25658     25661     25663     25660     25658     25661     25664
     25661     25664     25667     25668     25661     25664     25667     25669
     25661     25664     25667     25670     25662     25661     25664     25665
     25662     25661     25664     25666     25662     25661     25664     25667
     25663     25661     25664     25665     25663     25661     25664     25666
     25663     25661     25664     25667     25664     25667     25670     25671
     25664     25667     25670     25672     25664     25667     25670     25673
     25665     25664     25667     25668     25665     25664     25667     25669
     25665     25664     25667     25670     25666     25664     25667     25668
     25666     25664     25667     25669     25666     25664     25667     25670
     25667     25670     25673     25674     25667     25670     25673     25675
     25667     25670     25673     25676     25668     25667     25670     25671
     25668     25667     25670     25672     25668     25667     25670     25673
     25669     25667     25670     25671     25669     25667     25670     25672
     25669     25667     25670     25673     25670     25673     25676     25677
     25670     25673     25676     25678     25670     25673     25676     25679
     25671     25670     25673     25674     25671     25670     25673     25675
     25671     25670     25673     25676     25672     25670     25673     25674
     25672     25670     25673     25675     25672     25670     25673     25676
     25673     25676     25679     25680     25673     25676     25679     25681
     25673     25676     25679     25682     25674     25673     25676     25677
     25674     25673     25676     25678     25674     25673     25676     25679
     25675     25673     25676     25677     25675     25673     25676     25678
     25675     25673     25676     25679     25676     25679     25682     25683
     25676     25679     25682     25684     25676     25679     25682     25685
     25677     25676     25679     25680     25677     25676     25679     25681
     25677     25676     25679     25682     25678     25676     25679     25680
     25678     25676     25679     25681     25678     25676     25679     25682
     25679     25682     25685     25686     25679     25682     25685     25687
     25679     25682     25685     25688     25680     25679     25682     25683
     25680     25679     25682     25684     25680     25679     25682     25685
     25681     25679     25682     25683     25681     25679     25682     25684
     25681     25679     25682     25685     25682     25685     25688     25689
     25682     25685     25688     25690     25682     25685     25688     25691
     25683     25682     25685     25686     25683     25682     25685     25687
     25683     25682     25685     25688     25684     25682     25685     25686
     25684     25682     25685     25687     25684     25682     25685     25688
     25685     25688     25691     25692     25685     25688     25691     25693
     25685     25688     25691     25694     25686     25685     25688     25689
     25686     25685     25688     25690     25686     25685     25688     25691
     25687     25685     25688     25689     25687     25685     25688     25690
     25687     25685     25688     25691     25688     25691     25694     25695
     25688     25691     25694     25696     25688     25691     25694     25697
     25689     25688     25691     25692     25689     25688     25691     25693
     25689     25688     25691     25694     25690     25688     25691     25692
     25690     25688     25691     25693     25690     25688     25691     25694
     25691     25694     25697     25698     25691     25694     25697     25699
     25691     25694     25697     25700     25692     25691     25694     25695
     25692     25691     25694     25696     25692     25691     25694     25697
     25693     25691     25694     25695     25693     25691     25694     25696
     25693     25691     25694     25697     25695     25694     25697     25698
     25695     25694     25697     25699     25695     25694     25697     25700
     25696     25694     25697     25698     25696     25694     25697     25699
     25696     25694     25697     25700     25701     25702     25717     25718
     25701     25702     25717     25719     25701     25702     25717     25723
     25702     25701     25705     25706     25702     25701     25705     25707
     25702     25701     25705     25708     25702     25701     25709     25710
     25702     25701     25709     25711     25702     25701     25709     25712
     25702     25701     25713     25714     25702     25701     25713     25715
     25702     25701     25713     25716     25702     25717     25723     25720
     25703     25702     25701     25705     25703     25702     25701     25709
     25703     25702     25701     25713     25703     25702     25717     25718
     25703     25702     25717     25719     25703     25702     25717     25723
     25704     25702     25701     25705     25704     25702     25701     25709
     25704     25702     25701     25713     25704     25702     25717     25718
     25704     25702     25717     25719     25704     25702     25717     25723
     25705     25701     25702     25717     25705     25701     25709     25710
     25705     25701     25709     25711     25705     25701     25709     25712
     25705     25701     25713     25714     25705     25701     25713     25715
     25705     25701     25713     25716     25706     25705     25701     25709
     25706     25705     25701     25713     25707     25705     25701     25709
     25707     25705     25701     25713     25708     25705     25701     25709
     25708     25705     25701     25713     25709     25701     25702     25717
     25709     25701     25713     25714     25709     25701     25713     25715
     25709     25701     25713     25716     25710     25709     25701     25713
     25711     25709     25701     25713     25712     25709     25701     25713
     25713     25701     25702     25717     25717     25723     25720     25721
     25717     25723     25720     25722     25717     25723     25720     25724
     25718     25717     25723     25720     25719     25717     25723     25720
     25720     25724     25725     25726     25720     25724     25725     25727
     25720     25724     25725     25728     25721     25720     25724     25725
     25722     25720     25724     25725     25723     25720     25724     25725
     25724     25725     25728     25729     25724     25725     25728     25730
     25724     25725     25728     25736     25725     25728     25730     25731
     25725     25728     25736     25737     25725     25728     25736     25738
     25725     25728     25736     25739     25726     25725     25728     25729
     25726     25725     25728     25730     25726     25725     25728     25736
     25727     25725     25728     25729     25727     25725     25728     25730
     25727     25725     25728     25736     25728     25730     25731     25732
     25728     25730     25731     25733     25728     25736     25739     25740
     25729     25728     25730     25731     25729     25728     25736     25737
     25729     25728     25736     25738     25729     25728     25736     25739
     25730     25728     25736     25737     25730     25728     25736     25738
     25730     25728     25736     25739     25730     25731     25733     25734
     25730     25731     25733     25735     25730     25731     25733     25745
     25731     25730     25728     25736     25731     25733     25745     25746
     25731     25733     25745     25747     25731     25733     25745     25748
     25732     25731     25733     25734     25732     25731     25733     25735
     25732     25731     25733     25745     25733     25745     25748     25749
     25733     25745     25748     25750     25733     25745     25748     25751
     25734     25733     25745     25746     25734     25733     25745     25747
     25734     25733     25745     25748     25735     25733     25745     25746
     25735     25733     25745     25747     25735     25733     25745     25748
     25736     25739     25740     25741     25736     25739     25740     25742
     25737     25736     25739     25740     25738     25736     25739     25740
     25739     25740     25742     25743     25739     25740     25742     25744
     25739     25740     25742     25792     25740     25742     25792     25793
     25740     25742     25792     25794     25740     25742     25792     25795
     25741     25740     25742     25743     25741     25740     25742     25744
     25741     25740     25742     25792     25742     25792     25795     25796
     25742     25792     25795     25797     25742     25792     25795     25798
     25743     25742     25792     25793     25743     25742     25792     25794
     25743     25742     25792     25795     25744     25742     25792     25793
     25744     25742     25792     25794     25744     25742     25792     25795
     25745     25748     25751     25752     25745     25748     25751     25753
     25745     25748     25751     25754     25746     25745     25748     25749
     25746     25745     25748     25750     25746     25745     25748     25751
     25747     25745     25748     25749     25747     25745     25748     25750
     25747     25745     25748     25751     25748     25751     25754     25755
     25748     25751     25754     25756     25748     25751     25754     25757
     25749     25748     25751     25752     25749     25748     25751     25753
     25749     25748     25751     25754     25750     25748     25751     25752
     25750     25748     25751     25753     25750     25748     25751     25754
     25751     25754     25757     25758     25751     25754     25757     25759
     25751     25754     25757     25760     25752     25751     25754     25755
     25752     25751     25754     25756     25752     25751     25754     25757
     25753     25751     25754     25755     25753     25751     25754     25756
     25753     25751     25754     25757     25754     25757     25760     25761
     25754     25757     25760     25762     25754     25757     25760     25763
     25755     25754     25757     25758     25755     25754     25757     25759
     25755     25754     25757     25760     25756     25754     25757     25758
     25756     25754     25757     25759     25756     25754     25757     25760
     25757     25760     25763     25764     25757     25760     25763     25765
     25758     25757     25760     25761     25758     25757     25760     25762
     25758     25757     25760     25763     25759     25757     25760     25761
     25759     25757     25760     25762     25759     25757     25760     25763
     25760     25763     25765     25766     25760     25763     25765     25767
     25761     25760     25763     25764     25761     25760     25763     25765
     25762     25760     25763     25764     25762     25760     25763     25765
     25763     25765     25767     25768     25763     25765     25767     25769
     25763     25765     25767     25770     25764     25763     25765     25766
     25764     25763     25765     25767     25765     25767     25770     25771
     25765     25767     25770     25772     25765     25767     25770     25773
     25766     25765     25767     25768     25766     25765     25767     25769
     25766     25765     25767     25770     25767     25770     25773     25774
     25767     25770     25773     25775     25767     25770     25773     25776
     25768     25767     25770     25771     25768     25767     25770     25772
     25768     25767     25770     25773     25769     25767     25770     25771
     25769     25767     25770     25772     25769     25767     25770     25773
     25770     25773     25776     25777     25770     25773     25776     25778
     25770     25773     25776     25779     25771     25770     25773     25774
     25771     25770     25773     25775     25771     25770     25773     25776
     25772     25770     25773     25774     25772     25770     25773     25775
     25772     25770     25773     25776     25773     25776     25779     25780
     25773     25776     25779     25781     25773     25776     25779     25782
     25774     25773     25776     25777     25774     25773     25776     25778
     25774     25773     25776     25779     25775     25773     25776     25777
     25775     25773     25776     25778     25775     25773     25776     25779
     25776     25779     25782     25783     25776     25779     25782     25784
     25776     25779     25782     25785     25777     25776     25779     25780
     25777     25776     25779     25781     25777     25776     25779     25782
     25778     25776     25779     25780     25778     25776     25779     25781
     25778     25776     25779     25782     25779     25782     25785     25786
     25779     25782     25785     25787     25779     25782     25785     25788
     25780     25779     25782     25783     25780     25779     25782     25784
     25780     25779     25782     25785     25781     25779     25782     25783
     25781     25779     25782     25784     25781     25779     25782     25785
     25782     25785     25788     25789     25782     25785     25788     25790
     25782     25785     25788     25791     25783     25782     25785     25786
     25783     25782     25785     25787     25783     25782     25785     25788
     25784     25782     25785     25786     25784     25782     25785     25787
     25784     25782     25785     25788     25786     25785     25788     25789
     25786     25785     25788     25790     25786     25785     25788     25791
     25787     25785     25788     25789     25787     25785     25788     25790
     25787     25785     25788     25791     25792     25795     25798     25799
     25792     25795     25798     25800     25792     25795     25798     25801
     25793     25792     25795     25796     25793     25792     25795     25797
     25793     25792     25795     25798     25794     25792     25795     25796
     25794     25792     25795     25797     25794     25792     25795     25798
     25795     25798     25801     25802     25795     25798     25801     25803
     25795     25798     25801     25804     25796     25795     25798     25799
     25796     25795     25798     25800     25796     25795     25798     25801
     25797     25795     25798     25799     25797     25795     25798     25800
     25797     25795     25798     25801     25798     25801     25804     25805
     25798     25801     25804     25806     25798     25801     25804     25807
     25799     25798     25801     25802     25799     25798     25801     25803
     25799     25798     25801     25804     25800     25798     25801     25802
     25800     25798     25801     25803     25800     25798     25801     25804
     25801     25804     25807     25808     25801     25804     25807     25809
     25801     25804     25807     25810     25802     25801     25804     25805
     25802     25801     25804     25806     25802     25801     25804     25807
     25803     25801     25804     25805     25803     25801     25804     25806
     25803     25801     25804     25807     25804     25807     25810     25811
     25804     25807     25810     25812     25804     25807     25810     25813
     25805     25804     25807     25808     25805     25804     25807     25809
     25805     25804     25807     25810     25806     25804     25807     25808
     25806     25804     25807     25809     25806     25804     25807     25810
     25807     25810     25813     25814     25807     25810     25813     25815
     25807     25810     25813     25816     25808     25807     25810     25811
     25808     25807     25810     25812     25808     25807     25810     25813
     25809     25807     25810     25811     25809     25807     25810     25812
     25809     25807     25810     25813     25810     25813     25816     25817
     25810     25813     25816     25818     25810     25813     25816     25819
     25811     25810     25813     25814     25811     25810     25813     25815
     25811     25810     25813     25816     25812     25810     25813     25814
     25812     25810     25813     25815     25812     25810     25813     25816
     25813     25816     25819     25820     25813     25816     25819     25821
     25813     25816     25819     25822     25814     25813     25816     25817
     25814     25813     25816     25818     25814     25813     25816     25819
     25815     25813     25816     25817     25815     25813     25816     25818
     25815     25813     25816     25819     25816     25819     25822     25823
     25816     25819     25822     25824     25816     25819     25822     25825
     25817     25816     25819     25820     25817     25816     25819     25821
     25817     25816     25819     25822     25818     25816     25819     25820
     25818     25816     25819     25821     25818     25816     25819     25822
     25819     25822     25825     25826     25819     25822     25825     25827
     25819     25822     25825     25828     25820     25819     25822     25823
     25820     25819     25822     25824     25820     25819     25822     25825
     25821     25819     25822     25823     25821     25819     25822     25824
     25821     25819     25822     25825     25822     25825     25828     25829
     25822     25825     25828     25830     25822     25825     25828     25831
     25823     25822     25825     25826     25823     25822     25825     25827
     25823     25822     25825     25828     25824     25822     25825     25826
     25824     25822     25825     25827     25824     25822     25825     25828
     25825     25828     25831     25832     25825     25828     25831     25833
     25825     25828     25831     25834     25826     25825     25828     25829
     25826     25825     25828     25830     25826     25825     25828     25831
     25827     25825     25828     25829     25827     25825     25828     25830
     25827     25825     25828     25831     25829     25828     25831     25832
     25829     25828     25831     25833     25829     25828     25831     25834
     25830     25828     25831     25832     25830     25828     25831     25833
     25830     25828     25831     25834     25835     25836     25851     25852
     25835     25836     25851     25853     25835     25836     25851     25857
     25836     25835     25839     25840     25836     25835     25839     25841
     25836     25835     25839     25842     25836     25835     25843     25844
     25836     25835     25843     25845     25836     25835     25843     25846
     25836     25835     25847     25848     25836     25835     25847     25849
     25836     25835     25847     25850     25836     25851     25857     25854
     25837     25836     25835     25839     25837     25836     25835     25843
     25837     25836     25835     25847     25837     25836     25851     25852
     25837     25836     25851     25853     25837     25836     25851     25857
     25838     25836     25835     25839     25838     25836     25835     25843
     25838     25836     25835     25847     25838     25836     25851     25852
     25838     25836     25851     25853     25838     25836     25851     25857
     25839     25835     25836     25851     25839     25835     25843     25844
     25839     25835     25843     25845     25839     25835     25843     25846
     25839     25835     25847     25848     25839     25835     25847     25849
     25839     25835     25847     25850     25840     25839     25835     25843
     25840     25839     25835     25847     25841     25839     25835     25843
     25841     25839     25835     25847     25842     25839     25835     25843
     25842     25839     25835     25847     25843     25835     25836     25851
     25843     25835     25847     25848     25843     25835     25847     25849
     25843     25835     25847     25850     25844     25843     25835     25847
     25845     25843     25835     25847     25846     25843     25835     25847
     25847     25835     25836     25851     25851     25857     25854     25855
     25851     25857     25854     25856     25851     25857     25854     25858
     25852     25851     25857     25854     25853     25851     25857     25854
     25854     25858     25859     25860     25854     25858     25859     25861
     25854     25858     25859     25862     25855     25854     25858     25859
     25856     25854     25858     25859     25857     25854     25858     25859
     25858     25859     25862     25863     25858     25859     25862     25864
     25858     25859     25862     25870     25859     25862     25864     25865
     25859     25862     25870     25871     25859     25862     25870     25872
     25859     25862     25870     25873     25860     25859     25862     25863
     25860     25859     25862     25864     25860     25859     25862     25870
     25861     25859     25862     25863     25861     25859     25862     25864
     25861     25859     25862     25870     25862     25864     25865     25866
     25862     25864     25865     25867     25862     25870     25873     25874
     25863     25862     25864     25865     25863     25862     25870     25871
     25863     25862     25870     25872     25863     25862     25870     25873
     25864     25862     25870     25871     25864     25862     25870     25872
     25864     25862     25870     25873     25864     25865     25867     25868
     25864     25865     25867     25869     25864     25865     25867     25879
     25865     25864     25862     25870     25865     25867     25879     25880
     25865     25867     25879     25881     25865     25867     25879     25882
     25866     25865     25867     25868     25866     25865     25867     25869
     25866     25865     25867     25879     25867     25879     25882     25883
     25867     25879     25882     25884     25867     25879     25882     25885
     25868     25867     25879     25880     25868     25867     25879     25881
     25868     25867     25879     25882     25869     25867     25879     25880
     25869     25867     25879     25881     25869     25867     25879     25882
     25870     25873     25874     25875     25870     25873     25874     25876
     25871     25870     25873     25874     25872     25870     25873     25874
     25873     25874     25876     25877     25873     25874     25876     25878
     25873     25874     25876     25926     25874     25876     25926     25927
     25874     25876     25926     25928     25874     25876     25926     25929
     25875     25874     25876     25877     25875     25874     25876     25878
     25875     25874     25876     25926     25876     25926     25929     25930
     25876     25926     25929     25931     25876     25926     25929     25932
     25877     25876     25926     25927     25877     25876     25926     25928
     25877     25876     25926     25929     25878     25876     25926     25927
     25878     25876     25926     25928     25878     25876     25926     25929
     25879     25882     25885     25886     25879     25882     25885     25887
     25879     25882     25885     25888     25880     25879     25882     25883
     25880     25879     25882     25884     25880     25879     25882     25885
     25881     25879     25882     25883     25881     25879     25882     25884
     25881     25879     25882     25885     25882     25885     25888     25889
     25882     25885     25888     25890     25882     25885     25888     25891
     25883     25882     25885     25886     25883     25882     25885     25887
     25883     25882     25885     25888     25884     25882     25885     25886
     25884     25882     25885     25887     25884     25882     25885     25888
     25885     25888     25891     25892     25885     25888     25891     25893
     25885     25888     25891     25894     25886     25885     25888     25889
     25886     25885     25888     25890     25886     25885     25888     25891
     25887     25885     25888     25889     25887     25885     25888     25890
     25887     25885     25888     25891     25888     25891     25894     25895
     25888     25891     25894     25896     25888     25891     25894     25897
     25889     25888     25891     25892     25889     25888     25891     25893
     25889     25888     25891     25894     25890     25888     25891     25892
     25890     25888     25891     25893     25890     25888     25891     25894
     25891     25894     25897     25898     25891     25894     25897     25899
     25892     25891     25894     25895     25892     25891     25894     25896
     25892     25891     25894     25897     25893     25891     25894     25895
     25893     25891     25894     25896     25893     25891     25894     25897
     25894     25897     25899     25900     25894     25897     25899     25901
     25895     25894     25897     25898     25895     25894     25897     25899
     25896     25894     25897     25898     25896     25894     25897     25899
     25897     25899     25901     25902     25897     25899     25901     25903
     25897     25899     25901     25904     25898     25897     25899     25900
     25898     25897     25899     25901     25899     25901     25904     25905
     25899     25901     25904     25906     25899     25901     25904     25907
     25900     25899     25901     25902     25900     25899     25901     25903
     25900     25899     25901     25904     25901     25904     25907     25908
     25901     25904     25907     25909     25901     25904     25907     25910
     25902     25901     25904     25905     25902     25901     25904     25906
     25902     25901     25904     25907     25903     25901     25904     25905
     25903     25901     25904     25906     25903     25901     25904     25907
     25904     25907     25910     25911     25904     25907     25910     25912
     25904     25907     25910     25913     25905     25904     25907     25908
     25905     25904     25907     25909     25905     25904     25907     25910
     25906     25904     25907     25908     25906     25904     25907     25909
     25906     25904     25907     25910     25907     25910     25913     25914
     25907     25910     25913     25915     25907     25910     25913     25916
     25908     25907     25910     25911     25908     25907     25910     25912
     25908     25907     25910     25913     25909     25907     25910     25911
     25909     25907     25910     25912     25909     25907     25910     25913
     25910     25913     25916     25917     25910     25913     25916     25918
     25910     25913     25916     25919     25911     25910     25913     25914
     25911     25910     25913     25915     25911     25910     25913     25916
     25912     25910     25913     25914     25912     25910     25913     25915
     25912     25910     25913     25916     25913     25916     25919     25920
     25913     25916     25919     25921     25913     25916     25919     25922
     25914     25913     25916     25917     25914     25913     25916     25918
     25914     25913     25916     25919     25915     25913     25916     25917
     25915     25913     25916     25918     25915     25913     25916     25919
     25916     25919     25922     25923     25916     25919     25922     25924
     25916     25919     25922     25925     25917     25916     25919     25920
     25917     25916     25919     25921     25917     25916     25919     25922
     25918     25916     25919     25920     25918     25916     25919     25921
     25918     25916     25919     25922     25920     25919     25922     25923
     25920     25919     25922     25924     25920     25919     25922     25925
     25921     25919     25922     25923     25921     25919     25922     25924
     25921     25919     25922     25925     25926     25929     25932     25933
     25926     25929     25932     25934     25926     25929     25932     25935
     25927     25926     25929     25930     25927     25926     25929     25931
     25927     25926     25929     25932     25928     25926     25929     25930
     25928     25926     25929     25931     25928     25926     25929     25932
     25929     25932     25935     25936     25929     25932     25935     25937
     25929     25932     25935     25938     25930     25929     25932     25933
     25930     25929     25932     25934     25930     25929     25932     25935
     25931     25929     25932     25933     25931     25929     25932     25934
     25931     25929     25932     25935     25932     25935     25938     25939
     25932     25935     25938     25940     25932     25935     25938     25941
     25933     25932     25935     25936     25933     25932     25935     25937
     25933     25932     25935     25938     25934     25932     25935     25936
     25934     25932     25935     25937     25934     25932     25935     25938
     25935     25938     25941     25942     25935     25938     25941     25943
     25935     25938     25941     25944     25936     25935     25938     25939
     25936     25935     25938     25940     25936     25935     25938     25941
     25937     25935     25938     25939     25937     25935     25938     25940
     25937     25935     25938     25941     25938     25941     25944     25945
     25938     25941     25944     25946     25938     25941     25944     25947
     25939     25938     25941     25942     25939     25938     25941     25943
     25939     25938     25941     25944     25940     25938     25941     25942
     25940     25938     25941     25943     25940     25938     25941     25944
     25941     25944     25947     25948     25941     25944     25947     25949
     25941     25944     25947     25950     25942     25941     25944     25945
     25942     25941     25944     25946     25942     25941     25944     25947
     25943     25941     25944     25945     25943     25941     25944     25946
     25943     25941     25944     25947     25944     25947     25950     25951
     25944     25947     25950     25952     25944     25947     25950     25953
     25945     25944     25947     25948     25945     25944     25947     25949
     25945     25944     25947     25950     25946     25944     25947     25948
     25946     25944     25947     25949     25946     25944     25947     25950
     25947     25950     25953     25954     25947     25950     25953     25955
     25947     25950     25953     25956     25948     25947     25950     25951
     25948     25947     25950     25952     25948     25947     25950     25953
     25949     25947     25950     25951     25949     25947     25950     25952
     25949     25947     25950     25953     25950     25953     25956     25957
     25950     25953     25956     25958     25950     25953     25956     25959
     25951     25950     25953     25954     25951     25950     25953     25955
     25951     25950     25953     25956     25952     25950     25953     25954
     25952     25950     25953     25955     25952     25950     25953     25956
     25953     25956     25959     25960     25953     25956     25959     25961
     25953     25956     25959     25962     25954     25953     25956     25957
     25954     25953     25956     25958     25954     25953     25956     25959
     25955     25953     25956     25957     25955     25953     25956     25958
     25955     25953     25956     25959     25956     25959     25962     25963
     25956     25959     25962     25964     25956     25959     25962     25965
     25957     25956     25959     25960     25957     25956     25959     25961
     25957     25956     25959     25962     25958     25956     25959     25960
     25958     25956     25959     25961     25958     25956     25959     25962
     25959     25962     25965     25966     25959     25962     25965     25967
     25959     25962     25965     25968     25960     25959     25962     25963
     25960     25959     25962     25964     25960     25959     25962     25965
     25961     25959     25962     25963     25961     25959     25962     25964
     25961     25959     25962     25965     25963     25962     25965     25966
     25963     25962     25965     25967     25963     25962     25965     25968
     25964     25962     25965     25966     25964     25962     25965     25967
     25964     25962     25965     25968     25969     25970     25985     25986
     25969     25970     25985     25987     25969     25970     25985     25991
     25970     25969     25973     25974     25970     25969     25973     25975
     25970     25969     25973     25976     25970     25969     25977     25978
     25970     25969     25977     25979     25970     25969     25977     25980
     25970     25969     25981     25982     25970     25969     25981     25983
     25970     25969     25981     25984     25970     25985     25991     25988
     25971     25970     25969     25973     25971     25970     25969     25977
     25971     25970     25969     25981     25971     25970     25985     25986
     25971     25970     25985     25987     25971     25970     25985     25991
     25972     25970     25969     25973     25972     25970     25969     25977
     25972     25970     25969     25981     25972     25970     25985     25986
     25972     25970     25985     25987     25972     25970     25985     25991
     25973     25969     25970     25985     25973     25969     25977     25978
     25973     25969     25977     25979     25973     25969     25977     25980
     25973     25969     25981     25982     25973     25969     25981     25983
     25973     25969     25981     25984     25974     25973     25969     25977
     25974     25973     25969     25981     25975     25973     25969     25977
     25975     25973     25969     25981     25976     25973     25969     25977
     25976     25973     25969     25981     25977     25969     25970     25985
     25977     25969     25981     25982     25977     25969     25981     25983
     25977     25969     25981     25984     25978     25977     25969     25981
     25979     25977     25969     25981     25980     25977     25969     25981
     25981     25969     25970     25985     25985     25991     25988     25989
     25985     25991     25988     25990     25985     25991     25988     25992
     25986     25985     25991     25988     25987     25985     25991     25988
     25988     25992     25993     25994     25988     25992     25993     25995
     25988     25992     25993     25996     25989     25988     25992     25993
     25990     25988     25992     25993     25991     25988     25992     25993
     25992     25993     25996     25997     25992     25993     25996     25998
     25992     25993     25996     26004     25993     25996     25998     25999
     25993     25996     26004     26005     25993     25996     26004     26006
     25993     25996     26004     26007     25994     25993     25996     25997
     25994     25993     25996     25998     25994     25993     25996     26004
     25995     25993     25996     25997     25995     25993     25996     25998
     25995     25993     25996     26004     25996     25998     25999     26000
     25996     25998     25999     26001     25996     26004     26007     26008
     25997     25996     25998     25999     25997     25996     26004     26005
     25997     25996     26004     26006     25997     25996     26004     26007
     25998     25996     26004     26005     25998     25996     26004     26006
     25998     25996     26004     26007     25998     25999     26001     26002
     25998     25999     26001     26003     25998     25999     26001     26013
     25999     25998     25996     26004     25999     26001     26013     26014
     25999     26001     26013     26015     25999     26001     26013     26016
     26000     25999     26001     26002     26000     25999     26001     26003
     26000     25999     26001     26013     26001     26013     26016     26017
     26001     26013     26016     26018     26001     26013     26016     26019
     26002     26001     26013     26014     26002     26001     26013     26015
     26002     26001     26013     26016     26003     26001     26013     26014
     26003     26001     26013     26015     26003     26001     26013     26016
     26004     26007     26008     26009     26004     26007     26008     26010
     26005     26004     26007     26008     26006     26004     26007     26008
     26007     26008     26010     26011     26007     26008     26010     26012
     26007     26008     26010     26060     26008     26010     26060     26061
     26008     26010     26060     26062     26008     26010     26060     26063
     26009     26008     26010     26011     26009     26008     26010     26012
     26009     26008     26010     26060     26010     26060     26063     26064
     26010     26060     26063     26065     26010     26060     26063     26066
     26011     26010     26060     26061     26011     26010     26060     26062
     26011     26010     26060     26063     26012     26010     26060     26061
     26012     26010     26060     26062     26012     26010     26060     26063
     26013     26016     26019     26020     26013     26016     26019     26021
     26013     26016     26019     26022     26014     26013     26016     26017
     26014     26013     26016     26018     26014     26013     26016     26019
     26015     26013     26016     26017     26015     26013     26016     26018
     26015     26013     26016     26019     26016     26019     26022     26023
     26016     26019     26022     26024     26016     26019     26022     26025
     26017     26016     26019     26020     26017     26016     26019     26021
     26017     26016     26019     26022     26018     26016     26019     26020
     26018     26016     26019     26021     26018     26016     26019     26022
     26019     26022     26025     26026     26019     26022     26025     26027
     26019     26022     26025     26028     26020     26019     26022     26023
     26020     26019     26022     26024     26020     26019     26022     26025
     26021     26019     26022     26023     26021     26019     26022     26024
     26021     26019     26022     26025     26022     26025     26028     26029
     26022     26025     26028     26030     26022     26025     26028     26031
     26023     26022     26025     26026     26023     26022     26025     26027
     26023     26022     26025     26028     26024     26022     26025     26026
     26024     26022     26025     26027     26024     26022     26025     26028
     26025     26028     26031     26032     26025     26028     26031     26033
     26026     26025     26028     26029     26026     26025     26028     26030
     26026     26025     26028     26031     26027     26025     26028     26029
     26027     26025     26028     26030     26027     26025     26028     26031
     26028     26031     26033     26034     26028     26031     26033     26035
     26029     26028     26031     26032     26029     26028     26031     26033
     26030     26028     26031     26032     26030     26028     26031     26033
     26031     26033     26035     26036     26031     26033     26035     26037
     26031     26033     26035     26038     26032     26031     26033     26034
     26032     26031     26033     26035     26033     26035     26038     26039
     26033     26035     26038     26040     26033     26035     26038     26041
     26034     26033     26035     26036     26034     26033     26035     26037
     26034     26033     26035     26038     26035     26038     26041     26042
     26035     26038     26041     26043     26035     26038     26041     26044
     26036     26035     26038     26039     26036     26035     26038     26040
     26036     26035     26038     26041     26037     26035     26038     26039
     26037     26035     26038     26040     26037     26035     26038     26041
     26038     26041     26044     26045     26038     26041     26044     26046
     26038     26041     26044     26047     26039     26038     26041     26042
     26039     26038     26041     26043     26039     26038     26041     26044
     26040     26038     26041     26042     26040     26038     26041     26043
     26040     26038     26041     26044     26041     26044     26047     26048
     26041     26044     26047     26049     26041     26044     26047     26050
     26042     26041     26044     26045     26042     26041     26044     26046
     26042     26041     26044     26047     26043     26041     26044     26045
     26043     26041     26044     26046     26043     26041     26044     26047
     26044     26047     26050     26051     26044     26047     26050     26052
     26044     26047     26050     26053     26045     26044     26047     26048
     26045     26044     26047     26049     26045     26044     26047     26050
     26046     26044     26047     26048     26046     26044     26047     26049
     26046     26044     26047     26050     26047     26050     26053     26054
     26047     26050     26053     26055     26047     26050     26053     26056
     26048     26047     26050     26051     26048     26047     26050     26052
     26048     26047     26050     26053     26049     26047     26050     26051
     26049     26047     26050     26052     26049     26047     26050     26053
     26050     26053     26056     26057     26050     26053     26056     26058
     26050     26053     26056     26059     26051     26050     26053     26054
     26051     26050     26053     26055     26051     26050     26053     26056
     26052     26050     26053     26054     26052     26050     26053     26055
     26052     26050     26053     26056     26054     26053     26056     26057
     26054     26053     26056     26058     26054     26053     26056     26059
     26055     26053     26056     26057     26055     26053     26056     26058
     26055     26053     26056     26059     26060     26063     26066     26067
     26060     26063     26066     26068     26060     26063     26066     26069
     26061     26060     26063     26064     26061     26060     26063     26065
     26061     26060     26063     26066     26062     26060     26063     26064
     26062     26060     26063     26065     26062     26060     26063     26066
     26063     26066     26069     26070     26063     26066     26069     26071
     26063     26066     26069     26072     26064     26063     26066     26067
     26064     26063     26066     26068     26064     26063     26066     26069
     26065     26063     26066     26067     26065     26063     26066     26068
     26065     26063     26066     26069     26066     26069     26072     26073
     26066     26069     26072     26074     26066     26069     26072     26075
     26067     26066     26069     26070     26067     26066     26069     26071
     26067     26066     26069     26072     26068     26066     26069     26070
     26068     26066     26069     26071     26068     26066     26069     26072
     26069     26072     26075     26076     26069     26072     26075     26077
     26069     26072     26075     26078     26070     26069     26072     26073
     26070     26069     26072     26074     26070     26069     26072     26075
     26071     26069     26072     26073     26071     26069     26072     26074
     26071     26069     26072     26075     26072     26075     26078     26079
     26072     26075     26078     26080     26072     26075     26078     26081
     26073     26072     26075     26076     26073     26072     26075     26077
     26073     26072     26075     26078     26074     26072     26075     26076
     26074     26072     26075     26077     26074     26072     26075     26078
     26075     26078     26081     26082     26075     26078     26081     26083
     26075     26078     26081     26084     26076     26075     26078     26079
     26076     26075     26078     26080     26076     26075     26078     26081
     26077     26075     26078     26079     26077     26075     26078     26080
     26077     26075     26078     26081     26078     26081     26084     26085
     26078     26081     26084     26086     26078     26081     26084     26087
     26079     26078     26081     26082     26079     26078     26081     26083
     26079     26078     26081     26084     26080     26078     26081     26082
     26080     26078     26081     26083     26080     26078     26081     26084
     26081     26084     26087     26088     26081     26084     26087     26089
     26081     26084     26087     26090     26082     26081     26084     26085
     26082     26081     26084     26086     26082     26081     26084     26087
     26083     26081     26084     26085     26083     26081     26084     26086
     26083     26081     26084     26087     26084     26087     26090     26091
     26084     26087     26090     26092     26084     26087     26090     26093
     26085     26084     26087     26088     26085     26084     26087     26089
     26085     26084     26087     26090     26086     26084     26087     26088
     26086     26084     26087     26089     26086     26084     26087     26090
     26087     26090     26093     26094     26087     26090     26093     26095
     26087     26090     26093     26096     26088     26087     26090     26091
     26088     26087     26090     26092     26088     26087     26090     26093
     26089     26087     26090     26091     26089     26087     26090     26092
     26089     26087     26090     26093     26090     26093     26096     26097
     26090     26093     26096     26098     26090     26093     26096     26099
     26091     26090     26093     26094     26091     26090     26093     26095
     26091     26090     26093     26096     26092     26090     26093     26094
     26092     26090     26093     26095     26092     26090     26093     26096
     26093     26096     26099     26100     26093     26096     26099     26101
     26093     26096     26099     26102     26094     26093     26096     26097
     26094     26093     26096     26098     26094     26093     26096     26099
     26095     26093     26096     26097     26095     26093     26096     26098
     26095     26093     26096     26099     26097     26096     26099     26100
     26097     26096     26099     26101     26097     26096     26099     26102
     26098     26096     26099     26100     26098     26096     26099     26101
     26098     26096     26099     26102     26103     26104     26119     26120
     26103     26104     26119     26121     26103     26104     26119     26125
     26104     26103     26107     26108     26104     26103     26107     26109
     26104     26103     26107     26110     26104     26103     26111     26112
     26104     26103     26111     26113     26104     26103     26111     26114
     26104     26103     26115     26116     26104     26103     26115     26117
     26104     26103     26115     26118     26104     26119     26125     26122
     26105     26104     26103     26107     26105     26104     26103     26111
     26105     26104     26103     26115     26105     26104     26119     26120
     26105     26104     26119     26121     26105     26104     26119     26125
     26106     26104     26103     26107     26106     26104     26103     26111
     26106     26104     26103     26115     26106     26104     26119     26120
     26106     26104     26119     26121     26106     26104     26119     26125
     26107     26103     26104     26119     26107     26103     26111     26112
     26107     26103     26111     26113     26107     26103     26111     26114
     26107     26103     26115     26116     26107     26103     26115     26117
     26107     26103     26115     26118     26108     26107     26103     26111
     26108     26107     26103     26115     26109     26107     26103     26111
     26109     26107     26103     26115     26110     26107     26103     26111
     26110     26107     26103     26115     26111     26103     26104     26119
     26111     26103     26115     26116     26111     26103     26115     26117
     26111     26103     26115     26118     26112     26111     26103     26115
     26113     26111     26103     26115     26114     26111     26103     26115
     26115     26103     26104     26119     26119     26125     26122     26123
     26119     26125     26122     26124     26119     26125     26122     26126
     26120     26119     26125     26122     26121     26119     26125     26122
     26122     26126     26127     26128     26122     26126     26127     26129
     26122     26126     26127     26130     26123     26122     26126     26127
     26124     26122     26126     26127     26125     26122     26126     26127
     26126     26127     26130     26131     26126     26127     26130     26132
     26126     26127     26130     26138     26127     26130     26132     26133
     26127     26130     26138     26139     26127     26130     26138     26140
     26127     26130     26138     26141     26128     26127     26130     26131
     26128     26127     26130     26132     26128     26127     26130     26138
     26129     26127     26130     26131     26129     26127     26130     26132
     26129     26127     26130     26138     26130     26132     26133     26134
     26130     26132     26133     26135     26130     26138     26141     26142
     26131     26130     26132     26133     26131     26130     26138     26139
     26131     26130     26138     26140     26131     26130     26138     26141
     26132     26130     26138     26139     26132     26130     26138     26140
     26132     26130     26138     26141     26132     26133     26135     26136
     26132     26133     26135     26137     26132     26133     26135     26147
     26133     26132     26130     26138     26133     26135     26147     26148
     26133     26135     26147     26149     26133     26135     26147     26150
     26134     26133     26135     26136     26134     26133     26135     26137
     26134     26133     26135     26147     26135     26147     26150     26151
     26135     26147     26150     26152     26135     26147     26150     26153
     26136     26135     26147     26148     26136     26135     26147     26149
     26136     26135     26147     26150     26137     26135     26147     26148
     26137     26135     26147     26149     26137     26135     26147     26150
     26138     26141     26142     26143     26138     26141     26142     26144
     26139     26138     26141     26142     26140     26138     26141     26142
     26141     26142     26144     26145     26141     26142     26144     26146
     26141     26142     26144     26194     26142     26144     26194     26195
     26142     26144     26194     26196     26142     26144     26194     26197
     26143     26142     26144     26145     26143     26142     26144     26146
     26143     26142     26144     26194     26144     26194     26197     26198
     26144     26194     26197     26199     26144     26194     26197     26200
     26145     26144     26194     26195     26145     26144     26194     26196
     26145     26144     26194     26197     26146     26144     26194     26195
     26146     26144     26194     26196     26146     26144     26194     26197
     26147     26150     26153     26154     26147     26150     26153     26155
     26147     26150     26153     26156     26148     26147     26150     26151
     26148     26147     26150     26152     26148     26147     26150     26153
     26149     26147     26150     26151     26149     26147     26150     26152
     26149     26147     26150     26153     26150     26153     26156     26157
     26150     26153     26156     26158     26150     26153     26156     26159
     26151     26150     26153     26154     26151     26150     26153     26155
     26151     26150     26153     26156     26152     26150     26153     26154
     26152     26150     26153     26155     26152     26150     26153     26156
     26153     26156     26159     26160     26153     26156     26159     26161
     26153     26156     26159     26162     26154     26153     26156     26157
     26154     26153     26156     26158     26154     26153     26156     26159
     26155     26153     26156     26157     26155     26153     26156     26158
     26155     26153     26156     26159     26156     26159     26162     26163
     26156     26159     26162     26164     26156     26159     26162     26165
     26157     26156     26159     26160     26157     26156     26159     26161
     26157     26156     26159     26162     26158     26156     26159     26160
     26158     26156     26159     26161     26158     26156     26159     26162
     26159     26162     26165     26166     26159     26162     26165     26167
     26160     26159     26162     26163     26160     26159     26162     26164
     26160     26159     26162     26165     26161     26159     26162     26163
     26161     26159     26162     26164     26161     26159     26162     26165
     26162     26165     26167     26168     26162     26165     26167     26169
     26163     26162     26165     26166     26163     26162     26165     26167
     26164     26162     26165     26166     26164     26162     26165     26167
     26165     26167     26169     26170     26165     26167     26169     26171
     26165     26167     26169     26172     26166     26165     26167     26168
     26166     26165     26167     26169     26167     26169     26172     26173
     26167     26169     26172     26174     26167     26169     26172     26175
     26168     26167     26169     26170     26168     26167     26169     26171
     26168     26167     26169     26172     26169     26172     26175     26176
     26169     26172     26175     26177     26169     26172     26175     26178
     26170     26169     26172     26173     26170     26169     26172     26174
     26170     26169     26172     26175     26171     26169     26172     26173
     26171     26169     26172     26174     26171     26169     26172     26175
     26172     26175     26178     26179     26172     26175     26178     26180
     26172     26175     26178     26181     26173     26172     26175     26176
     26173     26172     26175     26177     26173     26172     26175     26178
     26174     26172     26175     26176     26174     26172     26175     26177
     26174     26172     26175     26178     26175     26178     26181     26182
     26175     26178     26181     26183     26175     26178     26181     26184
     26176     26175     26178     26179     26176     26175     26178     26180
     26176     26175     26178     26181     26177     26175     26178     26179
     26177     26175     26178     26180     26177     26175     26178     26181
     26178     26181     26184     26185     26178     26181     26184     26186
     26178     26181     26184     26187     26179     26178     26181     26182
     26179     26178     26181     26183     26179     26178     26181     26184
     26180     26178     26181     26182     26180     26178     26181     26183
     26180     26178     26181     26184     26181     26184     26187     26188
     26181     26184     26187     26189     26181     26184     26187     26190
     26182     26181     26184     26185     26182     26181     26184     26186
     26182     26181     26184     26187     26183     26181     26184     26185
     26183     26181     26184     26186     26183     26181     26184     26187
     26184     26187     26190     26191     26184     26187     26190     26192
     26184     26187     26190     26193     26185     26184     26187     26188
     26185     26184     26187     26189     26185     26184     26187     26190
     26186     26184     26187     26188     26186     26184     26187     26189
     26186     26184     26187     26190     26188     26187     26190     26191
     26188     26187     26190     26192     26188     26187     26190     26193
     26189     26187     26190     26191     26189     26187     26190     26192
     26189     26187     26190     26193     26194     26197     26200     26201
     26194     26197     26200     26202     26194     26197     26200     26203
     26195     26194     26197     26198     26195     26194     26197     26199
     26195     26194     26197     26200     26196     26194     26197     26198
     26196     26194     26197     26199     26196     26194     26197     26200
     26197     26200     26203     26204     26197     26200     26203     26205
     26197     26200     26203     26206     26198     26197     26200     26201
     26198     26197     26200     26202     26198     26197     26200     26203
     26199     26197     26200     26201     26199     26197     26200     26202
     26199     26197     26200     26203     26200     26203     26206     26207
     26200     26203     26206     26208     26200     26203     26206     26209
     26201     26200     26203     26204     26201     26200     26203     26205
     26201     26200     26203     26206     26202     26200     26203     26204
     26202     26200     26203     26205     26202     26200     26203     26206
     26203     26206     26209     26210     26203     26206     26209     26211
     26203     26206     26209     26212     26204     26203     26206     26207
     26204     26203     26206     26208     26204     26203     26206     26209
     26205     26203     26206     26207     26205     26203     26206     26208
     26205     26203     26206     26209     26206     26209     26212     26213
     26206     26209     26212     26214     26206     26209     26212     26215
     26207     26206     26209     26210     26207     26206     26209     26211
     26207     26206     26209     26212     26208     26206     26209     26210
     26208     26206     26209     26211     26208     26206     26209     26212
     26209     26212     26215     26216     26209     26212     26215     26217
     26209     26212     26215     26218     26210     26209     26212     26213
     26210     26209     26212     26214     26210     26209     26212     26215
     26211     26209     26212     26213     26211     26209     26212     26214
     26211     26209     26212     26215     26212     26215     26218     26219
     26212     26215     26218     26220     26212     26215     26218     26221
     26213     26212     26215     26216     26213     26212     26215     26217
     26213     26212     26215     26218     26214     26212     26215     26216
     26214     26212     26215     26217     26214     26212     26215     26218
     26215     26218     26221     26222     26215     26218     26221     26223
     26215     26218     26221     26224     26216     26215     26218     26219
     26216     26215     26218     26220     26216     26215     26218     26221
     26217     26215     26218     26219     26217     26215     26218     26220
     26217     26215     26218     26221     26218     26221     26224     26225
     26218     26221     26224     26226     26218     26221     26224     26227
     26219     26218     26221     26222     26219     26218     26221     26223
     26219     26218     26221     26224     26220     26218     26221     26222
     26220     26218     26221     26223     26220     26218     26221     26224
     26221     26224     26227     26228     26221     26224     26227     26229
     26221     26224     26227     26230     26222     26221     26224     26225
     26222     26221     26224     26226     26222     26221     26224     26227
     26223     26221     26224     26225     26223     26221     26224     26226
     26223     26221     26224     26227     26224     26227     26230     26231
     26224     26227     26230     26232     26224     26227     26230     26233
     26225     26224     26227     26228     26225     26224     26227     26229
     26225     26224     26227     26230     26226     26224     26227     26228
     26226     26224     26227     26229     26226     26224     26227     26230
     26227     26230     26233     26234     26227     26230     26233     26235
     26227     26230     26233     26236     26228     26227     26230     26231
     26228     26227     26230     26232     26228     26227     26230     26233
     26229     26227     26230     26231     26229     26227     26230     26232
     26229     26227     26230     26233     26231     26230     26233     26234
     26231     26230     26233     26235     26231     26230     26233     26236
     26232     26230     26233     26234     26232     26230     26233     26235
     26232     26230     26233     26236     26237     26238     26253     26254
     26237     26238     26253     26255     26237     26238     26253     26259
     26238     26237     26241     26242     26238     26237     26241     26243
     26238     26237     26241     26244     26238     26237     26245     26246
     26238     26237     26245     26247     26238     26237     26245     26248
     26238     26237     26249     26250     26238     26237     26249     26251
     26238     26237     26249     26252     26238     26253     26259     26256
     26239     26238     26237     26241     26239     26238     26237     26245
     26239     26238     26237     26249     26239     26238     26253     26254
     26239     26238     26253     26255     26239     26238     26253     26259
     26240     26238     26237     26241     26240     26238     26237     26245
     26240     26238     26237     26249     26240     26238     26253     26254
     26240     26238     26253     26255     26240     26238     26253     26259
     26241     26237     26238     26253     26241     26237     26245     26246
     26241     26237     26245     26247     26241     26237     26245     26248
     26241     26237     26249     26250     26241     26237     26249     26251
     26241     26237     26249     26252     26242     26241     26237     26245
     26242     26241     26237     26249     26243     26241     26237     26245
     26243     26241     26237     26249     26244     26241     26237     26245
     26244     26241     26237     26249     26245     26237     26238     26253
     26245     26237     26249     26250     26245     26237     26249     26251
     26245     26237     26249     26252     26246     26245     26237     26249
     26247     26245     26237     26249     26248     26245     26237     26249
     26249     26237     26238     26253     26253     26259     26256     26257
     26253     26259     26256     26258     26253     26259     26256     26260
     26254     26253     26259     26256     26255     26253     26259     26256
     26256     26260     26261     26262     26256     26260     26261     26263
     26256     26260     26261     26264     26257     26256     26260     26261
     26258     26256     26260     26261     26259     26256     26260     26261
     26260     26261     26264     26265     26260     26261     26264     26266
     26260     26261     26264     26272     26261     26264     26266     26267
     26261     26264     26272     26273     26261     26264     26272     26274
     26261     26264     26272     26275     26262     26261     26264     26265
     26262     26261     26264     26266     26262     26261     26264     26272
     26263     26261     26264     26265     26263     26261     26264     26266
     26263     26261     26264     26272     26264     26266     26267     26268
     26264     26266     26267     26269     26264     26272     26275     26276
     26265     26264     26266     26267     26265     26264     26272     26273
     26265     26264     26272     26274     26265     26264     26272     26275
     26266     26264     26272     26273     26266     26264     26272     26274
     26266     26264     26272     26275     26266     26267     26269     26270
     26266     26267     26269     26271     26266     26267     26269     26281
     26267     26266     26264     26272     26267     26269     26281     26282
     26267     26269     26281     26283     26267     26269     26281     26284
     26268     26267     26269     26270     26268     26267     26269     26271
     26268     26267     26269     26281     26269     26281     26284     26285
     26269     26281     26284     26286     26269     26281     26284     26287
     26270     26269     26281     26282     26270     26269     26281     26283
     26270     26269     26281     26284     26271     26269     26281     26282
     26271     26269     26281     26283     26271     26269     26281     26284
     26272     26275     26276     26277     26272     26275     26276     26278
     26273     26272     26275     26276     26274     26272     26275     26276
     26275     26276     26278     26279     26275     26276     26278     26280
     26275     26276     26278     26328     26276     26278     26328     26329
     26276     26278     26328     26330     26276     26278     26328     26331
     26277     26276     26278     26279     26277     26276     26278     26280
     26277     26276     26278     26328     26278     26328     26331     26332
     26278     26328     26331     26333     26278     26328     26331     26334
     26279     26278     26328     26329     26279     26278     26328     26330
     26279     26278     26328     26331     26280     26278     26328     26329
     26280     26278     26328     26330     26280     26278     26328     26331
     26281     26284     26287     26288     26281     26284     26287     26289
     26281     26284     26287     26290     26282     26281     26284     26285
     26282     26281     26284     26286     26282     26281     26284     26287
     26283     26281     26284     26285     26283     26281     26284     26286
     26283     26281     26284     26287     26284     26287     26290     26291
     26284     26287     26290     26292     26284     26287     26290     26293
     26285     26284     26287     26288     26285     26284     26287     26289
     26285     26284     26287     26290     26286     26284     26287     26288
     26286     26284     26287     26289     26286     26284     26287     26290
     26287     26290     26293     26294     26287     26290     26293     26295
     26287     26290     26293     26296     26288     26287     26290     26291
     26288     26287     26290     26292     26288     26287     26290     26293
     26289     26287     26290     26291     26289     26287     26290     26292
     26289     26287     26290     26293     26290     26293     26296     26297
     26290     26293     26296     26298     26290     26293     26296     26299
     26291     26290     26293     26294     26291     26290     26293     26295
     26291     26290     26293     26296     26292     26290     26293     26294
     26292     26290     26293     26295     26292     26290     26293     26296
     26293     26296     26299     26300     26293     26296     26299     26301
     26294     26293     26296     26297     26294     26293     26296     26298
     26294     26293     26296     26299     26295     26293     26296     26297
     26295     26293     26296     26298     26295     26293     26296     26299
     26296     26299     26301     26302     26296     26299     26301     26303
     26297     26296     26299     26300     26297     26296     26299     26301
     26298     26296     26299     26300     26298     26296     26299     26301
     26299     26301     26303     26304     26299     26301     26303     26305
     26299     26301     26303     26306     26300     26299     26301     26302
     26300     26299     26301     26303     26301     26303     26306     26307
     26301     26303     26306     26308     26301     26303     26306     26309
     26302     26301     26303     26304     26302     26301     26303     26305
     26302     26301     26303     26306     26303     26306     26309     26310
     26303     26306     26309     26311     26303     26306     26309     26312
     26304     26303     26306     26307     26304     26303     26306     26308
     26304     26303     26306     26309     26305     26303     26306     26307
     26305     26303     26306     26308     26305     26303     26306     26309
     26306     26309     26312     26313     26306     26309     26312     26314
     26306     26309     26312     26315     26307     26306     26309     26310
     26307     26306     26309     26311     26307     26306     26309     26312
     26308     26306     26309     26310     26308     26306     26309     26311
     26308     26306     26309     26312     26309     26312     26315     26316
     26309     26312     26315     26317     26309     26312     26315     26318
     26310     26309     26312     26313     26310     26309     26312     26314
     26310     26309     26312     26315     26311     26309     26312     26313
     26311     26309     26312     26314     26311     26309     26312     26315
     26312     26315     26318     26319     26312     26315     26318     26320
     26312     26315     26318     26321     26313     26312     26315     26316
     26313     26312     26315     26317     26313     26312     26315     26318
     26314     26312     26315     26316     26314     26312     26315     26317
     26314     26312     26315     26318     26315     26318     26321     26322
     26315     26318     26321     26323     26315     26318     26321     26324
     26316     26315     26318     26319     26316     26315     26318     26320
     26316     26315     26318     26321     26317     26315     26318     26319
     26317     26315     26318     26320     26317     26315     26318     26321
     26318     26321     26324     26325     26318     26321     26324     26326
     26318     26321     26324     26327     26319     26318     26321     26322
     26319     26318     26321     26323     26319     26318     26321     26324
     26320     26318     26321     26322     26320     26318     26321     26323
     26320     26318     26321     26324     26322     26321     26324     26325
     26322     26321     26324     26326     26322     26321     26324     26327
     26323     26321     26324     26325     26323     26321     26324     26326
     26323     26321     26324     26327     26328     26331     26334     26335
     26328     26331     26334     26336     26328     26331     26334     26337
     26329     26328     26331     26332     26329     26328     26331     26333
     26329     26328     26331     26334     26330     26328     26331     26332
     26330     26328     26331     26333     26330     26328     26331     26334
     26331     26334     26337     26338     26331     26334     26337     26339
     26331     26334     26337     26340     26332     26331     26334     26335
     26332     26331     26334     26336     26332     26331     26334     26337
     26333     26331     26334     26335     26333     26331     26334     26336
     26333     26331     26334     26337     26334     26337     26340     26341
     26334     26337     26340     26342     26334     26337     26340     26343
     26335     26334     26337     26338     26335     26334     26337     26339
     26335     26334     26337     26340     26336     26334     26337     26338
     26336     26334     26337     26339     26336     26334     26337     26340
     26337     26340     26343     26344     26337     26340     26343     26345
     26337     26340     26343     26346     26338     26337     26340     26341
     26338     26337     26340     26342     26338     26337     26340     26343
     26339     26337     26340     26341     26339     26337     26340     26342
     26339     26337     26340     26343     26340     26343     26346     26347
     26340     26343     26346     26348     26340     26343     26346     26349
     26341     26340     26343     26344     26341     26340     26343     26345
     26341     26340     26343     26346     26342     26340     26343     26344
     26342     26340     26343     26345     26342     26340     26343     26346
     26343     26346     26349     26350     26343     26346     26349     26351
     26343     26346     26349     26352     26344     26343     26346     26347
     26344     26343     26346     26348     26344     26343     26346     26349
     26345     26343     26346     26347     26345     26343     26346     26348
     26345     26343     26346     26349     26346     26349     26352     26353
     26346     26349     26352     26354     26346     26349     26352     26355
     26347     26346     26349     26350     26347     26346     26349     26351
     26347     26346     26349     26352     26348     26346     26349     26350
     26348     26346     26349     26351     26348     26346     26349     26352
     26349     26352     26355     26356     26349     26352     26355     26357
     26349     26352     26355     26358     26350     26349     26352     26353
     26350     26349     26352     26354     26350     26349     26352     26355
     26351     26349     26352     26353     26351     26349     26352     26354
     26351     26349     26352     26355     26352     26355     26358     26359
     26352     26355     26358     26360     26352     26355     26358     26361
     26353     26352     26355     26356     26353     26352     26355     26357
     26353     26352     26355     26358     26354     26352     26355     26356
     26354     26352     26355     26357     26354     26352     26355     26358
     26355     26358     26361     26362     26355     26358     26361     26363
     26355     26358     26361     26364     26356     26355     26358     26359
     26356     26355     26358     26360     26356     26355     26358     26361
     26357     26355     26358     26359     26357     26355     26358     26360
     26357     26355     26358     26361     26358     26361     26364     26365
     26358     26361     26364     26366     26358     26361     26364     26367
     26359     26358     26361     26362     26359     26358     26361     26363
     26359     26358     26361     26364     26360     26358     26361     26362
     26360     26358     26361     26363     26360     26358     26361     26364
     26361     26364     26367     26368     26361     26364     26367     26369
     26361     26364     26367     26370     26362     26361     26364     26365
     26362     26361     26364     26366     26362     26361     26364     26367
     26363     26361     26364     26365     26363     26361     26364     26366
     26363     26361     26364     26367     26365     26364     26367     26368
     26365     26364     26367     26369     26365     26364     26367     26370
     26366     26364     26367     26368     26366     26364     26367     26369
     26366     26364     26367     26370     26371     26372     26387     26388
     26371     26372     26387     26389     26371     26372     26387     26393
     26372     26371     26375     26376     26372     26371     26375     26377
     26372     26371     26375     26378     26372     26371     26379     26380
     26372     26371     26379     26381     26372     26371     26379     26382
     26372     26371     26383     26384     26372     26371     26383     26385
     26372     26371     26383     26386     26372     26387     26393     26390
     26373     26372     26371     26375     26373     26372     26371     26379
     26373     26372     26371     26383     26373     26372     26387     26388
     26373     26372     26387     26389     26373     26372     26387     26393
     26374     26372     26371     26375     26374     26372     26371     26379
     26374     26372     26371     26383     26374     26372     26387     26388
     26374     26372     26387     26389     26374     26372     26387     26393
     26375     26371     26372     26387     26375     26371     26379     26380
     26375     26371     26379     26381     26375     26371     26379     26382
     26375     26371     26383     26384     26375     26371     26383     26385
     26375     26371     26383     26386     26376     26375     26371     26379
     26376     26375     26371     26383     26377     26375     26371     26379
     26377     26375     26371     26383     26378     26375     26371     26379
     26378     26375     26371     26383     26379     26371     26372     26387
     26379     26371     26383     26384     26379     26371     26383     26385
     26379     26371     26383     26386     26380     26379     26371     26383
     26381     26379     26371     26383     26382     26379     26371     26383
     26383     26371     26372     26387     26387     26393     26390     26391
     26387     26393     26390     26392     26387     26393     26390     26394
     26388     26387     26393     26390     26389     26387     26393     26390
     26390     26394     26395     26396     26390     26394     26395     26397
     26390     26394     26395     26398     26391     26390     26394     26395
     26392     26390     26394     26395     26393     26390     26394     26395
     26394     26395     26398     26399     26394     26395     26398     26400
     26394     26395     26398     26406     26395     26398     26400     26401
     26395     26398     26406     26407     26395     26398     26406     26408
     26395     26398     26406     26409     26396     26395     26398     26399
     26396     26395     26398     26400     26396     26395     26398     26406
     26397     26395     26398     26399     26397     26395     26398     26400
     26397     26395     26398     26406     26398     26400     26401     26402
     26398     26400     26401     26403     26398     26406     26409     26410
     26399     26398     26400     26401     26399     26398     26406     26407
     26399     26398     26406     26408     26399     26398     26406     26409
     26400     26398     26406     26407     26400     26398     26406     26408
     26400     26398     26406     26409     26400     26401     26403     26404
     26400     26401     26403     26405     26400     26401     26403     26415
     26401     26400     26398     26406     26401     26403     26415     26416
     26401     26403     26415     26417     26401     26403     26415     26418
     26402     26401     26403     26404     26402     26401     26403     26405
     26402     26401     26403     26415     26403     26415     26418     26419
     26403     26415     26418     26420     26403     26415     26418     26421
     26404     26403     26415     26416     26404     26403     26415     26417
     26404     26403     26415     26418     26405     26403     26415     26416
     26405     26403     26415     26417     26405     26403     26415     26418
     26406     26409     26410     26411     26406     26409     26410     26412
     26407     26406     26409     26410     26408     26406     26409     26410
     26409     26410     26412     26413     26409     26410     26412     26414
     26409     26410     26412     26462     26410     26412     26462     26463
     26410     26412     26462     26464     26410     26412     26462     26465
     26411     26410     26412     26413     26411     26410     26412     26414
     26411     26410     26412     26462     26412     26462     26465     26466
     26412     26462     26465     26467     26412     26462     26465     26468
     26413     26412     26462     26463     26413     26412     26462     26464
     26413     26412     26462     26465     26414     26412     26462     26463
     26414     26412     26462     26464     26414     26412     26462     26465
     26415     26418     26421     26422     26415     26418     26421     26423
     26415     26418     26421     26424     26416     26415     26418     26419
     26416     26415     26418     26420     26416     26415     26418     26421
     26417     26415     26418     26419     26417     26415     26418     26420
     26417     26415     26418     26421     26418     26421     26424     26425
     26418     26421     26424     26426     26418     26421     26424     26427
     26419     26418     26421     26422     26419     26418     26421     26423
     26419     26418     26421     26424     26420     26418     26421     26422
     26420     26418     26421     26423     26420     26418     26421     26424
     26421     26424     26427     26428     26421     26424     26427     26429
     26421     26424     26427     26430     26422     26421     26424     26425
     26422     26421     26424     26426     26422     26421     26424     26427
     26423     26421     26424     26425     26423     26421     26424     26426
     26423     26421     26424     26427     26424     26427     26430     26431
     26424     26427     26430     26432     26424     26427     26430     26433
     26425     26424     26427     26428     26425     26424     26427     26429
     26425     26424     26427     26430     26426     26424     26427     26428
     26426     26424     26427     26429     26426     26424     26427     26430
     26427     26430     26433     26434     26427     26430     26433     26435
     26428     26427     26430     26431     26428     26427     26430     26432
     26428     26427     26430     26433     26429     26427     26430     26431
     26429     26427     26430     26432     26429     26427     26430     26433
     26430     26433     26435     26436     26430     26433     26435     26437
     26431     26430     26433     26434     26431     26430     26433     26435
     26432     26430     26433     26434     26432     26430     26433     26435
     26433     26435     26437     26438     26433     26435     26437     26439
     26433     26435     26437     26440     26434     26433     26435     26436
     26434     26433     26435     26437     26435     26437     26440     26441
     26435     26437     26440     26442     26435     26437     26440     26443
     26436     26435     26437     26438     26436     26435     26437     26439
     26436     26435     26437     26440     26437     26440     26443     26444
     26437     26440     26443     26445     26437     26440     26443     26446
     26438     26437     26440     26441     26438     26437     26440     26442
     26438     26437     26440     26443     26439     26437     26440     26441
     26439     26437     26440     26442     26439     26437     26440     26443
     26440     26443     26446     26447     26440     26443     26446     26448
     26440     26443     26446     26449     26441     26440     26443     26444
     26441     26440     26443     26445     26441     26440     26443     26446
     26442     26440     26443     26444     26442     26440     26443     26445
     26442     26440     26443     26446     26443     26446     26449     26450
     26443     26446     26449     26451     26443     26446     26449     26452
     26444     26443     26446     26447     26444     26443     26446     26448
     26444     26443     26446     26449     26445     26443     26446     26447
     26445     26443     26446     26448     26445     26443     26446     26449
     26446     26449     26452     26453     26446     26449     26452     26454
     26446     26449     26452     26455     26447     26446     26449     26450
     26447     26446     26449     26451     26447     26446     26449     26452
     26448     26446     26449     26450     26448     26446     26449     26451
     26448     26446     26449     26452     26449     26452     26455     26456
     26449     26452     26455     26457     26449     26452     26455     26458
     26450     26449     26452     26453     26450     26449     26452     26454
     26450     26449     26452     26455     26451     26449     26452     26453
     26451     26449     26452     26454     26451     26449     26452     26455
     26452     26455     26458     26459     26452     26455     26458     26460
     26452     26455     26458     26461     26453     26452     26455     26456
     26453     26452     26455     26457     26453     26452     26455     26458
     26454     26452     26455     26456     26454     26452     26455     26457
     26454     26452     26455     26458     26456     26455     26458     26459
     26456     26455     26458     26460     26456     26455     26458     26461
     26457     26455     26458     26459     26457     26455     26458     26460
     26457     26455     26458     26461     26462     26465     26468     26469
     26462     26465     26468     26470     26462     26465     26468     26471
     26463     26462     26465     26466     26463     26462     26465     26467
     26463     26462     26465     26468     26464     26462     26465     26466
     26464     26462     26465     26467     26464     26462     26465     26468
     26465     26468     26471     26472     26465     26468     26471     26473
     26465     26468     26471     26474     26466     26465     26468     26469
     26466     26465     26468     26470     26466     26465     26468     26471
     26467     26465     26468     26469     26467     26465     26468     26470
     26467     26465     26468     26471     26468     26471     26474     26475
     26468     26471     26474     26476     26468     26471     26474     26477
     26469     26468     26471     26472     26469     26468     26471     26473
     26469     26468     26471     26474     26470     26468     26471     26472
     26470     26468     26471     26473     26470     26468     26471     26474
     26471     26474     26477     26478     26471     26474     26477     26479
     26471     26474     26477     26480     26472     26471     26474     26475
     26472     26471     26474     26476     26472     26471     26474     26477
     26473     26471     26474     26475     26473     26471     26474     26476
     26473     26471     26474     26477     26474     26477     26480     26481
     26474     26477     26480     26482     26474     26477     26480     26483
     26475     26474     26477     26478     26475     26474     26477     26479
     26475     26474     26477     26480     26476     26474     26477     26478
     26476     26474     26477     26479     26476     26474     26477     26480
     26477     26480     26483     26484     26477     26480     26483     26485
     26477     26480     26483     26486     26478     26477     26480     26481
     26478     26477     26480     26482     26478     26477     26480     26483
     26479     26477     26480     26481     26479     26477     26480     26482
     26479     26477     26480     26483     26480     26483     26486     26487
     26480     26483     26486     26488     26480     26483     26486     26489
     26481     26480     26483     26484     26481     26480     26483     26485
     26481     26480     26483     26486     26482     26480     26483     26484
     26482     26480     26483     26485     26482     26480     26483     26486
     26483     26486     26489     26490     26483     26486     26489     26491
     26483     26486     26489     26492     26484     26483     26486     26487
     26484     26483     26486     26488     26484     26483     26486     26489
     26485     26483     26486     26487     26485     26483     26486     26488
     26485     26483     26486     26489     26486     26489     26492     26493
     26486     26489     26492     26494     26486     26489     26492     26495
     26487     26486     26489     26490     26487     26486     26489     26491
     26487     26486     26489     26492     26488     26486     26489     26490
     26488     26486     26489     26491     26488     26486     26489     26492
     26489     26492     26495     26496     26489     26492     26495     26497
     26489     26492     26495     26498     26490     26489     26492     26493
     26490     26489     26492     26494     26490     26489     26492     26495
     26491     26489     26492     26493     26491     26489     26492     26494
     26491     26489     26492     26495     26492     26495     26498     26499
     26492     26495     26498     26500     26492     26495     26498     26501
     26493     26492     26495     26496     26493     26492     26495     26497
     26493     26492     26495     26498     26494     26492     26495     26496
     26494     26492     26495     26497     26494     26492     26495     26498
     26495     26498     26501     26502     26495     26498     26501     26503
     26495     26498     26501     26504     26496     26495     26498     26499
     26496     26495     26498     26500     26496     26495     26498     26501
     26497     26495     26498     26499     26497     26495     26498     26500
     26497     26495     26498     26501     26499     26498     26501     26502
     26499     26498     26501     26503     26499     26498     26501     26504
     26500     26498     26501     26502     26500     26498     26501     26503
     26500     26498     26501     26504     26505     26506     26521     26522
     26505     26506     26521     26523     26505     26506     26521     26527
     26506     26505     26509     26510     26506     26505     26509     26511
     26506     26505     26509     26512     26506     26505     26513     26514
     26506     26505     26513     26515     26506     26505     26513     26516
     26506     26505     26517     26518     26506     26505     26517     26519
     26506     26505     26517     26520     26506     26521     26527     26524
     26507     26506     26505     26509     26507     26506     26505     26513
     26507     26506     26505     26517     26507     26506     26521     26522
     26507     26506     26521     26523     26507     26506     26521     26527
     26508     26506     26505     26509     26508     26506     26505     26513
     26508     26506     26505     26517     26508     26506     26521     26522
     26508     26506     26521     26523     26508     26506     26521     26527
     26509     26505     26506     26521     26509     26505     26513     26514
     26509     26505     26513     26515     26509     26505     26513     26516
     26509     26505     26517     26518     26509     26505     26517     26519
     26509     26505     26517     26520     26510     26509     26505     26513
     26510     26509     26505     26517     26511     26509     26505     26513
     26511     26509     26505     26517     26512     26509     26505     26513
     26512     26509     26505     26517     26513     26505     26506     26521
     26513     26505     26517     26518     26513     26505     26517     26519
     26513     26505     26517     26520     26514     26513     26505     26517
     26515     26513     26505     26517     26516     26513     26505     26517
     26517     26505     26506     26521     26521     26527     26524     26525
     26521     26527     26524     26526     26521     26527     26524     26528
     26522     26521     26527     26524     26523     26521     26527     26524
     26524     26528     26529     26530     26524     26528     26529     26531
     26524     26528     26529     26532     26525     26524     26528     26529
     26526     26524     26528     26529     26527     26524     26528     26529
     26528     26529     26532     26533     26528     26529     26532     26534
     26528     26529     26532     26540     26529     26532     26534     26535
     26529     26532     26540     26541     26529     26532     26540     26542
     26529     26532     26540     26543     26530     26529     26532     26533
     26530     26529     26532     26534     26530     26529     26532     26540
     26531     26529     26532     26533     26531     26529     26532     26534
     26531     26529     26532     26540     26532     26534     26535     26536
     26532     26534     26535     26537     26532     26540     26543     26544
     26533     26532     26534     26535     26533     26532     26540     26541
     26533     26532     26540     26542     26533     26532     26540     26543
     26534     26532     26540     26541     26534     26532     26540     26542
     26534     26532     26540     26543     26534     26535     26537     26538
     26534     26535     26537     26539     26534     26535     26537     26549
     26535     26534     26532     26540     26535     26537     26549     26550
     26535     26537     26549     26551     26535     26537     26549     26552
     26536     26535     26537     26538     26536     26535     26537     26539
     26536     26535     26537     26549     26537     26549     26552     26553
     26537     26549     26552     26554     26537     26549     26552     26555
     26538     26537     26549     26550     26538     26537     26549     26551
     26538     26537     26549     26552     26539     26537     26549     26550
     26539     26537     26549     26551     26539     26537     26549     26552
     26540     26543     26544     26545     26540     26543     26544     26546
     26541     26540     26543     26544     26542     26540     26543     26544
     26543     26544     26546     26547     26543     26544     26546     26548
     26543     26544     26546     26596     26544     26546     26596     26597
     26544     26546     26596     26598     26544     26546     26596     26599
     26545     26544     26546     26547     26545     26544     26546     26548
     26545     26544     26546     26596     26546     26596     26599     26600
     26546     26596     26599     26601     26546     26596     26599     26602
     26547     26546     26596     26597     26547     26546     26596     26598
     26547     26546     26596     26599     26548     26546     26596     26597
     26548     26546     26596     26598     26548     26546     26596     26599
     26549     26552     26555     26556     26549     26552     26555     26557
     26549     26552     26555     26558     26550     26549     26552     26553
     26550     26549     26552     26554     26550     26549     26552     26555
     26551     26549     26552     26553     26551     26549     26552     26554
     26551     26549     26552     26555     26552     26555     26558     26559
     26552     26555     26558     26560     26552     26555     26558     26561
     26553     26552     26555     26556     26553     26552     26555     26557
     26553     26552     26555     26558     26554     26552     26555     26556
     26554     26552     26555     26557     26554     26552     26555     26558
     26555     26558     26561     26562     26555     26558     26561     26563
     26555     26558     26561     26564     26556     26555     26558     26559
     26556     26555     26558     26560     26556     26555     26558     26561
     26557     26555     26558     26559     26557     26555     26558     26560
     26557     26555     26558     26561     26558     26561     26564     26565
     26558     26561     26564     26566     26558     26561     26564     26567
     26559     26558     26561     26562     26559     26558     26561     26563
     26559     26558     26561     26564     26560     26558     26561     26562
     26560     26558     26561     26563     26560     26558     26561     26564
     26561     26564     26567     26568     26561     26564     26567     26569
     26562     26561     26564     26565     26562     26561     26564     26566
     26562     26561     26564     26567     26563     26561     26564     26565
     26563     26561     26564     26566     26563     26561     26564     26567
     26564     26567     26569     26570     26564     26567     26569     26571
     26565     26564     26567     26568     26565     26564     26567     26569
     26566     26564     26567     26568     26566     26564     26567     26569
     26567     26569     26571     26572     26567     26569     26571     26573
     26567     26569     26571     26574     26568     26567     26569     26570
     26568     26567     26569     26571     26569     26571     26574     26575
     26569     26571     26574     26576     26569     26571     26574     26577
     26570     26569     26571     26572     26570     26569     26571     26573
     26570     26569     26571     26574     26571     26574     26577     26578
     26571     26574     26577     26579     26571     26574     26577     26580
     26572     26571     26574     26575     26572     26571     26574     26576
     26572     26571     26574     26577     26573     26571     26574     26575
     26573     26571     26574     26576     26573     26571     26574     26577
     26574     26577     26580     26581     26574     26577     26580     26582
     26574     26577     26580     26583     26575     26574     26577     26578
     26575     26574     26577     26579     26575     26574     26577     26580
     26576     26574     26577     26578     26576     26574     26577     26579
     26576     26574     26577     26580     26577     26580     26583     26584
     26577     26580     26583     26585     26577     26580     26583     26586
     26578     26577     26580     26581     26578     26577     26580     26582
     26578     26577     26580     26583     26579     26577     26580     26581
     26579     26577     26580     26582     26579     26577     26580     26583
     26580     26583     26586     26587     26580     26583     26586     26588
     26580     26583     26586     26589     26581     26580     26583     26584
     26581     26580     26583     26585     26581     26580     26583     26586
     26582     26580     26583     26584     26582     26580     26583     26585
     26582     26580     26583     26586     26583     26586     26589     26590
     26583     26586     26589     26591     26583     26586     26589     26592
     26584     26583     26586     26587     26584     26583     26586     26588
     26584     26583     26586     26589     26585     26583     26586     26587
     26585     26583     26586     26588     26585     26583     26586     26589
     26586     26589     26592     26593     26586     26589     26592     26594
     26586     26589     26592     26595     26587     26586     26589     26590
     26587     26586     26589     26591     26587     26586     26589     26592
     26588     26586     26589     26590     26588     26586     26589     26591
     26588     26586     26589     26592     26590     26589     26592     26593
     26590     26589     26592     26594     26590     26589     26592     26595
     26591     26589     26592     26593     26591     26589     26592     26594
     26591     26589     26592     26595     26596     26599     26602     26603
     26596     26599     26602     26604     26596     26599     26602     26605
     26597     26596     26599     26600     26597     26596     26599     26601
     26597     26596     26599     26602     26598     26596     26599     26600
     26598     26596     26599     26601     26598     26596     26599     26602
     26599     26602     26605     26606     26599     26602     26605     26607
     26599     26602     26605     26608     26600     26599     26602     26603
     26600     26599     26602     26604     26600     26599     26602     26605
     26601     26599     26602     26603     26601     26599     26602     26604
     26601     26599     26602     26605     26602     26605     26608     26609
     26602     26605     26608     26610     26602     26605     26608     26611
     26603     26602     26605     26606     26603     26602     26605     26607
     26603     26602     26605     26608     26604     26602     26605     26606
     26604     26602     26605     26607     26604     26602     26605     26608
     26605     26608     26611     26612     26605     26608     26611     26613
     26605     26608     26611     26614     26606     26605     26608     26609
     26606     26605     26608     26610     26606     26605     26608     26611
     26607     26605     26608     26609     26607     26605     26608     26610
     26607     26605     26608     26611     26608     26611     26614     26615
     26608     26611     26614     26616     26608     26611     26614     26617
     26609     26608     26611     26612     26609     26608     26611     26613
     26609     26608     26611     26614     26610     26608     26611     26612
     26610     26608     26611     26613     26610     26608     26611     26614
     26611     26614     26617     26618     26611     26614     26617     26619
     26611     26614     26617     26620     26612     26611     26614     26615
     26612     26611     26614     26616     26612     26611     26614     26617
     26613     26611     26614     26615     26613     26611     26614     26616
     26613     26611     26614     26617     26614     26617     26620     26621
     26614     26617     26620     26622     26614     26617     26620     26623
     26615     26614     26617     26618     26615     26614     26617     26619
     26615     26614     26617     26620     26616     26614     26617     26618
     26616     26614     26617     26619     26616     26614     26617     26620
     26617     26620     26623     26624     26617     26620     26623     26625
     26617     26620     26623     26626     26618     26617     26620     26621
     26618     26617     26620     26622     26618     26617     26620     26623
     26619     26617     26620     26621     26619     26617     26620     26622
     26619     26617     26620     26623     26620     26623     26626     26627
     26620     26623     26626     26628     26620     26623     26626     26629
     26621     26620     26623     26624     26621     26620     26623     26625
     26621     26620     26623     26626     26622     26620     26623     26624
     26622     26620     26623     26625     26622     26620     26623     26626
     26623     26626     26629     26630     26623     26626     26629     26631
     26623     26626     26629     26632     26624     26623     26626     26627
     26624     26623     26626     26628     26624     26623     26626     26629
     26625     26623     26626     26627     26625     26623     26626     26628
     26625     26623     26626     26629     26626     26629     26632     26633
     26626     26629     26632     26634     26626     26629     26632     26635
     26627     26626     26629     26630     26627     26626     26629     26631
     26627     26626     26629     26632     26628     26626     26629     26630
     26628     26626     26629     26631     26628     26626     26629     26632
     26629     26632     26635     26636     26629     26632     26635     26637
     26629     26632     26635     26638     26630     26629     26632     26633
     26630     26629     26632     26634     26630     26629     26632     26635
     26631     26629     26632     26633     26631     26629     26632     26634
     26631     26629     26632     26635     26633     26632     26635     26636
     26633     26632     26635     26637     26633     26632     26635     26638
     26634     26632     26635     26636     26634     26632     26635     26637
     26634     26632     26635     26638     26639     26640     26655     26656
     26639     26640     26655     26657     26639     26640     26655     26661
     26640     26639     26643     26644     26640     26639     26643     26645
     26640     26639     26643     26646     26640     26639     26647     26648
     26640     26639     26647     26649     26640     26639     26647     26650
     26640     26639     26651     26652     26640     26639     26651     26653
     26640     26639     26651     26654     26640     26655     26661     26658
     26641     26640     26639     26643     26641     26640     26639     26647
     26641     26640     26639     26651     26641     26640     26655     26656
     26641     26640     26655     26657     26641     26640     26655     26661
     26642     26640     26639     26643     26642     26640     26639     26647
     26642     26640     26639     26651     26642     26640     26655     26656
     26642     26640     26655     26657     26642     26640     26655     26661
     26643     26639     26640     26655     26643     26639     26647     26648
     26643     26639     26647     26649     26643     26639     26647     26650
     26643     26639     26651     26652     26643     26639     26651     26653
     26643     26639     26651     26654     26644     26643     26639     26647
     26644     26643     26639     26651     26645     26643     26639     26647
     26645     26643     26639     26651     26646     26643     26639     26647
     26646     26643     26639     26651     26647     26639     26640     26655
     26647     26639     26651     26652     26647     26639     26651     26653
     26647     26639     26651     26654     26648     26647     26639     26651
     26649     26647     26639     26651     26650     26647     26639     26651
     26651     26639     26640     26655     26655     26661     26658     26659
     26655     26661     26658     26660     26655     26661     26658     26662
     26656     26655     26661     26658     26657     26655     26661     26658
     26658     26662     26663     26664     26658     26662     26663     26665
     26658     26662     26663     26666     26659     26658     26662     26663
     26660     26658     26662     26663     26661     26658     26662     26663
     26662     26663     26666     26667     26662     26663     26666     26668
     26662     26663     26666     26674     26663     26666     26668     26669
     26663     26666     26674     26675     26663     26666     26674     26676
     26663     26666     26674     26677     26664     26663     26666     26667
     26664     26663     26666     26668     26664     26663     26666     26674
     26665     26663     26666     26667     26665     26663     26666     26668
     26665     26663     26666     26674     26666     26668     26669     26670
     26666     26668     26669     26671     26666     26674     26677     26678
     26667     26666     26668     26669     26667     26666     26674     26675
     26667     26666     26674     26676     26667     26666     26674     26677
     26668     26666     26674     26675     26668     26666     26674     26676
     26668     26666     26674     26677     26668     26669     26671     26672
     26668     26669     26671     26673     26668     26669     26671     26683
     26669     26668     26666     26674     26669     26671     26683     26684
     26669     26671     26683     26685     26669     26671     26683     26686
     26670     26669     26671     26672     26670     26669     26671     26673
     26670     26669     26671     26683     26671     26683     26686     26687
     26671     26683     26686     26688     26671     26683     26686     26689
     26672     26671     26683     26684     26672     26671     26683     26685
     26672     26671     26683     26686     26673     26671     26683     26684
     26673     26671     26683     26685     26673     26671     26683     26686
     26674     26677     26678     26679     26674     26677     26678     26680
     26675     26674     26677     26678     26676     26674     26677     26678
     26677     26678     26680     26681     26677     26678     26680     26682
     26677     26678     26680     26730     26678     26680     26730     26731
     26678     26680     26730     26732     26678     26680     26730     26733
     26679     26678     26680     26681     26679     26678     26680     26682
     26679     26678     26680     26730     26680     26730     26733     26734
     26680     26730     26733     26735     26680     26730     26733     26736
     26681     26680     26730     26731     26681     26680     26730     26732
     26681     26680     26730     26733     26682     26680     26730     26731
     26682     26680     26730     26732     26682     26680     26730     26733
     26683     26686     26689     26690     26683     26686     26689     26691
     26683     26686     26689     26692     26684     26683     26686     26687
     26684     26683     26686     26688     26684     26683     26686     26689
     26685     26683     26686     26687     26685     26683     26686     26688
     26685     26683     26686     26689     26686     26689     26692     26693
     26686     26689     26692     26694     26686     26689     26692     26695
     26687     26686     26689     26690     26687     26686     26689     26691
     26687     26686     26689     26692     26688     26686     26689     26690
     26688     26686     26689     26691     26688     26686     26689     26692
     26689     26692     26695     26696     26689     26692     26695     26697
     26689     26692     26695     26698     26690     26689     26692     26693
     26690     26689     26692     26694     26690     26689     26692     26695
     26691     26689     26692     26693     26691     26689     26692     26694
     26691     26689     26692     26695     26692     26695     26698     26699
     26692     26695     26698     26700     26692     26695     26698     26701
     26693     26692     26695     26696     26693     26692     26695     26697
     26693     26692     26695     26698     26694     26692     26695     26696
     26694     26692     26695     26697     26694     26692     26695     26698
     26695     26698     26701     26702     26695     26698     26701     26703
     26696     26695     26698     26699     26696     26695     26698     26700
     26696     26695     26698     26701     26697     26695     26698     26699
     26697     26695     26698     26700     26697     26695     26698     26701
     26698     26701     26703     26704     26698     26701     26703     26705
     26699     26698     26701     26702     26699     26698     26701     26703
     26700     26698     26701     26702     26700     26698     26701     26703
     26701     26703     26705     26706     26701     26703     26705     26707
     26701     26703     26705     26708     26702     26701     26703     26704
     26702     26701     26703     26705     26703     26705     26708     26709
     26703     26705     26708     26710     26703     26705     26708     26711
     26704     26703     26705     26706     26704     26703     26705     26707
     26704     26703     26705     26708     26705     26708     26711     26712
     26705     26708     26711     26713     26705     26708     26711     26714
     26706     26705     26708     26709     26706     26705     26708     26710
     26706     26705     26708     26711     26707     26705     26708     26709
     26707     26705     26708     26710     26707     26705     26708     26711
     26708     26711     26714     26715     26708     26711     26714     26716
     26708     26711     26714     26717     26709     26708     26711     26712
     26709     26708     26711     26713     26709     26708     26711     26714
     26710     26708     26711     26712     26710     26708     26711     26713
     26710     26708     26711     26714     26711     26714     26717     26718
     26711     26714     26717     26719     26711     26714     26717     26720
     26712     26711     26714     26715     26712     26711     26714     26716
     26712     26711     26714     26717     26713     26711     26714     26715
     26713     26711     26714     26716     26713     26711     26714     26717
     26714     26717     26720     26721     26714     26717     26720     26722
     26714     26717     26720     26723     26715     26714     26717     26718
     26715     26714     26717     26719     26715     26714     26717     26720
     26716     26714     26717     26718     26716     26714     26717     26719
     26716     26714     26717     26720     26717     26720     26723     26724
     26717     26720     26723     26725     26717     26720     26723     26726
     26718     26717     26720     26721     26718     26717     26720     26722
     26718     26717     26720     26723     26719     26717     26720     26721
     26719     26717     26720     26722     26719     26717     26720     26723
     26720     26723     26726     26727     26720     26723     26726     26728
     26720     26723     26726     26729     26721     26720     26723     26724
     26721     26720     26723     26725     26721     26720     26723     26726
     26722     26720     26723     26724     26722     26720     26723     26725
     26722     26720     26723     26726     26724     26723     26726     26727
     26724     26723     26726     26728     26724     26723     26726     26729
     26725     26723     26726     26727     26725     26723     26726     26728
     26725     26723     26726     26729     26730     26733     26736     26737
     26730     26733     26736     26738     26730     26733     26736     26739
     26731     26730     26733     26734     26731     26730     26733     26735
     26731     26730     26733     26736     26732     26730     26733     26734
     26732     26730     26733     26735     26732     26730     26733     26736
     26733     26736     26739     26740     26733     26736     26739     26741
     26733     26736     26739     26742     26734     26733     26736     26737
     26734     26733     26736     26738     26734     26733     26736     26739
     26735     26733     26736     26737     26735     26733     26736     26738
     26735     26733     26736     26739     26736     26739     26742     26743
     26736     26739     26742     26744     26736     26739     26742     26745
     26737     26736     26739     26740     26737     26736     26739     26741
     26737     26736     26739     26742     26738     26736     26739     26740
     26738     26736     26739     26741     26738     26736     26739     26742
     26739     26742     26745     26746     26739     26742     26745     26747
     26739     26742     26745     26748     26740     26739     26742     26743
     26740     26739     26742     26744     26740     26739     26742     26745
     26741     26739     26742     26743     26741     26739     26742     26744
     26741     26739     26742     26745     26742     26745     26748     26749
     26742     26745     26748     26750     26742     26745     26748     26751
     26743     26742     26745     26746     26743     26742     26745     26747
     26743     26742     26745     26748     26744     26742     26745     26746
     26744     26742     26745     26747     26744     26742     26745     26748
     26745     26748     26751     26752     26745     26748     26751     26753
     26745     26748     26751     26754     26746     26745     26748     26749
     26746     26745     26748     26750     26746     26745     26748     26751
     26747     26745     26748     26749     26747     26745     26748     26750
     26747     26745     26748     26751     26748     26751     26754     26755
     26748     26751     26754     26756     26748     26751     26754     26757
     26749     26748     26751     26752     26749     26748     26751     26753
     26749     26748     26751     26754     26750     26748     26751     26752
     26750     26748     26751     26753     26750     26748     26751     26754
     26751     26754     26757     26758     26751     26754     26757     26759
     26751     26754     26757     26760     26752     26751     26754     26755
     26752     26751     26754     26756     26752     26751     26754     26757
     26753     26751     26754     26755     26753     26751     26754     26756
     26753     26751     26754     26757     26754     26757     26760     26761
     26754     26757     26760     26762     26754     26757     26760     26763
     26755     26754     26757     26758     26755     26754     26757     26759
     26755     26754     26757     26760     26756     26754     26757     26758
     26756     26754     26757     26759     26756     26754     26757     26760
     26757     26760     26763     26764     26757     26760     26763     26765
     26757     26760     26763     26766     26758     26757     26760     26761
     26758     26757     26760     26762     26758     26757     26760     26763
     26759     26757     26760     26761     26759     26757     26760     26762
     26759     26757     26760     26763     26760     26763     26766     26767
     26760     26763     26766     26768     26760     26763     26766     26769
     26761     26760     26763     26764     26761     26760     26763     26765
     26761     26760     26763     26766     26762     26760     26763     26764
     26762     26760     26763     26765     26762     26760     26763     26766
     26763     26766     26769     26770     26763     26766     26769     26771
     26763     26766     26769     26772     26764     26763     26766     26767
     26764     26763     26766     26768     26764     26763     26766     26769
     26765     26763     26766     26767     26765     26763     26766     26768
     26765     26763     26766     26769     26767     26766     26769     26770
     26767     26766     26769     26771     26767     26766     26769     26772
     26768     26766     26769     26770     26768     26766     26769     26771
     26768     26766     26769     26772     26773     26774     26789     26790
     26773     26774     26789     26791     26773     26774     26789     26795
     26774     26773     26777     26778     26774     26773     26777     26779
     26774     26773     26777     26780     26774     26773     26781     26782
     26774     26773     26781     26783     26774     26773     26781     26784
     26774     26773     26785     26786     26774     26773     26785     26787
     26774     26773     26785     26788     26774     26789     26795     26792
     26775     26774     26773     26777     26775     26774     26773     26781
     26775     26774     26773     26785     26775     26774     26789     26790
     26775     26774     26789     26791     26775     26774     26789     26795
     26776     26774     26773     26777     26776     26774     26773     26781
     26776     26774     26773     26785     26776     26774     26789     26790
     26776     26774     26789     26791     26776     26774     26789     26795
     26777     26773     26774     26789     26777     26773     26781     26782
     26777     26773     26781     26783     26777     26773     26781     26784
     26777     26773     26785     26786     26777     26773     26785     26787
     26777     26773     26785     26788     26778     26777     26773     26781
     26778     26777     26773     26785     26779     26777     26773     26781
     26779     26777     26773     26785     26780     26777     26773     26781
     26780     26777     26773     26785     26781     26773     26774     26789
     26781     26773     26785     26786     26781     26773     26785     26787
     26781     26773     26785     26788     26782     26781     26773     26785
     26783     26781     26773     26785     26784     26781     26773     26785
     26785     26773     26774     26789     26789     26795     26792     26793
     26789     26795     26792     26794     26789     26795     26792     26796
     26790     26789     26795     26792     26791     26789     26795     26792
     26792     26796     26797     26798     26792     26796     26797     26799
     26792     26796     26797     26800     26793     26792     26796     26797
     26794     26792     26796     26797     26795     26792     26796     26797
     26796     26797     26800     26801     26796     26797     26800     26802
     26796     26797     26800     26808     26797     26800     26802     26803
     26797     26800     26808     26809     26797     26800     26808     26810
     26797     26800     26808     26811     26798     26797     26800     26801
     26798     26797     26800     26802     26798     26797     26800     26808
     26799     26797     26800     26801     26799     26797     26800     26802
     26799     26797     26800     26808     26800     26802     26803     26804
     26800     26802     26803     26805     26800     26808     26811     26812
     26801     26800     26802     26803     26801     26800     26808     26809
     26801     26800     26808     26810     26801     26800     26808     26811
     26802     26800     26808     26809     26802     26800     26808     26810
     26802     26800     26808     26811     26802     26803     26805     26806
     26802     26803     26805     26807     26802     26803     26805     26817
     26803     26802     26800     26808     26803     26805     26817     26818
     26803     26805     26817     26819     26803     26805     26817     26820
     26804     26803     26805     26806     26804     26803     26805     26807
     26804     26803     26805     26817     26805     26817     26820     26821
     26805     26817     26820     26822     26805     26817     26820     26823
     26806     26805     26817     26818     26806     26805     26817     26819
     26806     26805     26817     26820     26807     26805     26817     26818
     26807     26805     26817     26819     26807     26805     26817     26820
     26808     26811     26812     26813     26808     26811     26812     26814
     26809     26808     26811     26812     26810     26808     26811     26812
     26811     26812     26814     26815     26811     26812     26814     26816
     26811     26812     26814     26864     26812     26814     26864     26865
     26812     26814     26864     26866     26812     26814     26864     26867
     26813     26812     26814     26815     26813     26812     26814     26816
     26813     26812     26814     26864     26814     26864     26867     26868
     26814     26864     26867     26869     26814     26864     26867     26870
     26815     26814     26864     26865     26815     26814     26864     26866
     26815     26814     26864     26867     26816     26814     26864     26865
     26816     26814     26864     26866     26816     26814     26864     26867
     26817     26820     26823     26824     26817     26820     26823     26825
     26817     26820     26823     26826     26818     26817     26820     26821
     26818     26817     26820     26822     26818     26817     26820     26823
     26819     26817     26820     26821     26819     26817     26820     26822
     26819     26817     26820     26823     26820     26823     26826     26827
     26820     26823     26826     26828     26820     26823     26826     26829
     26821     26820     26823     26824     26821     26820     26823     26825
     26821     26820     26823     26826     26822     26820     26823     26824
     26822     26820     26823     26825     26822     26820     26823     26826
     26823     26826     26829     26830     26823     26826     26829     26831
     26823     26826     26829     26832     26824     26823     26826     26827
     26824     26823     26826     26828     26824     26823     26826     26829
     26825     26823     26826     26827     26825     26823     26826     26828
     26825     26823     26826     26829     26826     26829     26832     26833
     26826     26829     26832     26834     26826     26829     26832     26835
     26827     26826     26829     26830     26827     26826     26829     26831
     26827     26826     26829     26832     26828     26826     26829     26830
     26828     26826     26829     26831     26828     26826     26829     26832
     26829     26832     26835     26836     26829     26832     26835     26837
     26830     26829     26832     26833     26830     26829     26832     26834
     26830     26829     26832     26835     26831     26829     26832     26833
     26831     26829     26832     26834     26831     26829     26832     26835
     26832     26835     26837     26838     26832     26835     26837     26839
     26833     26832     26835     26836     26833     26832     26835     26837
     26834     26832     26835     26836     26834     26832     26835     26837
     26835     26837     26839     26840     26835     26837     26839     26841
     26835     26837     26839     26842     26836     26835     26837     26838
     26836     26835     26837     26839     26837     26839     26842     26843
     26837     26839     26842     26844     26837     26839     26842     26845
     26838     26837     26839     26840     26838     26837     26839     26841
     26838     26837     26839     26842     26839     26842     26845     26846
     26839     26842     26845     26847     26839     26842     26845     26848
     26840     26839     26842     26843     26840     26839     26842     26844
     26840     26839     26842     26845     26841     26839     26842     26843
     26841     26839     26842     26844     26841     26839     26842     26845
     26842     26845     26848     26849     26842     26845     26848     26850
     26842     26845     26848     26851     26843     26842     26845     26846
     26843     26842     26845     26847     26843     26842     26845     26848
     26844     26842     26845     26846     26844     26842     26845     26847
     26844     26842     26845     26848     26845     26848     26851     26852
     26845     26848     26851     26853     26845     26848     26851     26854
     26846     26845     26848     26849     26846     26845     26848     26850
     26846     26845     26848     26851     26847     26845     26848     26849
     26847     26845     26848     26850     26847     26845     26848     26851
     26848     26851     26854     26855     26848     26851     26854     26856
     26848     26851     26854     26857     26849     26848     26851     26852
     26849     26848     26851     26853     26849     26848     26851     26854
     26850     26848     26851     26852     26850     26848     26851     26853
     26850     26848     26851     26854     26851     26854     26857     26858
     26851     26854     26857     26859     26851     26854     26857     26860
     26852     26851     26854     26855     26852     26851     26854     26856
     26852     26851     26854     26857     26853     26851     26854     26855
     26853     26851     26854     26856     26853     26851     26854     26857
     26854     26857     26860     26861     26854     26857     26860     26862
     26854     26857     26860     26863     26855     26854     26857     26858
     26855     26854     26857     26859     26855     26854     26857     26860
     26856     26854     26857     26858     26856     26854     26857     26859
     26856     26854     26857     26860     26858     26857     26860     26861
     26858     26857     26860     26862     26858     26857     26860     26863
     26859     26857     26860     26861     26859     26857     26860     26862
     26859     26857     26860     26863     26864     26867     26870     26871
     26864     26867     26870     26872     26864     26867     26870     26873
     26865     26864     26867     26868     26865     26864     26867     26869
     26865     26864     26867     26870     26866     26864     26867     26868
     26866     26864     26867     26869     26866     26864     26867     26870
     26867     26870     26873     26874     26867     26870     26873     26875
     26867     26870     26873     26876     26868     26867     26870     26871
     26868     26867     26870     26872     26868     26867     26870     26873
     26869     26867     26870     26871     26869     26867     26870     26872
     26869     26867     26870     26873     26870     26873     26876     26877
     26870     26873     26876     26878     26870     26873     26876     26879
     26871     26870     26873     26874     26871     26870     26873     26875
     26871     26870     26873     26876     26872     26870     26873     26874
     26872     26870     26873     26875     26872     26870     26873     26876
     26873     26876     26879     26880     26873     26876     26879     26881
     26873     26876     26879     26882     26874     26873     26876     26877
     26874     26873     26876     26878     26874     26873     26876     26879
     26875     26873     26876     26877     26875     26873     26876     26878
     26875     26873     26876     26879     26876     26879     26882     26883
     26876     26879     26882     26884     26876     26879     26882     26885
     26877     26876     26879     26880     26877     26876     26879     26881
     26877     26876     26879     26882     26878     26876     26879     26880
     26878     26876     26879     26881     26878     26876     26879     26882
     26879     26882     26885     26886     26879     26882     26885     26887
     26879     26882     26885     26888     26880     26879     26882     26883
     26880     26879     26882     26884     26880     26879     26882     26885
     26881     26879     26882     26883     26881     26879     26882     26884
     26881     26879     26882     26885     26882     26885     26888     26889
     26882     26885     26888     26890     26882     26885     26888     26891
     26883     26882     26885     26886     26883     26882     26885     26887
     26883     26882     26885     26888     26884     26882     26885     26886
     26884     26882     26885     26887     26884     26882     26885     26888
     26885     26888     26891     26892     26885     26888     26891     26893
     26885     26888     26891     26894     26886     26885     26888     26889
     26886     26885     26888     26890     26886     26885     26888     26891
     26887     26885     26888     26889     26887     26885     26888     26890
     26887     26885     26888     26891     26888     26891     26894     26895
     26888     26891     26894     26896     26888     26891     26894     26897
     26889     26888     26891     26892     26889     26888     26891     26893
     26889     26888     26891     26894     26890     26888     26891     26892
     26890     26888     26891     26893     26890     26888     26891     26894
     26891     26894     26897     26898     26891     26894     26897     26899
     26891     26894     26897     26900     26892     26891     26894     26895
     26892     26891     26894     26896     26892     26891     26894     26897
     26893     26891     26894     26895     26893     26891     26894     26896
     26893     26891     26894     26897     26894     26897     26900     26901
     26894     26897     26900     26902     26894     26897     26900     26903
     26895     26894     26897     26898     26895     26894     26897     26899
     26895     26894     26897     26900     26896     26894     26897     26898
     26896     26894     26897     26899     26896     26894     26897     26900
     26897     26900     26903     26904     26897     26900     26903     26905
     26897     26900     26903     26906     26898     26897     26900     26901
     26898     26897     26900     26902     26898     26897     26900     26903
     26899     26897     26900     26901     26899     26897     26900     26902
     26899     26897     26900     26903     26901     26900     26903     26904
     26901     26900     26903     26905     26901     26900     26903     26906
     26902     26900     26903     26904     26902     26900     26903     26905
     26902     26900     26903     26906     26907     26908     26923     26924
     26907     26908     26923     26925     26907     26908     26923     26929
     26908     26907     26911     26912     26908     26907     26911     26913
     26908     26907     26911     26914     26908     26907     26915     26916
     26908     26907     26915     26917     26908     26907     26915     26918
     26908     26907     26919     26920     26908     26907     26919     26921
     26908     26907     26919     26922     26908     26923     26929     26926
     26909     26908     26907     26911     26909     26908     26907     26915
     26909     26908     26907     26919     26909     26908     26923     26924
     26909     26908     26923     26925     26909     26908     26923     26929
     26910     26908     26907     26911     26910     26908     26907     26915
     26910     26908     26907     26919     26910     26908     26923     26924
     26910     26908     26923     26925     26910     26908     26923     26929
     26911     26907     26908     26923     26911     26907     26915     26916
     26911     26907     26915     26917     26911     26907     26915     26918
     26911     26907     26919     26920     26911     26907     26919     26921
     26911     26907     26919     26922     26912     26911     26907     26915
     26912     26911     26907     26919     26913     26911     26907     26915
     26913     26911     26907     26919     26914     26911     26907     26915
     26914     26911     26907     26919     26915     26907     26908     26923
     26915     26907     26919     26920     26915     26907     26919     26921
     26915     26907     26919     26922     26916     26915     26907     26919
     26917     26915     26907     26919     26918     26915     26907     26919
     26919     26907     26908     26923     26923     26929     26926     26927
     26923     26929     26926     26928     26923     26929     26926     26930
     26924     26923     26929     26926     26925     26923     26929     26926
     26926     26930     26931     26932     26926     26930     26931     26933
     26926     26930     26931     26934     26927     26926     26930     26931
     26928     26926     26930     26931     26929     26926     26930     26931
     26930     26931     26934     26935     26930     26931     26934     26936
     26930     26931     26934     26942     26931     26934     26936     26937
     26931     26934     26942     26943     26931     26934     26942     26944
     26931     26934     26942     26945     26932     26931     26934     26935
     26932     26931     26934     26936     26932     26931     26934     26942
     26933     26931     26934     26935     26933     26931     26934     26936
     26933     26931     26934     26942     26934     26936     26937     26938
     26934     26936     26937     26939     26934     26942     26945     26946
     26935     26934     26936     26937     26935     26934     26942     26943
     26935     26934     26942     26944     26935     26934     26942     26945
     26936     26934     26942     26943     26936     26934     26942     26944
     26936     26934     26942     26945     26936     26937     26939     26940
     26936     26937     26939     26941     26936     26937     26939     26951
     26937     26936     26934     26942     26937     26939     26951     26952
     26937     26939     26951     26953     26937     26939     26951     26954
     26938     26937     26939     26940     26938     26937     26939     26941
     26938     26937     26939     26951     26939     26951     26954     26955
     26939     26951     26954     26956     26939     26951     26954     26957
     26940     26939     26951     26952     26940     26939     26951     26953
     26940     26939     26951     26954     26941     26939     26951     26952
     26941     26939     26951     26953     26941     26939     26951     26954
     26942     26945     26946     26947     26942     26945     26946     26948
     26943     26942     26945     26946     26944     26942     26945     26946
     26945     26946     26948     26949     26945     26946     26948     26950
     26945     26946     26948     26998     26946     26948     26998     26999
     26946     26948     26998     27000     26946     26948     26998     27001
     26947     26946     26948     26949     26947     26946     26948     26950
     26947     26946     26948     26998     26948     26998     27001     27002
     26948     26998     27001     27003     26948     26998     27001     27004
     26949     26948     26998     26999     26949     26948     26998     27000
     26949     26948     26998     27001     26950     26948     26998     26999
     26950     26948     26998     27000     26950     26948     26998     27001
     26951     26954     26957     26958     26951     26954     26957     26959
     26951     26954     26957     26960     26952     26951     26954     26955
     26952     26951     26954     26956     26952     26951     26954     26957
     26953     26951     26954     26955     26953     26951     26954     26956
     26953     26951     26954     26957     26954     26957     26960     26961
     26954     26957     26960     26962     26954     26957     26960     26963
     26955     26954     26957     26958     26955     26954     26957     26959
     26955     26954     26957     26960     26956     26954     26957     26958
     26956     26954     26957     26959     26956     26954     26957     26960
     26957     26960     26963     26964     26957     26960     26963     26965
     26957     26960     26963     26966     26958     26957     26960     26961
     26958     26957     26960     26962     26958     26957     26960     26963
     26959     26957     26960     26961     26959     26957     26960     26962
     26959     26957     26960     26963     26960     26963     26966     26967
     26960     26963     26966     26968     26960     26963     26966     26969
     26961     26960     26963     26964     26961     26960     26963     26965
     26961     26960     26963     26966     26962     26960     26963     26964
     26962     26960     26963     26965     26962     26960     26963     26966
     26963     26966     26969     26970     26963     26966     26969     26971
     26964     26963     26966     26967     26964     26963     26966     26968
     26964     26963     26966     26969     26965     26963     26966     26967
     26965     26963     26966     26968     26965     26963     26966     26969
     26966     26969     26971     26972     26966     26969     26971     26973
     26967     26966     26969     26970     26967     26966     26969     26971
     26968     26966     26969     26970     26968     26966     26969     26971
     26969     26971     26973     26974     26969     26971     26973     26975
     26969     26971     26973     26976     26970     26969     26971     26972
     26970     26969     26971     26973     26971     26973     26976     26977
     26971     26973     26976     26978     26971     26973     26976     26979
     26972     26971     26973     26974     26972     26971     26973     26975
     26972     26971     26973     26976     26973     26976     26979     26980
     26973     26976     26979     26981     26973     26976     26979     26982
     26974     26973     26976     26977     26974     26973     26976     26978
     26974     26973     26976     26979     26975     26973     26976     26977
     26975     26973     26976     26978     26975     26973     26976     26979
     26976     26979     26982     26983     26976     26979     26982     26984
     26976     26979     26982     26985     26977     26976     26979     26980
     26977     26976     26979     26981     26977     26976     26979     26982
     26978     26976     26979     26980     26978     26976     26979     26981
     26978     26976     26979     26982     26979     26982     26985     26986
     26979     26982     26985     26987     26979     26982     26985     26988
     26980     26979     26982     26983     26980     26979     26982     26984
     26980     26979     26982     26985     26981     26979     26982     26983
     26981     26979     26982     26984     26981     26979     26982     26985
     26982     26985     26988     26989     26982     26985     26988     26990
     26982     26985     26988     26991     26983     26982     26985     26986
     26983     26982     26985     26987     26983     26982     26985     26988
     26984     26982     26985     26986     26984     26982     26985     26987
     26984     26982     26985     26988     26985     26988     26991     26992
     26985     26988     26991     26993     26985     26988     26991     26994
     26986     26985     26988     26989     26986     26985     26988     26990
     26986     26985     26988     26991     26987     26985     26988     26989
     26987     26985     26988     26990     26987     26985     26988     26991
     26988     26991     26994     26995     26988     26991     26994     26996
     26988     26991     26994     26997     26989     26988     26991     26992
     26989     26988     26991     26993     26989     26988     26991     26994
     26990     26988     26991     26992     26990     26988     26991     26993
     26990     26988     26991     26994     26992     26991     26994     26995
     26992     26991     26994     26996     26992     26991     26994     26997
     26993     26991     26994     26995     26993     26991     26994     26996
     26993     26991     26994     26997     26998     27001     27004     27005
     26998     27001     27004     27006     26998     27001     27004     27007
     26999     26998     27001     27002     26999     26998     27001     27003
     26999     26998     27001     27004     27000     26998     27001     27002
     27000     26998     27001     27003     27000     26998     27001     27004
     27001     27004     27007     27008     27001     27004     27007     27009
     27001     27004     27007     27010     27002     27001     27004     27005
     27002     27001     27004     27006     27002     27001     27004     27007
     27003     27001     27004     27005     27003     27001     27004     27006
     27003     27001     27004     27007     27004     27007     27010     27011
     27004     27007     27010     27012     27004     27007     27010     27013
     27005     27004     27007     27008     27005     27004     27007     27009
     27005     27004     27007     27010     27006     27004     27007     27008
     27006     27004     27007     27009     27006     27004     27007     27010
     27007     27010     27013     27014     27007     27010     27013     27015
     27007     27010     27013     27016     27008     27007     27010     27011
     27008     27007     27010     27012     27008     27007     27010     27013
     27009     27007     27010     27011     27009     27007     27010     27012
     27009     27007     27010     27013     27010     27013     27016     27017
     27010     27013     27016     27018     27010     27013     27016     27019
     27011     27010     27013     27014     27011     27010     27013     27015
     27011     27010     27013     27016     27012     27010     27013     27014
     27012     27010     27013     27015     27012     27010     27013     27016
     27013     27016     27019     27020     27013     27016     27019     27021
     27013     27016     27019     27022     27014     27013     27016     27017
     27014     27013     27016     27018     27014     27013     27016     27019
     27015     27013     27016     27017     27015     27013     27016     27018
     27015     27013     27016     27019     27016     27019     27022     27023
     27016     27019     27022     27024     27016     27019     27022     27025
     27017     27016     27019     27020     27017     27016     27019     27021
     27017     27016     27019     27022     27018     27016     27019     27020
     27018     27016     27019     27021     27018     27016     27019     27022
     27019     27022     27025     27026     27019     27022     27025     27027
     27019     27022     27025     27028     27020     27019     27022     27023
     27020     27019     27022     27024     27020     27019     27022     27025
     27021     27019     27022     27023     27021     27019     27022     27024
     27021     27019     27022     27025     27022     27025     27028     27029
     27022     27025     27028     27030     27022     27025     27028     27031
     27023     27022     27025     27026     27023     27022     27025     27027
     27023     27022     27025     27028     27024     27022     27025     27026
     27024     27022     27025     27027     27024     27022     27025     27028
     27025     27028     27031     27032     27025     27028     27031     27033
     27025     27028     27031     27034     27026     27025     27028     27029
     27026     27025     27028     27030     27026     27025     27028     27031
     27027     27025     27028     27029     27027     27025     27028     27030
     27027     27025     27028     27031     27028     27031     27034     27035
     27028     27031     27034     27036     27028     27031     27034     27037
     27029     27028     27031     27032     27029     27028     27031     27033
     27029     27028     27031     27034     27030     27028     27031     27032
     27030     27028     27031     27033     27030     27028     27031     27034
     27031     27034     27037     27038     27031     27034     27037     27039
     27031     27034     27037     27040     27032     27031     27034     27035
     27032     27031     27034     27036     27032     27031     27034     27037
     27033     27031     27034     27035     27033     27031     27034     27036
     27033     27031     27034     27037     27035     27034     27037     27038
     27035     27034     27037     27039     27035     27034     27037     27040
     27036     27034     27037     27038     27036     27034     27037     27039
     27036     27034     27037     27040     27041     27042     27057     27058
     27041     27042     27057     27059     27041     27042     27057     27063
     27042     27041     27045     27046     27042     27041     27045     27047
     27042     27041     27045     27048     27042     27041     27049     27050
     27042     27041     27049     27051     27042     27041     27049     27052
     27042     27041     27053     27054     27042     27041     27053     27055
     27042     27041     27053     27056     27042     27057     27063     27060
     27043     27042     27041     27045     27043     27042     27041     27049
     27043     27042     27041     27053     27043     27042     27057     27058
     27043     27042     27057     27059     27043     27042     27057     27063
     27044     27042     27041     27045     27044     27042     27041     27049
     27044     27042     27041     27053     27044     27042     27057     27058
     27044     27042     27057     27059     27044     27042     27057     27063
     27045     27041     27042     27057     27045     27041     27049     27050
     27045     27041     27049     27051     27045     27041     27049     27052
     27045     27041     27053     27054     27045     27041     27053     27055
     27045     27041     27053     27056     27046     27045     27041     27049
     27046     27045     27041     27053     27047     27045     27041     27049
     27047     27045     27041     27053     27048     27045     27041     27049
     27048     27045     27041     27053     27049     27041     27042     27057
     27049     27041     27053     27054     27049     27041     27053     27055
     27049     27041     27053     27056     27050     27049     27041     27053
     27051     27049     27041     27053     27052     27049     27041     27053
     27053     27041     27042     27057     27057     27063     27060     27061
     27057     27063     27060     27062     27057     27063     27060     27064
     27058     27057     27063     27060     27059     27057     27063     27060
     27060     27064     27065     27066     27060     27064     27065     27067
     27060     27064     27065     27068     27061     27060     27064     27065
     27062     27060     27064     27065     27063     27060     27064     27065
     27064     27065     27068     27069     27064     27065     27068     27070
     27064     27065     27068     27076     27065     27068     27070     27071
     27065     27068     27076     27077     27065     27068     27076     27078
     27065     27068     27076     27079     27066     27065     27068     27069
     27066     27065     27068     27070     27066     27065     27068     27076
     27067     27065     27068     27069     27067     27065     27068     27070
     27067     27065     27068     27076     27068     27070     27071     27072
     27068     27070     27071     27073     27068     27076     27079     27080
     27069     27068     27070     27071     27069     27068     27076     27077
     27069     27068     27076     27078     27069     27068     27076     27079
     27070     27068     27076     27077     27070     27068     27076     27078
     27070     27068     27076     27079     27070     27071     27073     27074
     27070     27071     27073     27075     27070     27071     27073     27085
     27071     27070     27068     27076     27071     27073     27085     27086
     27071     27073     27085     27087     27071     27073     27085     27088
     27072     27071     27073     27074     27072     27071     27073     27075
     27072     27071     27073     27085     27073     27085     27088     27089
     27073     27085     27088     27090     27073     27085     27088     27091
     27074     27073     27085     27086     27074     27073     27085     27087
     27074     27073     27085     27088     27075     27073     27085     27086
     27075     27073     27085     27087     27075     27073     27085     27088
     27076     27079     27080     27081     27076     27079     27080     27082
     27077     27076     27079     27080     27078     27076     27079     27080
     27079     27080     27082     27083     27079     27080     27082     27084
     27079     27080     27082     27132     27080     27082     27132     27133
     27080     27082     27132     27134     27080     27082     27132     27135
     27081     27080     27082     27083     27081     27080     27082     27084
     27081     27080     27082     27132     27082     27132     27135     27136
     27082     27132     27135     27137     27082     27132     27135     27138
     27083     27082     27132     27133     27083     27082     27132     27134
     27083     27082     27132     27135     27084     27082     27132     27133
     27084     27082     27132     27134     27084     27082     27132     27135
     27085     27088     27091     27092     27085     27088     27091     27093
     27085     27088     27091     27094     27086     27085     27088     27089
     27086     27085     27088     27090     27086     27085     27088     27091
     27087     27085     27088     27089     27087     27085     27088     27090
     27087     27085     27088     27091     27088     27091     27094     27095
     27088     27091     27094     27096     27088     27091     27094     27097
     27089     27088     27091     27092     27089     27088     27091     27093
     27089     27088     27091     27094     27090     27088     27091     27092
     27090     27088     27091     27093     27090     27088     27091     27094
     27091     27094     27097     27098     27091     27094     27097     27099
     27091     27094     27097     27100     27092     27091     27094     27095
     27092     27091     27094     27096     27092     27091     27094     27097
     27093     27091     27094     27095     27093     27091     27094     27096
     27093     27091     27094     27097     27094     27097     27100     27101
     27094     27097     27100     27102     27094     27097     27100     27103
     27095     27094     27097     27098     27095     27094     27097     27099
     27095     27094     27097     27100     27096     27094     27097     27098
     27096     27094     27097     27099     27096     27094     27097     27100
     27097     27100     27103     27104     27097     27100     27103     27105
     27098     27097     27100     27101     27098     27097     27100     27102
     27098     27097     27100     27103     27099     27097     27100     27101
     27099     27097     27100     27102     27099     27097     27100     27103
     27100     27103     27105     27106     27100     27103     27105     27107
     27101     27100     27103     27104     27101     27100     27103     27105
     27102     27100     27103     27104     27102     27100     27103     27105
     27103     27105     27107     27108     27103     27105     27107     27109
     27103     27105     27107     27110     27104     27103     27105     27106
     27104     27103     27105     27107     27105     27107     27110     27111
     27105     27107     27110     27112     27105     27107     27110     27113
     27106     27105     27107     27108     27106     27105     27107     27109
     27106     27105     27107     27110     27107     27110     27113     27114
     27107     27110     27113     27115     27107     27110     27113     27116
     27108     27107     27110     27111     27108     27107     27110     27112
     27108     27107     27110     27113     27109     27107     27110     27111
     27109     27107     27110     27112     27109     27107     27110     27113
     27110     27113     27116     27117     27110     27113     27116     27118
     27110     27113     27116     27119     27111     27110     27113     27114
     27111     27110     27113     27115     27111     27110     27113     27116
     27112     27110     27113     27114     27112     27110     27113     27115
     27112     27110     27113     27116     27113     27116     27119     27120
     27113     27116     27119     27121     27113     27116     27119     27122
     27114     27113     27116     27117     27114     27113     27116     27118
     27114     27113     27116     27119     27115     27113     27116     27117
     27115     27113     27116     27118     27115     27113     27116     27119
     27116     27119     27122     27123     27116     27119     27122     27124
     27116     27119     27122     27125     27117     27116     27119     27120
     27117     27116     27119     27121     27117     27116     27119     27122
     27118     27116     27119     27120     27118     27116     27119     27121
     27118     27116     27119     27122     27119     27122     27125     27126
     27119     27122     27125     27127     27119     27122     27125     27128
     27120     27119     27122     27123     27120     27119     27122     27124
     27120     27119     27122     27125     27121     27119     27122     27123
     27121     27119     27122     27124     27121     27119     27122     27125
     27122     27125     27128     27129     27122     27125     27128     27130
     27122     27125     27128     27131     27123     27122     27125     27126
     27123     27122     27125     27127     27123     27122     27125     27128
     27124     27122     27125     27126     27124     27122     27125     27127
     27124     27122     27125     27128     27126     27125     27128     27129
     27126     27125     27128     27130     27126     27125     27128     27131
     27127     27125     27128     27129     27127     27125     27128     27130
     27127     27125     27128     27131     27132     27135     27138     27139
     27132     27135     27138     27140     27132     27135     27138     27141
     27133     27132     27135     27136     27133     27132     27135     27137
     27133     27132     27135     27138     27134     27132     27135     27136
     27134     27132     27135     27137     27134     27132     27135     27138
     27135     27138     27141     27142     27135     27138     27141     27143
     27135     27138     27141     27144     27136     27135     27138     27139
     27136     27135     27138     27140     27136     27135     27138     27141
     27137     27135     27138     27139     27137     27135     27138     27140
     27137     27135     27138     27141     27138     27141     27144     27145
     27138     27141     27144     27146     27138     27141     27144     27147
     27139     27138     27141     27142     27139     27138     27141     27143
     27139     27138     27141     27144     27140     27138     27141     27142
     27140     27138     27141     27143     27140     27138     27141     27144
     27141     27144     27147     27148     27141     27144     27147     27149
     27141     27144     27147     27150     27142     27141     27144     27145
     27142     27141     27144     27146     27142     27141     27144     27147
     27143     27141     27144     27145     27143     27141     27144     27146
     27143     27141     27144     27147     27144     27147     27150     27151
     27144     27147     27150     27152     27144     27147     27150     27153
     27145     27144     27147     27148     27145     27144     27147     27149
     27145     27144     27147     27150     27146     27144     27147     27148
     27146     27144     27147     27149     27146     27144     27147     27150
     27147     27150     27153     27154     27147     27150     27153     27155
     27147     27150     27153     27156     27148     27147     27150     27151
     27148     27147     27150     27152     27148     27147     27150     27153
     27149     27147     27150     27151     27149     27147     27150     27152
     27149     27147     27150     27153     27150     27153     27156     27157
     27150     27153     27156     27158     27150     27153     27156     27159
     27151     27150     27153     27154     27151     27150     27153     27155
     27151     27150     27153     27156     27152     27150     27153     27154
     27152     27150     27153     27155     27152     27150     27153     27156
     27153     27156     27159     27160     27153     27156     27159     27161
     27153     27156     27159     27162     27154     27153     27156     27157
     27154     27153     27156     27158     27154     27153     27156     27159
     27155     27153     27156     27157     27155     27153     27156     27158
     27155     27153     27156     27159     27156     27159     27162     27163
     27156     27159     27162     27164     27156     27159     27162     27165
     27157     27156     27159     27160     27157     27156     27159     27161
     27157     27156     27159     27162     27158     27156     27159     27160
     27158     27156     27159     27161     27158     27156     27159     27162
     27159     27162     27165     27166     27159     27162     27165     27167
     27159     27162     27165     27168     27160     27159     27162     27163
     27160     27159     27162     27164     27160     27159     27162     27165
     27161     27159     27162     27163     27161     27159     27162     27164
     27161     27159     27162     27165     27162     27165     27168     27169
     27162     27165     27168     27170     27162     27165     27168     27171
     27163     27162     27165     27166     27163     27162     27165     27167
     27163     27162     27165     27168     27164     27162     27165     27166
     27164     27162     27165     27167     27164     27162     27165     27168
     27165     27168     27171     27172     27165     27168     27171     27173
     27165     27168     27171     27174     27166     27165     27168     27169
     27166     27165     27168     27170     27166     27165     27168     27171
     27167     27165     27168     27169     27167     27165     27168     27170
     27167     27165     27168     27171     27169     27168     27171     27172
     27169     27168     27171     27173     27169     27168     27171     27174
     27170     27168     27171     27172     27170     27168     27171     27173
     27170     27168     27171     27174     27175     27176     27191     27192
     27175     27176     27191     27193     27175     27176     27191     27197
     27176     27175     27179     27180     27176     27175     27179     27181
     27176     27175     27179     27182     27176     27175     27183     27184
     27176     27175     27183     27185     27176     27175     27183     27186
     27176     27175     27187     27188     27176     27175     27187     27189
     27176     27175     27187     27190     27176     27191     27197     27194
     27177     27176     27175     27179     27177     27176     27175     27183
     27177     27176     27175     27187     27177     27176     27191     27192
     27177     27176     27191     27193     27177     27176     27191     27197
     27178     27176     27175     27179     27178     27176     27175     27183
     27178     27176     27175     27187     27178     27176     27191     27192
     27178     27176     27191     27193     27178     27176     27191     27197
     27179     27175     27176     27191     27179     27175     27183     27184
     27179     27175     27183     27185     27179     27175     27183     27186
     27179     27175     27187     27188     27179     27175     27187     27189
     27179     27175     27187     27190     27180     27179     27175     27183
     27180     27179     27175     27187     27181     27179     27175     27183
     27181     27179     27175     27187     27182     27179     27175     27183
     27182     27179     27175     27187     27183     27175     27176     27191
     27183     27175     27187     27188     27183     27175     27187     27189
     27183     27175     27187     27190     27184     27183     27175     27187
     27185     27183     27175     27187     27186     27183     27175     27187
     27187     27175     27176     27191     27191     27197     27194     27195
     27191     27197     27194     27196     27191     27197     27194     27198
     27192     27191     27197     27194     27193     27191     27197     27194
     27194     27198     27199     27200     27194     27198     27199     27201
     27194     27198     27199     27202     27195     27194     27198     27199
     27196     27194     27198     27199     27197     27194     27198     27199
     27198     27199     27202     27203     27198     27199     27202     27204
     27198     27199     27202     27210     27199     27202     27204     27205
     27199     27202     27210     27211     27199     27202     27210     27212
     27199     27202     27210     27213     27200     27199     27202     27203
     27200     27199     27202     27204     27200     27199     27202     27210
     27201     27199     27202     27203     27201     27199     27202     27204
     27201     27199     27202     27210     27202     27204     27205     27206
     27202     27204     27205     27207     27202     27210     27213     27214
     27203     27202     27204     27205     27203     27202     27210     27211
     27203     27202     27210     27212     27203     27202     27210     27213
     27204     27202     27210     27211     27204     27202     27210     27212
     27204     27202     27210     27213     27204     27205     27207     27208
     27204     27205     27207     27209     27204     27205     27207     27219
     27205     27204     27202     27210     27205     27207     27219     27220
     27205     27207     27219     27221     27205     27207     27219     27222
     27206     27205     27207     27208     27206     27205     27207     27209
     27206     27205     27207     27219     27207     27219     27222     27223
     27207     27219     27222     27224     27207     27219     27222     27225
     27208     27207     27219     27220     27208     27207     27219     27221
     27208     27207     27219     27222     27209     27207     27219     27220
     27209     27207     27219     27221     27209     27207     27219     27222
     27210     27213     27214     27215     27210     27213     27214     27216
     27211     27210     27213     27214     27212     27210     27213     27214
     27213     27214     27216     27217     27213     27214     27216     27218
     27213     27214     27216     27266     27214     27216     27266     27267
     27214     27216     27266     27268     27214     27216     27266     27269
     27215     27214     27216     27217     27215     27214     27216     27218
     27215     27214     27216     27266     27216     27266     27269     27270
     27216     27266     27269     27271     27216     27266     27269     27272
     27217     27216     27266     27267     27217     27216     27266     27268
     27217     27216     27266     27269     27218     27216     27266     27267
     27218     27216     27266     27268     27218     27216     27266     27269
     27219     27222     27225     27226     27219     27222     27225     27227
     27219     27222     27225     27228     27220     27219     27222     27223
     27220     27219     27222     27224     27220     27219     27222     27225
     27221     27219     27222     27223     27221     27219     27222     27224
     27221     27219     27222     27225     27222     27225     27228     27229
     27222     27225     27228     27230     27222     27225     27228     27231
     27223     27222     27225     27226     27223     27222     27225     27227
     27223     27222     27225     27228     27224     27222     27225     27226
     27224     27222     27225     27227     27224     27222     27225     27228
     27225     27228     27231     27232     27225     27228     27231     27233
     27225     27228     27231     27234     27226     27225     27228     27229
     27226     27225     27228     27230     27226     27225     27228     27231
     27227     27225     27228     27229     27227     27225     27228     27230
     27227     27225     27228     27231     27228     27231     27234     27235
     27228     27231     27234     27236     27228     27231     27234     27237
     27229     27228     27231     27232     27229     27228     27231     27233
     27229     27228     27231     27234     27230     27228     27231     27232
     27230     27228     27231     27233     27230     27228     27231     27234
     27231     27234     27237     27238     27231     27234     27237     27239
     27232     27231     27234     27235     27232     27231     27234     27236
     27232     27231     27234     27237     27233     27231     27234     27235
     27233     27231     27234     27236     27233     27231     27234     27237
     27234     27237     27239     27240     27234     27237     27239     27241
     27235     27234     27237     27238     27235     27234     27237     27239
     27236     27234     27237     27238     27236     27234     27237     27239
     27237     27239     27241     27242     27237     27239     27241     27243
     27237     27239     27241     27244     27238     27237     27239     27240
     27238     27237     27239     27241     27239     27241     27244     27245
     27239     27241     27244     27246     27239     27241     27244     27247
     27240     27239     27241     27242     27240     27239     27241     27243
     27240     27239     27241     27244     27241     27244     27247     27248
     27241     27244     27247     27249     27241     27244     27247     27250
     27242     27241     27244     27245     27242     27241     27244     27246
     27242     27241     27244     27247     27243     27241     27244     27245
     27243     27241     27244     27246     27243     27241     27244     27247
     27244     27247     27250     27251     27244     27247     27250     27252
     27244     27247     27250     27253     27245     27244     27247     27248
     27245     27244     27247     27249     27245     27244     27247     27250
     27246     27244     27247     27248     27246     27244     27247     27249
     27246     27244     27247     27250     27247     27250     27253     27254
     27247     27250     27253     27255     27247     27250     27253     27256
     27248     27247     27250     27251     27248     27247     27250     27252
     27248     27247     27250     27253     27249     27247     27250     27251
     27249     27247     27250     27252     27249     27247     27250     27253
     27250     27253     27256     27257     27250     27253     27256     27258
     27250     27253     27256     27259     27251     27250     27253     27254
     27251     27250     27253     27255     27251     27250     27253     27256
     27252     27250     27253     27254     27252     27250     27253     27255
     27252     27250     27253     27256     27253     27256     27259     27260
     27253     27256     27259     27261     27253     27256     27259     27262
     27254     27253     27256     27257     27254     27253     27256     27258
     27254     27253     27256     27259     27255     27253     27256     27257
     27255     27253     27256     27258     27255     27253     27256     27259
     27256     27259     27262     27263     27256     27259     27262     27264
     27256     27259     27262     27265     27257     27256     27259     27260
     27257     27256     27259     27261     27257     27256     27259     27262
     27258     27256     27259     27260     27258     27256     27259     27261
     27258     27256     27259     27262     27260     27259     27262     27263
     27260     27259     27262     27264     27260     27259     27262     27265
     27261     27259     27262     27263     27261     27259     27262     27264
     27261     27259     27262     27265     27266     27269     27272     27273
     27266     27269     27272     27274     27266     27269     27272     27275
     27267     27266     27269     27270     27267     27266     27269     27271
     27267     27266     27269     27272     27268     27266     27269     27270
     27268     27266     27269     27271     27268     27266     27269     27272
     27269     27272     27275     27276     27269     27272     27275     27277
     27269     27272     27275     27278     27270     27269     27272     27273
     27270     27269     27272     27274     27270     27269     27272     27275
     27271     27269     27272     27273     27271     27269     27272     27274
     27271     27269     27272     27275     27272     27275     27278     27279
     27272     27275     27278     27280     27272     27275     27278     27281
     27273     27272     27275     27276     27273     27272     27275     27277
     27273     27272     27275     27278     27274     27272     27275     27276
     27274     27272     27275     27277     27274     27272     27275     27278
     27275     27278     27281     27282     27275     27278     27281     27283
     27275     27278     27281     27284     27276     27275     27278     27279
     27276     27275     27278     27280     27276     27275     27278     27281
     27277     27275     27278     27279     27277     27275     27278     27280
     27277     27275     27278     27281     27278     27281     27284     27285
     27278     27281     27284     27286     27278     27281     27284     27287
     27279     27278     27281     27282     27279     27278     27281     27283
     27279     27278     27281     27284     27280     27278     27281     27282
     27280     27278     27281     27283     27280     27278     27281     27284
     27281     27284     27287     27288     27281     27284     27287     27289
     27281     27284     27287     27290     27282     27281     27284     27285
     27282     27281     27284     27286     27282     27281     27284     27287
     27283     27281     27284     27285     27283     27281     27284     27286
     27283     27281     27284     27287     27284     27287     27290     27291
     27284     27287     27290     27292     27284     27287     27290     27293
     27285     27284     27287     27288     27285     27284     27287     27289
     27285     27284     27287     27290     27286     27284     27287     27288
     27286     27284     27287     27289     27286     27284     27287     27290
     27287     27290     27293     27294     27287     27290     27293     27295
     27287     27290     27293     27296     27288     27287     27290     27291
     27288     27287     27290     27292     27288     27287     27290     27293
     27289     27287     27290     27291     27289     27287     27290     27292
     27289     27287     27290     27293     27290     27293     27296     27297
     27290     27293     27296     27298     27290     27293     27296     27299
     27291     27290     27293     27294     27291     27290     27293     27295
     27291     27290     27293     27296     27292     27290     27293     27294
     27292     27290     27293     27295     27292     27290     27293     27296
     27293     27296     27299     27300     27293     27296     27299     27301
     27293     27296     27299     27302     27294     27293     27296     27297
     27294     27293     27296     27298     27294     27293     27296     27299
     27295     27293     27296     27297     27295     27293     27296     27298
     27295     27293     27296     27299     27296     27299     27302     27303
     27296     27299     27302     27304     27296     27299     27302     27305
     27297     27296     27299     27300     27297     27296     27299     27301
     27297     27296     27299     27302     27298     27296     27299     27300
     27298     27296     27299     27301     27298     27296     27299     27302
     27299     27302     27305     27306     27299     27302     27305     27307
     27299     27302     27305     27308     27300     27299     27302     27303
     27300     27299     27302     27304     27300     27299     27302     27305
     27301     27299     27302     27303     27301     27299     27302     27304
     27301     27299     27302     27305     27303     27302     27305     27306
     27303     27302     27305     27307     27303     27302     27305     27308
     27304     27302     27305     27306     27304     27302     27305     27307
     27304     27302     27305     27308     27309     27310     27325     27326
     27309     27310     27325     27327     27309     27310     27325     27331
     27310     27309     27313     27314     27310     27309     27313     27315
     27310     27309     27313     27316     27310     27309     27317     27318
     27310     27309     27317     27319     27310     27309     27317     27320
     27310     27309     27321     27322     27310     27309     27321     27323
     27310     27309     27321     27324     27310     27325     27331     27328
     27311     27310     27309     27313     27311     27310     27309     27317
     27311     27310     27309     27321     27311     27310     27325     27326
     27311     27310     27325     27327     27311     27310     27325     27331
     27312     27310     27309     27313     27312     27310     27309     27317
     27312     27310     27309     27321     27312     27310     27325     27326
     27312     27310     27325     27327     27312     27310     27325     27331
     27313     27309     27310     27325     27313     27309     27317     27318
     27313     27309     27317     27319     27313     27309     27317     27320
     27313     27309     27321     27322     27313     27309     27321     27323
     27313     27309     27321     27324     27314     27313     27309     27317
     27314     27313     27309     27321     27315     27313     27309     27317
     27315     27313     27309     27321     27316     27313     27309     27317
     27316     27313     27309     27321     27317     27309     27310     27325
     27317     27309     27321     27322     27317     27309     27321     27323
     27317     27309     27321     27324     27318     27317     27309     27321
     27319     27317     27309     27321     27320     27317     27309     27321
     27321     27309     27310     27325     27325     27331     27328     27329
     27325     27331     27328     27330     27325     27331     27328     27332
     27326     27325     27331     27328     27327     27325     27331     27328
     27328     27332     27333     27334     27328     27332     27333     27335
     27328     27332     27333     27336     27329     27328     27332     27333
     27330     27328     27332     27333     27331     27328     27332     27333
     27332     27333     27336     27337     27332     27333     27336     27338
     27332     27333     27336     27344     27333     27336     27338     27339
     27333     27336     27344     27345     27333     27336     27344     27346
     27333     27336     27344     27347     27334     27333     27336     27337
     27334     27333     27336     27338     27334     27333     27336     27344
     27335     27333     27336     27337     27335     27333     27336     27338
     27335     27333     27336     27344     27336     27338     27339     27340
     27336     27338     27339     27341     27336     27344     27347     27348
     27337     27336     27338     27339     27337     27336     27344     27345
     27337     27336     27344     27346     27337     27336     27344     27347
     27338     27336     27344     27345     27338     27336     27344     27346
     27338     27336     27344     27347     27338     27339     27341     27342
     27338     27339     27341     27343     27338     27339     27341     27353
     27339     27338     27336     27344     27339     27341     27353     27354
     27339     27341     27353     27355     27339     27341     27353     27356
     27340     27339     27341     27342     27340     27339     27341     27343
     27340     27339     27341     27353     27341     27353     27356     27357
     27341     27353     27356     27358     27341     27353     27356     27359
     27342     27341     27353     27354     27342     27341     27353     27355
     27342     27341     27353     27356     27343     27341     27353     27354
     27343     27341     27353     27355     27343     27341     27353     27356
     27344     27347     27348     27349     27344     27347     27348     27350
     27345     27344     27347     27348     27346     27344     27347     27348
     27347     27348     27350     27351     27347     27348     27350     27352
     27347     27348     27350     27400     27348     27350     27400     27401
     27348     27350     27400     27402     27348     27350     27400     27403
     27349     27348     27350     27351     27349     27348     27350     27352
     27349     27348     27350     27400     27350     27400     27403     27404
     27350     27400     27403     27405     27350     27400     27403     27406
     27351     27350     27400     27401     27351     27350     27400     27402
     27351     27350     27400     27403     27352     27350     27400     27401
     27352     27350     27400     27402     27352     27350     27400     27403
     27353     27356     27359     27360     27353     27356     27359     27361
     27353     27356     27359     27362     27354     27353     27356     27357
     27354     27353     27356     27358     27354     27353     27356     27359
     27355     27353     27356     27357     27355     27353     27356     27358
     27355     27353     27356     27359     27356     27359     27362     27363
     27356     27359     27362     27364     27356     27359     27362     27365
     27357     27356     27359     27360     27357     27356     27359     27361
     27357     27356     27359     27362     27358     27356     27359     27360
     27358     27356     27359     27361     27358     27356     27359     27362
     27359     27362     27365     27366     27359     27362     27365     27367
     27359     27362     27365     27368     27360     27359     27362     27363
     27360     27359     27362     27364     27360     27359     27362     27365
     27361     27359     27362     27363     27361     27359     27362     27364
     27361     27359     27362     27365     27362     27365     27368     27369
     27362     27365     27368     27370     27362     27365     27368     27371
     27363     27362     27365     27366     27363     27362     27365     27367
     27363     27362     27365     27368     27364     27362     27365     27366
     27364     27362     27365     27367     27364     27362     27365     27368
     27365     27368     27371     27372     27365     27368     27371     27373
     27366     27365     27368     27369     27366     27365     27368     27370
     27366     27365     27368     27371     27367     27365     27368     27369
     27367     27365     27368     27370     27367     27365     27368     27371
     27368     27371     27373     27374     27368     27371     27373     27375
     27369     27368     27371     27372     27369     27368     27371     27373
     27370     27368     27371     27372     27370     27368     27371     27373
     27371     27373     27375     27376     27371     27373     27375     27377
     27371     27373     27375     27378     27372     27371     27373     27374
     27372     27371     27373     27375     27373     27375     27378     27379
     27373     27375     27378     27380     27373     27375     27378     27381
     27374     27373     27375     27376     27374     27373     27375     27377
     27374     27373     27375     27378     27375     27378     27381     27382
     27375     27378     27381     27383     27375     27378     27381     27384
     27376     27375     27378     27379     27376     27375     27378     27380
     27376     27375     27378     27381     27377     27375     27378     27379
     27377     27375     27378     27380     27377     27375     27378     27381
     27378     27381     27384     27385     27378     27381     27384     27386
     27378     27381     27384     27387     27379     27378     27381     27382
     27379     27378     27381     27383     27379     27378     27381     27384
     27380     27378     27381     27382     27380     27378     27381     27383
     27380     27378     27381     27384     27381     27384     27387     27388
     27381     27384     27387     27389     27381     27384     27387     27390
     27382     27381     27384     27385     27382     27381     27384     27386
     27382     27381     27384     27387     27383     27381     27384     27385
     27383     27381     27384     27386     27383     27381     27384     27387
     27384     27387     27390     27391     27384     27387     27390     27392
     27384     27387     27390     27393     27385     27384     27387     27388
     27385     27384     27387     27389     27385     27384     27387     27390
     27386     27384     27387     27388     27386     27384     27387     27389
     27386     27384     27387     27390     27387     27390     27393     27394
     27387     27390     27393     27395     27387     27390     27393     27396
     27388     27387     27390     27391     27388     27387     27390     27392
     27388     27387     27390     27393     27389     27387     27390     27391
     27389     27387     27390     27392     27389     27387     27390     27393
     27390     27393     27396     27397     27390     27393     27396     27398
     27390     27393     27396     27399     27391     27390     27393     27394
     27391     27390     27393     27395     27391     27390     27393     27396
     27392     27390     27393     27394     27392     27390     27393     27395
     27392     27390     27393     27396     27394     27393     27396     27397
     27394     27393     27396     27398     27394     27393     27396     27399
     27395     27393     27396     27397     27395     27393     27396     27398
     27395     27393     27396     27399     27400     27403     27406     27407
     27400     27403     27406     27408     27400     27403     27406     27409
     27401     27400     27403     27404     27401     27400     27403     27405
     27401     27400     27403     27406     27402     27400     27403     27404
     27402     27400     27403     27405     27402     27400     27403     27406
     27403     27406     27409     27410     27403     27406     27409     27411
     27403     27406     27409     27412     27404     27403     27406     27407
     27404     27403     27406     27408     27404     27403     27406     27409
     27405     27403     27406     27407     27405     27403     27406     27408
     27405     27403     27406     27409     27406     27409     27412     27413
     27406     27409     27412     27414     27406     27409     27412     27415
     27407     27406     27409     27410     27407     27406     27409     27411
     27407     27406     27409     27412     27408     27406     27409     27410
     27408     27406     27409     27411     27408     27406     27409     27412
     27409     27412     27415     27416     27409     27412     27415     27417
     27409     27412     27415     27418     27410     27409     27412     27413
     27410     27409     27412     27414     27410     27409     27412     27415
     27411     27409     27412     27413     27411     27409     27412     27414
     27411     27409     27412     27415     27412     27415     27418     27419
     27412     27415     27418     27420     27412     27415     27418     27421
     27413     27412     27415     27416     27413     27412     27415     27417
     27413     27412     27415     27418     27414     27412     27415     27416
     27414     27412     27415     27417     27414     27412     27415     27418
     27415     27418     27421     27422     27415     27418     27421     27423
     27415     27418     27421     27424     27416     27415     27418     27419
     27416     27415     27418     27420     27416     27415     27418     27421
     27417     27415     27418     27419     27417     27415     27418     27420
     27417     27415     27418     27421     27418     27421     27424     27425
     27418     27421     27424     27426     27418     27421     27424     27427
     27419     27418     27421     27422     27419     27418     27421     27423
     27419     27418     27421     27424     27420     27418     27421     27422
     27420     27418     27421     27423     27420     27418     27421     27424
     27421     27424     27427     27428     27421     27424     27427     27429
     27421     27424     27427     27430     27422     27421     27424     27425
     27422     27421     27424     27426     27422     27421     27424     27427
     27423     27421     27424     27425     27423     27421     27424     27426
     27423     27421     27424     27427     27424     27427     27430     27431
     27424     27427     27430     27432     27424     27427     27430     27433
     27425     27424     27427     27428     27425     27424     27427     27429
     27425     27424     27427     27430     27426     27424     27427     27428
     27426     27424     27427     27429     27426     27424     27427     27430
     27427     27430     27433     27434     27427     27430     27433     27435
     27427     27430     27433     27436     27428     27427     27430     27431
     27428     27427     27430     27432     27428     27427     27430     27433
     27429     27427     27430     27431     27429     27427     27430     27432
     27429     27427     27430     27433     27430     27433     27436     27437
     27430     27433     27436     27438     27430     27433     27436     27439
     27431     27430     27433     27434     27431     27430     27433     27435
     27431     27430     27433     27436     27432     27430     27433     27434
     27432     27430     27433     27435     27432     27430     27433     27436
     27433     27436     27439     27440     27433     27436     27439     27441
     27433     27436     27439     27442     27434     27433     27436     27437
     27434     27433     27436     27438     27434     27433     27436     27439
     27435     27433     27436     27437     27435     27433     27436     27438
     27435     27433     27436     27439     27437     27436     27439     27440
     27437     27436     27439     27441     27437     27436     27439     27442
     27438     27436     27439     27440     27438     27436     27439     27441
     27438     27436     27439     27442     27443     27444     27459     27460
     27443     27444     27459     27461     27443     27444     27459     27465
     27444     27443     27447     27448     27444     27443     27447     27449
     27444     27443     27447     27450     27444     27443     27451     27452
     27444     27443     27451     27453     27444     27443     27451     27454
     27444     27443     27455     27456     27444     27443     27455     27457
     27444     27443     27455     27458     27444     27459     27465     27462
     27445     27444     27443     27447     27445     27444     27443     27451
     27445     27444     27443     27455     27445     27444     27459     27460
     27445     27444     27459     27461     27445     27444     27459     27465
     27446     27444     27443     27447     27446     27444     27443     27451
     27446     27444     27443     27455     27446     27444     27459     27460
     27446     27444     27459     27461     27446     27444     27459     27465
     27447     27443     27444     27459     27447     27443     27451     27452
     27447     27443     27451     27453     27447     27443     27451     27454
     27447     27443     27455     27456     27447     27443     27455     27457
     27447     27443     27455     27458     27448     27447     27443     27451
     27448     27447     27443     27455     27449     27447     27443     27451
     27449     27447     27443     27455     27450     27447     27443     27451
     27450     27447     27443     27455     27451     27443     27444     27459
     27451     27443     27455     27456     27451     27443     27455     27457
     27451     27443     27455     27458     27452     27451     27443     27455
     27453     27451     27443     27455     27454     27451     27443     27455
     27455     27443     27444     27459     27459     27465     27462     27463
     27459     27465     27462     27464     27459     27465     27462     27466
     27460     27459     27465     27462     27461     27459     27465     27462
     27462     27466     27467     27468     27462     27466     27467     27469
     27462     27466     27467     27470     27463     27462     27466     27467
     27464     27462     27466     27467     27465     27462     27466     27467
     27466     27467     27470     27471     27466     27467     27470     27472
     27466     27467     27470     27478     27467     27470     27472     27473
     27467     27470     27478     27479     27467     27470     27478     27480
     27467     27470     27478     27481     27468     27467     27470     27471
     27468     27467     27470     27472     27468     27467     27470     27478
     27469     27467     27470     27471     27469     27467     27470     27472
     27469     27467     27470     27478     27470     27472     27473     27474
     27470     27472     27473     27475     27470     27478     27481     27482
     27471     27470     27472     27473     27471     27470     27478     27479
     27471     27470     27478     27480     27471     27470     27478     27481
     27472     27470     27478     27479     27472     27470     27478     27480
     27472     27470     27478     27481     27472     27473     27475     27476
     27472     27473     27475     27477     27472     27473     27475     27487
     27473     27472     27470     27478     27473     27475     27487     27488
     27473     27475     27487     27489     27473     27475     27487     27490
     27474     27473     27475     27476     27474     27473     27475     27477
     27474     27473     27475     27487     27475     27487     27490     27491
     27475     27487     27490     27492     27475     27487     27490     27493
     27476     27475     27487     27488     27476     27475     27487     27489
     27476     27475     27487     27490     27477     27475     27487     27488
     27477     27475     27487     27489     27477     27475     27487     27490
     27478     27481     27482     27483     27478     27481     27482     27484
     27479     27478     27481     27482     27480     27478     27481     27482
     27481     27482     27484     27485     27481     27482     27484     27486
     27481     27482     27484     27534     27482     27484     27534     27535
     27482     27484     27534     27536     27482     27484     27534     27537
     27483     27482     27484     27485     27483     27482     27484     27486
     27483     27482     27484     27534     27484     27534     27537     27538
     27484     27534     27537     27539     27484     27534     27537     27540
     27485     27484     27534     27535     27485     27484     27534     27536
     27485     27484     27534     27537     27486     27484     27534     27535
     27486     27484     27534     27536     27486     27484     27534     27537
     27487     27490     27493     27494     27487     27490     27493     27495
     27487     27490     27493     27496     27488     27487     27490     27491
     27488     27487     27490     27492     27488     27487     27490     27493
     27489     27487     27490     27491     27489     27487     27490     27492
     27489     27487     27490     27493     27490     27493     27496     27497
     27490     27493     27496     27498     27490     27493     27496     27499
     27491     27490     27493     27494     27491     27490     27493     27495
     27491     27490     27493     27496     27492     27490     27493     27494
     27492     27490     27493     27495     27492     27490     27493     27496
     27493     27496     27499     27500     27493     27496     27499     27501
     27493     27496     27499     27502     27494     27493     27496     27497
     27494     27493     27496     27498     27494     27493     27496     27499
     27495     27493     27496     27497     27495     27493     27496     27498
     27495     27493     27496     27499     27496     27499     27502     27503
     27496     27499     27502     27504     27496     27499     27502     27505
     27497     27496     27499     27500     27497     27496     27499     27501
     27497     27496     27499     27502     27498     27496     27499     27500
     27498     27496     27499     27501     27498     27496     27499     27502
     27499     27502     27505     27506     27499     27502     27505     27507
     27500     27499     27502     27503     27500     27499     27502     27504
     27500     27499     27502     27505     27501     27499     27502     27503
     27501     27499     27502     27504     27501     27499     27502     27505
     27502     27505     27507     27508     27502     27505     27507     27509
     27503     27502     27505     27506     27503     27502     27505     27507
     27504     27502     27505     27506     27504     27502     27505     27507
     27505     27507     27509     27510     27505     27507     27509     27511
     27505     27507     27509     27512     27506     27505     27507     27508
     27506     27505     27507     27509     27507     27509     27512     27513
     27507     27509     27512     27514     27507     27509     27512     27515
     27508     27507     27509     27510     27508     27507     27509     27511
     27508     27507     27509     27512     27509     27512     27515     27516
     27509     27512     27515     27517     27509     27512     27515     27518
     27510     27509     27512     27513     27510     27509     27512     27514
     27510     27509     27512     27515     27511     27509     27512     27513
     27511     27509     27512     27514     27511     27509     27512     27515
     27512     27515     27518     27519     27512     27515     27518     27520
     27512     27515     27518     27521     27513     27512     27515     27516
     27513     27512     27515     27517     27513     27512     27515     27518
     27514     27512     27515     27516     27514     27512     27515     27517
     27514     27512     27515     27518     27515     27518     27521     27522
     27515     27518     27521     27523     27515     27518     27521     27524
     27516     27515     27518     27519     27516     27515     27518     27520
     27516     27515     27518     27521     27517     27515     27518     27519
     27517     27515     27518     27520     27517     27515     27518     27521
     27518     27521     27524     27525     27518     27521     27524     27526
     27518     27521     27524     27527     27519     27518     27521     27522
     27519     27518     27521     27523     27519     27518     27521     27524
     27520     27518     27521     27522     27520     27518     27521     27523
     27520     27518     27521     27524     27521     27524     27527     27528
     27521     27524     27527     27529     27521     27524     27527     27530
     27522     27521     27524     27525     27522     27521     27524     27526
     27522     27521     27524     27527     27523     27521     27524     27525
     27523     27521     27524     27526     27523     27521     27524     27527
     27524     27527     27530     27531     27524     27527     27530     27532
     27524     27527     27530     27533     27525     27524     27527     27528
     27525     27524     27527     27529     27525     27524     27527     27530
     27526     27524     27527     27528     27526     27524     27527     27529
     27526     27524     27527     27530     27528     27527     27530     27531
     27528     27527     27530     27532     27528     27527     27530     27533
     27529     27527     27530     27531     27529     27527     27530     27532
     27529     27527     27530     27533     27534     27537     27540     27541
     27534     27537     27540     27542     27534     27537     27540     27543
     27535     27534     27537     27538     27535     27534     27537     27539
     27535     27534     27537     27540     27536     27534     27537     27538
     27536     27534     27537     27539     27536     27534     27537     27540
     27537     27540     27543     27544     27537     27540     27543     27545
     27537     27540     27543     27546     27538     27537     27540     27541
     27538     27537     27540     27542     27538     27537     27540     27543
     27539     27537     27540     27541     27539     27537     27540     27542
     27539     27537     27540     27543     27540     27543     27546     27547
     27540     27543     27546     27548     27540     27543     27546     27549
     27541     27540     27543     27544     27541     27540     27543     27545
     27541     27540     27543     27546     27542     27540     27543     27544
     27542     27540     27543     27545     27542     27540     27543     27546
     27543     27546     27549     27550     27543     27546     27549     27551
     27543     27546     27549     27552     27544     27543     27546     27547
     27544     27543     27546     27548     27544     27543     27546     27549
     27545     27543     27546     27547     27545     27543     27546     27548
     27545     27543     27546     27549     27546     27549     27552     27553
     27546     27549     27552     27554     27546     27549     27552     27555
     27547     27546     27549     27550     27547     27546     27549     27551
     27547     27546     27549     27552     27548     27546     27549     27550
     27548     27546     27549     27551     27548     27546     27549     27552
     27549     27552     27555     27556     27549     27552     27555     27557
     27549     27552     27555     27558     27550     27549     27552     27553
     27550     27549     27552     27554     27550     27549     27552     27555
     27551     27549     27552     27553     27551     27549     27552     27554
     27551     27549     27552     27555     27552     27555     27558     27559
     27552     27555     27558     27560     27552     27555     27558     27561
     27553     27552     27555     27556     27553     27552     27555     27557
     27553     27552     27555     27558     27554     27552     27555     27556
     27554     27552     27555     27557     27554     27552     27555     27558
     27555     27558     27561     27562     27555     27558     27561     27563
     27555     27558     27561     27564     27556     27555     27558     27559
     27556     27555     27558     27560     27556     27555     27558     27561
     27557     27555     27558     27559     27557     27555     27558     27560
     27557     27555     27558     27561     27558     27561     27564     27565
     27558     27561     27564     27566     27558     27561     27564     27567
     27559     27558     27561     27562     27559     27558     27561     27563
     27559     27558     27561     27564     27560     27558     27561     27562
     27560     27558     27561     27563     27560     27558     27561     27564
     27561     27564     27567     27568     27561     27564     27567     27569
     27561     27564     27567     27570     27562     27561     27564     27565
     27562     27561     27564     27566     27562     27561     27564     27567
     27563     27561     27564     27565     27563     27561     27564     27566
     27563     27561     27564     27567     27564     27567     27570     27571
     27564     27567     27570     27572     27564     27567     27570     27573
     27565     27564     27567     27568     27565     27564     27567     27569
     27565     27564     27567     27570     27566     27564     27567     27568
     27566     27564     27567     27569     27566     27564     27567     27570
     27567     27570     27573     27574     27567     27570     27573     27575
     27567     27570     27573     27576     27568     27567     27570     27571
     27568     27567     27570     27572     27568     27567     27570     27573
     27569     27567     27570     27571     27569     27567     27570     27572
     27569     27567     27570     27573     27571     27570     27573     27574
     27571     27570     27573     27575     27571     27570     27573     27576
     27572     27570     27573     27574     27572     27570     27573     27575
     27572     27570     27573     27576     27577     27578     27593     27594
     27577     27578     27593     27595     27577     27578     27593     27599
     27578     27577     27581     27582     27578     27577     27581     27583
     27578     27577     27581     27584     27578     27577     27585     27586
     27578     27577     27585     27587     27578     27577     27585     27588
     27578     27577     27589     27590     27578     27577     27589     27591
     27578     27577     27589     27592     27578     27593     27599     27596
     27579     27578     27577     27581     27579     27578     27577     27585
     27579     27578     27577     27589     27579     27578     27593     27594
     27579     27578     27593     27595     27579     27578     27593     27599
     27580     27578     27577     27581     27580     27578     27577     27585
     27580     27578     27577     27589     27580     27578     27593     27594
     27580     27578     27593     27595     27580     27578     27593     27599
     27581     27577     27578     27593     27581     27577     27585     27586
     27581     27577     27585     27587     27581     27577     27585     27588
     27581     27577     27589     27590     27581     27577     27589     27591
     27581     27577     27589     27592     27582     27581     27577     27585
     27582     27581     27577     27589     27583     27581     27577     27585
     27583     27581     27577     27589     27584     27581     27577     27585
     27584     27581     27577     27589     27585     27577     27578     27593
     27585     27577     27589     27590     27585     27577     27589     27591
     27585     27577     27589     27592     27586     27585     27577     27589
     27587     27585     27577     27589     27588     27585     27577     27589
     27589     27577     27578     27593     27593     27599     27596     27597
     27593     27599     27596     27598     27593     27599     27596     27600
     27594     27593     27599     27596     27595     27593     27599     27596
     27596     27600     27601     27602     27596     27600     27601     27603
     27596     27600     27601     27604     27597     27596     27600     27601
     27598     27596     27600     27601     27599     27596     27600     27601
     27600     27601     27604     27605     27600     27601     27604     27606
     27600     27601     27604     27612     27601     27604     27606     27607
     27601     27604     27612     27613     27601     27604     27612     27614
     27601     27604     27612     27615     27602     27601     27604     27605
     27602     27601     27604     27606     27602     27601     27604     27612
     27603     27601     27604     27605     27603     27601     27604     27606
     27603     27601     27604     27612     27604     27606     27607     27608
     27604     27606     27607     27609     27604     27612     27615     27616
     27605     27604     27606     27607     27605     27604     27612     27613
     27605     27604     27612     27614     27605     27604     27612     27615
     27606     27604     27612     27613     27606     27604     27612     27614
     27606     27604     27612     27615     27606     27607     27609     27610
     27606     27607     27609     27611     27606     27607     27609     27621
     27607     27606     27604     27612     27607     27609     27621     27622
     27607     27609     27621     27623     27607     27609     27621     27624
     27608     27607     27609     27610     27608     27607     27609     27611
     27608     27607     27609     27621     27609     27621     27624     27625
     27609     27621     27624     27626     27609     27621     27624     27627
     27610     27609     27621     27622     27610     27609     27621     27623
     27610     27609     27621     27624     27611     27609     27621     27622
     27611     27609     27621     27623     27611     27609     27621     27624
     27612     27615     27616     27617     27612     27615     27616     27618
     27613     27612     27615     27616     27614     27612     27615     27616
     27615     27616     27618     27619     27615     27616     27618     27620
     27615     27616     27618     27668     27616     27618     27668     27669
     27616     27618     27668     27670     27616     27618     27668     27671
     27617     27616     27618     27619     27617     27616     27618     27620
     27617     27616     27618     27668     27618     27668     27671     27672
     27618     27668     27671     27673     27618     27668     27671     27674
     27619     27618     27668     27669     27619     27618     27668     27670
     27619     27618     27668     27671     27620     27618     27668     27669
     27620     27618     27668     27670     27620     27618     27668     27671
     27621     27624     27627     27628     27621     27624     27627     27629
     27621     27624     27627     27630     27622     27621     27624     27625
     27622     27621     27624     27626     27622     27621     27624     27627
     27623     27621     27624     27625     27623     27621     27624     27626
     27623     27621     27624     27627     27624     27627     27630     27631
     27624     27627     27630     27632     27624     27627     27630     27633
     27625     27624     27627     27628     27625     27624     27627     27629
     27625     27624     27627     27630     27626     27624     27627     27628
     27626     27624     27627     27629     27626     27624     27627     27630
     27627     27630     27633     27634     27627     27630     27633     27635
     27627     27630     27633     27636     27628     27627     27630     27631
     27628     27627     27630     27632     27628     27627     27630     27633
     27629     27627     27630     27631     27629     27627     27630     27632
     27629     27627     27630     27633     27630     27633     27636     27637
     27630     27633     27636     27638     27630     27633     27636     27639
     27631     27630     27633     27634     27631     27630     27633     27635
     27631     27630     27633     27636     27632     27630     27633     27634
     27632     27630     27633     27635     27632     27630     27633     27636
     27633     27636     27639     27640     27633     27636     27639     27641
     27634     27633     27636     27637     27634     27633     27636     27638
     27634     27633     27636     27639     27635     27633     27636     27637
     27635     27633     27636     27638     27635     27633     27636     27639
     27636     27639     27641     27642     27636     27639     27641     27643
     27637     27636     27639     27640     27637     27636     27639     27641
     27638     27636     27639     27640     27638     27636     27639     27641
     27639     27641     27643     27644     27639     27641     27643     27645
     27639     27641     27643     27646     27640     27639     27641     27642
     27640     27639     27641     27643     27641     27643     27646     27647
     27641     27643     27646     27648     27641     27643     27646     27649
     27642     27641     27643     27644     27642     27641     27643     27645
     27642     27641     27643     27646     27643     27646     27649     27650
     27643     27646     27649     27651     27643     27646     27649     27652
     27644     27643     27646     27647     27644     27643     27646     27648
     27644     27643     27646     27649     27645     27643     27646     27647
     27645     27643     27646     27648     27645     27643     27646     27649
     27646     27649     27652     27653     27646     27649     27652     27654
     27646     27649     27652     27655     27647     27646     27649     27650
     27647     27646     27649     27651     27647     27646     27649     27652
     27648     27646     27649     27650     27648     27646     27649     27651
     27648     27646     27649     27652     27649     27652     27655     27656
     27649     27652     27655     27657     27649     27652     27655     27658
     27650     27649     27652     27653     27650     27649     27652     27654
     27650     27649     27652     27655     27651     27649     27652     27653
     27651     27649     27652     27654     27651     27649     27652     27655
     27652     27655     27658     27659     27652     27655     27658     27660
     27652     27655     27658     27661     27653     27652     27655     27656
     27653     27652     27655     27657     27653     27652     27655     27658
     27654     27652     27655     27656     27654     27652     27655     27657
     27654     27652     27655     27658     27655     27658     27661     27662
     27655     27658     27661     27663     27655     27658     27661     27664
     27656     27655     27658     27659     27656     27655     27658     27660
     27656     27655     27658     27661     27657     27655     27658     27659
     27657     27655     27658     27660     27657     27655     27658     27661
     27658     27661     27664     27665     27658     27661     27664     27666
     27658     27661     27664     27667     27659     27658     27661     27662
     27659     27658     27661     27663     27659     27658     27661     27664
     27660     27658     27661     27662     27660     27658     27661     27663
     27660     27658     27661     27664     27662     27661     27664     27665
     27662     27661     27664     27666     27662     27661     27664     27667
     27663     27661     27664     27665     27663     27661     27664     27666
     27663     27661     27664     27667     27668     27671     27674     27675
     27668     27671     27674     27676     27668     27671     27674     27677
     27669     27668     27671     27672     27669     27668     27671     27673
     27669     27668     27671     27674     27670     27668     27671     27672
     27670     27668     27671     27673     27670     27668     27671     27674
     27671     27674     27677     27678     27671     27674     27677     27679
     27671     27674     27677     27680     27672     27671     27674     27675
     27672     27671     27674     27676     27672     27671     27674     27677
     27673     27671     27674     27675     27673     27671     27674     27676
     27673     27671     27674     27677     27674     27677     27680     27681
     27674     27677     27680     27682     27674     27677     27680     27683
     27675     27674     27677     27678     27675     27674     27677     27679
     27675     27674     27677     27680     27676     27674     27677     27678
     27676     27674     27677     27679     27676     27674     27677     27680
     27677     27680     27683     27684     27677     27680     27683     27685
     27677     27680     27683     27686     27678     27677     27680     27681
     27678     27677     27680     27682     27678     27677     27680     27683
     27679     27677     27680     27681     27679     27677     27680     27682
     27679     27677     27680     27683     27680     27683     27686     27687
     27680     27683     27686     27688     27680     27683     27686     27689
     27681     27680     27683     27684     27681     27680     27683     27685
     27681     27680     27683     27686     27682     27680     27683     27684
     27682     27680     27683     27685     27682     27680     27683     27686
     27683     27686     27689     27690     27683     27686     27689     27691
     27683     27686     27689     27692     27684     27683     27686     27687
     27684     27683     27686     27688     27684     27683     27686     27689
     27685     27683     27686     27687     27685     27683     27686     27688
     27685     27683     27686     27689     27686     27689     27692     27693
     27686     27689     27692     27694     27686     27689     27692     27695
     27687     27686     27689     27690     27687     27686     27689     27691
     27687     27686     27689     27692     27688     27686     27689     27690
     27688     27686     27689     27691     27688     27686     27689     27692
     27689     27692     27695     27696     27689     27692     27695     27697
     27689     27692     27695     27698     27690     27689     27692     27693
     27690     27689     27692     27694     27690     27689     27692     27695
     27691     27689     27692     27693     27691     27689     27692     27694
     27691     27689     27692     27695     27692     27695     27698     27699
     27692     27695     27698     27700     27692     27695     27698     27701
     27693     27692     27695     27696     27693     27692     27695     27697
     27693     27692     27695     27698     27694     27692     27695     27696
     27694     27692     27695     27697     27694     27692     27695     27698
     27695     27698     27701     27702     27695     27698     27701     27703
     27695     27698     27701     27704     27696     27695     27698     27699
     27696     27695     27698     27700     27696     27695     27698     27701
     27697     27695     27698     27699     27697     27695     27698     27700
     27697     27695     27698     27701     27698     27701     27704     27705
     27698     27701     27704     27706     27698     27701     27704     27707
     27699     27698     27701     27702     27699     27698     27701     27703
     27699     27698     27701     27704     27700     27698     27701     27702
     27700     27698     27701     27703     27700     27698     27701     27704
     27701     27704     27707     27708     27701     27704     27707     27709
     27701     27704     27707     27710     27702     27701     27704     27705
     27702     27701     27704     27706     27702     27701     27704     27707
     27703     27701     27704     27705     27703     27701     27704     27706
     27703     27701     27704     27707     27705     27704     27707     27708
     27705     27704     27707     27709     27705     27704     27707     27710
     27706     27704     27707     27708     27706     27704     27707     27709
     27706     27704     27707     27710     27711     27712     27727     27728
     27711     27712     27727     27729     27711     27712     27727     27733
     27712     27711     27715     27716     27712     27711     27715     27717
     27712     27711     27715     27718     27712     27711     27719     27720
     27712     27711     27719     27721     27712     27711     27719     27722
     27712     27711     27723     27724     27712     27711     27723     27725
     27712     27711     27723     27726     27712     27727     27733     27730
     27713     27712     27711     27715     27713     27712     27711     27719
     27713     27712     27711     27723     27713     27712     27727     27728
     27713     27712     27727     27729     27713     27712     27727     27733
     27714     27712     27711     27715     27714     27712     27711     27719
     27714     27712     27711     27723     27714     27712     27727     27728
     27714     27712     27727     27729     27714     27712     27727     27733
     27715     27711     27712     27727     27715     27711     27719     27720
     27715     27711     27719     27721     27715     27711     27719     27722
     27715     27711     27723     27724     27715     27711     27723     27725
     27715     27711     27723     27726     27716     27715     27711     27719
     27716     27715     27711     27723     27717     27715     27711     27719
     27717     27715     27711     27723     27718     27715     27711     27719
     27718     27715     27711     27723     27719     27711     27712     27727
     27719     27711     27723     27724     27719     27711     27723     27725
     27719     27711     27723     27726     27720     27719     27711     27723
     27721     27719     27711     27723     27722     27719     27711     27723
     27723     27711     27712     27727     27727     27733     27730     27731
     27727     27733     27730     27732     27727     27733     27730     27734
     27728     27727     27733     27730     27729     27727     27733     27730
     27730     27734     27735     27736     27730     27734     27735     27737
     27730     27734     27735     27738     27731     27730     27734     27735
     27732     27730     27734     27735     27733     27730     27734     27735
     27734     27735     27738     27739     27734     27735     27738     27740
     27734     27735     27738     27746     27735     27738     27740     27741
     27735     27738     27746     27747     27735     27738     27746     27748
     27735     27738     27746     27749     27736     27735     27738     27739
     27736     27735     27738     27740     27736     27735     27738     27746
     27737     27735     27738     27739     27737     27735     27738     27740
     27737     27735     27738     27746     27738     27740     27741     27742
     27738     27740     27741     27743     27738     27746     27749     27750
     27739     27738     27740     27741     27739     27738     27746     27747
     27739     27738     27746     27748     27739     27738     27746     27749
     27740     27738     27746     27747     27740     27738     27746     27748
     27740     27738     27746     27749     27740     27741     27743     27744
     27740     27741     27743     27745     27740     27741     27743     27755
     27741     27740     27738     27746     27741     27743     27755     27756
     27741     27743     27755     27757     27741     27743     27755     27758
     27742     27741     27743     27744     27742     27741     27743     27745
     27742     27741     27743     27755     27743     27755     27758     27759
     27743     27755     27758     27760     27743     27755     27758     27761
     27744     27743     27755     27756     27744     27743     27755     27757
     27744     27743     27755     27758     27745     27743     27755     27756
     27745     27743     27755     27757     27745     27743     27755     27758
     27746     27749     27750     27751     27746     27749     27750     27752
     27747     27746     27749     27750     27748     27746     27749     27750
     27749     27750     27752     27753     27749     27750     27752     27754
     27749     27750     27752     27802     27750     27752     27802     27803
     27750     27752     27802     27804     27750     27752     27802     27805
     27751     27750     27752     27753     27751     27750     27752     27754
     27751     27750     27752     27802     27752     27802     27805     27806
     27752     27802     27805     27807     27752     27802     27805     27808
     27753     27752     27802     27803     27753     27752     27802     27804
     27753     27752     27802     27805     27754     27752     27802     27803
     27754     27752     27802     27804     27754     27752     27802     27805
     27755     27758     27761     27762     27755     27758     27761     27763
     27755     27758     27761     27764     27756     27755     27758     27759
     27756     27755     27758     27760     27756     27755     27758     27761
     27757     27755     27758     27759     27757     27755     27758     27760
     27757     27755     27758     27761     27758     27761     27764     27765
     27758     27761     27764     27766     27758     27761     27764     27767
     27759     27758     27761     27762     27759     27758     27761     27763
     27759     27758     27761     27764     27760     27758     27761     27762
     27760     27758     27761     27763     27760     27758     27761     27764
     27761     27764     27767     27768     27761     27764     27767     27769
     27761     27764     27767     27770     27762     27761     27764     27765
     27762     27761     27764     27766     27762     27761     27764     27767
     27763     27761     27764     27765     27763     27761     27764     27766
     27763     27761     27764     27767     27764     27767     27770     27771
     27764     27767     27770     27772     27764     27767     27770     27773
     27765     27764     27767     27768     27765     27764     27767     27769
     27765     27764     27767     27770     27766     27764     27767     27768
     27766     27764     27767     27769     27766     27764     27767     27770
     27767     27770     27773     27774     27767     27770     27773     27775
     27768     27767     27770     27771     27768     27767     27770     27772
     27768     27767     27770     27773     27769     27767     27770     27771
     27769     27767     27770     27772     27769     27767     27770     27773
     27770     27773     27775     27776     27770     27773     27775     27777
     27771     27770     27773     27774     27771     27770     27773     27775
     27772     27770     27773     27774     27772     27770     27773     27775
     27773     27775     27777     27778     27773     27775     27777     27779
     27773     27775     27777     27780     27774     27773     27775     27776
     27774     27773     27775     27777     27775     27777     27780     27781
     27775     27777     27780     27782     27775     27777     27780     27783
     27776     27775     27777     27778     27776     27775     27777     27779
     27776     27775     27777     27780     27777     27780     27783     27784
     27777     27780     27783     27785     27777     27780     27783     27786
     27778     27777     27780     27781     27778     27777     27780     27782
     27778     27777     27780     27783     27779     27777     27780     27781
     27779     27777     27780     27782     27779     27777     27780     27783
     27780     27783     27786     27787     27780     27783     27786     27788
     27780     27783     27786     27789     27781     27780     27783     27784
     27781     27780     27783     27785     27781     27780     27783     27786
     27782     27780     27783     27784     27782     27780     27783     27785
     27782     27780     27783     27786     27783     27786     27789     27790
     27783     27786     27789     27791     27783     27786     27789     27792
     27784     27783     27786     27787     27784     27783     27786     27788
     27784     27783     27786     27789     27785     27783     27786     27787
     27785     27783     27786     27788     27785     27783     27786     27789
     27786     27789     27792     27793     27786     27789     27792     27794
     27786     27789     27792     27795     27787     27786     27789     27790
     27787     27786     27789     27791     27787     27786     27789     27792
     27788     27786     27789     27790     27788     27786     27789     27791
     27788     27786     27789     27792     27789     27792     27795     27796
     27789     27792     27795     27797     27789     27792     27795     27798
     27790     27789     27792     27793     27790     27789     27792     27794
     27790     27789     27792     27795     27791     27789     27792     27793
     27791     27789     27792     27794     27791     27789     27792     27795
     27792     27795     27798     27799     27792     27795     27798     27800
     27792     27795     27798     27801     27793     27792     27795     27796
     27793     27792     27795     27797     27793     27792     27795     27798
     27794     27792     27795     27796     27794     27792     27795     27797
     27794     27792     27795     27798     27796     27795     27798     27799
     27796     27795     27798     27800     27796     27795     27798     27801
     27797     27795     27798     27799     27797     27795     27798     27800
     27797     27795     27798     27801     27802     27805     27808     27809
     27802     27805     27808     27810     27802     27805     27808     27811
     27803     27802     27805     27806     27803     27802     27805     27807
     27803     27802     27805     27808     27804     27802     27805     27806
     27804     27802     27805     27807     27804     27802     27805     27808
     27805     27808     27811     27812     27805     27808     27811     27813
     27805     27808     27811     27814     27806     27805     27808     27809
     27806     27805     27808     27810     27806     27805     27808     27811
     27807     27805     27808     27809     27807     27805     27808     27810
     27807     27805     27808     27811     27808     27811     27814     27815
     27808     27811     27814     27816     27808     27811     27814     27817
     27809     27808     27811     27812     27809     27808     27811     27813
     27809     27808     27811     27814     27810     27808     27811     27812
     27810     27808     27811     27813     27810     27808     27811     27814
     27811     27814     27817     27818     27811     27814     27817     27819
     27811     27814     27817     27820     27812     27811     27814     27815
     27812     27811     27814     27816     27812     27811     27814     27817
     27813     27811     27814     27815     27813     27811     27814     27816
     27813     27811     27814     27817     27814     27817     27820     27821
     27814     27817     27820     27822     27814     27817     27820     27823
     27815     27814     27817     27818     27815     27814     27817     27819
     27815     27814     27817     27820     27816     27814     27817     27818
     27816     27814     27817     27819     27816     27814     27817     27820
     27817     27820     27823     27824     27817     27820     27823     27825
     27817     27820     27823     27826     27818     27817     27820     27821
     27818     27817     27820     27822     27818     27817     27820     27823
     27819     27817     27820     27821     27819     27817     27820     27822
     27819     27817     27820     27823     27820     27823     27826     27827
     27820     27823     27826     27828     27820     27823     27826     27829
     27821     27820     27823     27824     27821     27820     27823     27825
     27821     27820     27823     27826     27822     27820     27823     27824
     27822     27820     27823     27825     27822     27820     27823     27826
     27823     27826     27829     27830     27823     27826     27829     27831
     27823     27826     27829     27832     27824     27823     27826     27827
     27824     27823     27826     27828     27824     27823     27826     27829
     27825     27823     27826     27827     27825     27823     27826     27828
     27825     27823     27826     27829     27826     27829     27832     27833
     27826     27829     27832     27834     27826     27829     27832     27835
     27827     27826     27829     27830     27827     27826     27829     27831
     27827     27826     27829     27832     27828     27826     27829     27830
     27828     27826     27829     27831     27828     27826     27829     27832
     27829     27832     27835     27836     27829     27832     27835     27837
     27829     27832     27835     27838     27830     27829     27832     27833
     27830     27829     27832     27834     27830     27829     27832     27835
     27831     27829     27832     27833     27831     27829     27832     27834
     27831     27829     27832     27835     27832     27835     27838     27839
     27832     27835     27838     27840     27832     27835     27838     27841
     27833     27832     27835     27836     27833     27832     27835     27837
     27833     27832     27835     27838     27834     27832     27835     27836
     27834     27832     27835     27837     27834     27832     27835     27838
     27835     27838     27841     27842     27835     27838     27841     27843
     27835     27838     27841     27844     27836     27835     27838     27839
     27836     27835     27838     27840     27836     27835     27838     27841
     27837     27835     27838     27839     27837     27835     27838     27840
     27837     27835     27838     27841     27839     27838     27841     27842
     27839     27838     27841     27843     27839     27838     27841     27844
     27840     27838     27841     27842     27840     27838     27841     27843
     27840     27838     27841     27844     27845     27846     27861     27862
     27845     27846     27861     27863     27845     27846     27861     27867
     27846     27845     27849     27850     27846     27845     27849     27851
     27846     27845     27849     27852     27846     27845     27853     27854
     27846     27845     27853     27855     27846     27845     27853     27856
     27846     27845     27857     27858     27846     27845     27857     27859
     27846     27845     27857     27860     27846     27861     27867     27864
     27847     27846     27845     27849     27847     27846     27845     27853
     27847     27846     27845     27857     27847     27846     27861     27862
     27847     27846     27861     27863     27847     27846     27861     27867
     27848     27846     27845     27849     27848     27846     27845     27853
     27848     27846     27845     27857     27848     27846     27861     27862
     27848     27846     27861     27863     27848     27846     27861     27867
     27849     27845     27846     27861     27849     27845     27853     27854
     27849     27845     27853     27855     27849     27845     27853     27856
     27849     27845     27857     27858     27849     27845     27857     27859
     27849     27845     27857     27860     27850     27849     27845     27853
     27850     27849     27845     27857     27851     27849     27845     27853
     27851     27849     27845     27857     27852     27849     27845     27853
     27852     27849     27845     27857     27853     27845     27846     27861
     27853     27845     27857     27858     27853     27845     27857     27859
     27853     27845     27857     27860     27854     27853     27845     27857
     27855     27853     27845     27857     27856     27853     27845     27857
     27857     27845     27846     27861     27861     27867     27864     27865
     27861     27867     27864     27866     27861     27867     27864     27868
     27862     27861     27867     27864     27863     27861     27867     27864
     27864     27868     27869     27870     27864     27868     27869     27871
     27864     27868     27869     27872     27865     27864     27868     27869
     27866     27864     27868     27869     27867     27864     27868     27869
     27868     27869     27872     27873     27868     27869     27872     27874
     27868     27869     27872     27880     27869     27872     27874     27875
     27869     27872     27880     27881     27869     27872     27880     27882
     27869     27872     27880     27883     27870     27869     27872     27873
     27870     27869     27872     27874     27870     27869     27872     27880
     27871     27869     27872     27873     27871     27869     27872     27874
     27871     27869     27872     27880     27872     27874     27875     27876
     27872     27874     27875     27877     27872     27880     27883     27884
     27873     27872     27874     27875     27873     27872     27880     27881
     27873     27872     27880     27882     27873     27872     27880     27883
     27874     27872     27880     27881     27874     27872     27880     27882
     27874     27872     27880     27883     27874     27875     27877     27878
     27874     27875     27877     27879     27874     27875     27877     27889
     27875     27874     27872     27880     27875     27877     27889     27890
     27875     27877     27889     27891     27875     27877     27889     27892
     27876     27875     27877     27878     27876     27875     27877     27879
     27876     27875     27877     27889     27877     27889     27892     27893
     27877     27889     27892     27894     27877     27889     27892     27895
     27878     27877     27889     27890     27878     27877     27889     27891
     27878     27877     27889     27892     27879     27877     27889     27890
     27879     27877     27889     27891     27879     27877     27889     27892
     27880     27883     27884     27885     27880     27883     27884     27886
     27881     27880     27883     27884     27882     27880     27883     27884
     27883     27884     27886     27887     27883     27884     27886     27888
     27883     27884     27886     27936     27884     27886     27936     27937
     27884     27886     27936     27938     27884     27886     27936     27939
     27885     27884     27886     27887     27885     27884     27886     27888
     27885     27884     27886     27936     27886     27936     27939     27940
     27886     27936     27939     27941     27886     27936     27939     27942
     27887     27886     27936     27937     27887     27886     27936     27938
     27887     27886     27936     27939     27888     27886     27936     27937
     27888     27886     27936     27938     27888     27886     27936     27939
     27889     27892     27895     27896     27889     27892     27895     27897
     27889     27892     27895     27898     27890     27889     27892     27893
     27890     27889     27892     27894     27890     27889     27892     27895
     27891     27889     27892     27893     27891     27889     27892     27894
     27891     27889     27892     27895     27892     27895     27898     27899
     27892     27895     27898     27900     27892     27895     27898     27901
     27893     27892     27895     27896     27893     27892     27895     27897
     27893     27892     27895     27898     27894     27892     27895     27896
     27894     27892     27895     27897     27894     27892     27895     27898
     27895     27898     27901     27902     27895     27898     27901     27903
     27895     27898     27901     27904     27896     27895     27898     27899
     27896     27895     27898     27900     27896     27895     27898     27901
     27897     27895     27898     27899     27897     27895     27898     27900
     27897     27895     27898     27901     27898     27901     27904     27905
     27898     27901     27904     27906     27898     27901     27904     27907
     27899     27898     27901     27902     27899     27898     27901     27903
     27899     27898     27901     27904     27900     27898     27901     27902
     27900     27898     27901     27903     27900     27898     27901     27904
     27901     27904     27907     27908     27901     27904     27907     27909
     27902     27901     27904     27905     27902     27901     27904     27906
     27902     27901     27904     27907     27903     27901     27904     27905
     27903     27901     27904     27906     27903     27901     27904     27907
     27904     27907     27909     27910     27904     27907     27909     27911
     27905     27904     27907     27908     27905     27904     27907     27909
     27906     27904     27907     27908     27906     27904     27907     27909
     27907     27909     27911     27912     27907     27909     27911     27913
     27907     27909     27911     27914     27908     27907     27909     27910
     27908     27907     27909     27911     27909     27911     27914     27915
     27909     27911     27914     27916     27909     27911     27914     27917
     27910     27909     27911     27912     27910     27909     27911     27913
     27910     27909     27911     27914     27911     27914     27917     27918
     27911     27914     27917     27919     27911     27914     27917     27920
     27912     27911     27914     27915     27912     27911     27914     27916
     27912     27911     27914     27917     27913     27911     27914     27915
     27913     27911     27914     27916     27913     27911     27914     27917
     27914     27917     27920     27921     27914     27917     27920     27922
     27914     27917     27920     27923     27915     27914     27917     27918
     27915     27914     27917     27919     27915     27914     27917     27920
     27916     27914     27917     27918     27916     27914     27917     27919
     27916     27914     27917     27920     27917     27920     27923     27924
     27917     27920     27923     27925     27917     27920     27923     27926
     27918     27917     27920     27921     27918     27917     27920     27922
     27918     27917     27920     27923     27919     27917     27920     27921
     27919     27917     27920     27922     27919     27917     27920     27923
     27920     27923     27926     27927     27920     27923     27926     27928
     27920     27923     27926     27929     27921     27920     27923     27924
     27921     27920     27923     27925     27921     27920     27923     27926
     27922     27920     27923     27924     27922     27920     27923     27925
     27922     27920     27923     27926     27923     27926     27929     27930
     27923     27926     27929     27931     27923     27926     27929     27932
     27924     27923     27926     27927     27924     27923     27926     27928
     27924     27923     27926     27929     27925     27923     27926     27927
     27925     27923     27926     27928     27925     27923     27926     27929
     27926     27929     27932     27933     27926     27929     27932     27934
     27926     27929     27932     27935     27927     27926     27929     27930
     27927     27926     27929     27931     27927     27926     27929     27932
     27928     27926     27929     27930     27928     27926     27929     27931
     27928     27926     27929     27932     27930     27929     27932     27933
     27930     27929     27932     27934     27930     27929     27932     27935
     27931     27929     27932     27933     27931     27929     27932     27934
     27931     27929     27932     27935     27936     27939     27942     27943
     27936     27939     27942     27944     27936     27939     27942     27945
     27937     27936     27939     27940     27937     27936     27939     27941
     27937     27936     27939     27942     27938     27936     27939     27940
     27938     27936     27939     27941     27938     27936     27939     27942
     27939     27942     27945     27946     27939     27942     27945     27947
     27939     27942     27945     27948     27940     27939     27942     27943
     27940     27939     27942     27944     27940     27939     27942     27945
     27941     27939     27942     27943     27941     27939     27942     27944
     27941     27939     27942     27945     27942     27945     27948     27949
     27942     27945     27948     27950     27942     27945     27948     27951
     27943     27942     27945     27946     27943     27942     27945     27947
     27943     27942     27945     27948     27944     27942     27945     27946
     27944     27942     27945     27947     27944     27942     27945     27948
     27945     27948     27951     27952     27945     27948     27951     27953
     27945     27948     27951     27954     27946     27945     27948     27949
     27946     27945     27948     27950     27946     27945     27948     27951
     27947     27945     27948     27949     27947     27945     27948     27950
     27947     27945     27948     27951     27948     27951     27954     27955
     27948     27951     27954     27956     27948     27951     27954     27957
     27949     27948     27951     27952     27949     27948     27951     27953
     27949     27948     27951     27954     27950     27948     27951     27952
     27950     27948     27951     27953     27950     27948     27951     27954
     27951     27954     27957     27958     27951     27954     27957     27959
     27951     27954     27957     27960     27952     27951     27954     27955
     27952     27951     27954     27956     27952     27951     27954     27957
     27953     27951     27954     27955     27953     27951     27954     27956
     27953     27951     27954     27957     27954     27957     27960     27961
     27954     27957     27960     27962     27954     27957     27960     27963
     27955     27954     27957     27958     27955     27954     27957     27959
     27955     27954     27957     27960     27956     27954     27957     27958
     27956     27954     27957     27959     27956     27954     27957     27960
     27957     27960     27963     27964     27957     27960     27963     27965
     27957     27960     27963     27966     27958     27957     27960     27961
     27958     27957     27960     27962     27958     27957     27960     27963
     27959     27957     27960     27961     27959     27957     27960     27962
     27959     27957     27960     27963     27960     27963     27966     27967
     27960     27963     27966     27968     27960     27963     27966     27969
     27961     27960     27963     27964     27961     27960     27963     27965
     27961     27960     27963     27966     27962     27960     27963     27964
     27962     27960     27963     27965     27962     27960     27963     27966
     27963     27966     27969     27970     27963     27966     27969     27971
     27963     27966     27969     27972     27964     27963     27966     27967
     27964     27963     27966     27968     27964     27963     27966     27969
     27965     27963     27966     27967     27965     27963     27966     27968
     27965     27963     27966     27969     27966     27969     27972     27973
     27966     27969     27972     27974     27966     27969     27972     27975
     27967     27966     27969     27970     27967     27966     27969     27971
     27967     27966     27969     27972     27968     27966     27969     27970
     27968     27966     27969     27971     27968     27966     27969     27972
     27969     27972     27975     27976     27969     27972     27975     27977
     27969     27972     27975     27978     27970     27969     27972     27973
     27970     27969     27972     27974     27970     27969     27972     27975
     27971     27969     27972     27973     27971     27969     27972     27974
     27971     27969     27972     27975     27973     27972     27975     27976
     27973     27972     27975     27977     27973     27972     27975     27978
     27974     27972     27975     27976     27974     27972     27975     27977
     27974     27972     27975     27978     27979     27980     27995     27996
     27979     27980     27995     27997     27979     27980     27995     28001
     27980     27979     27983     27984     27980     27979     27983     27985
     27980     27979     27983     27986     27980     27979     27987     27988
     27980     27979     27987     27989     27980     27979     27987     27990
     27980     27979     27991     27992     27980     27979     27991     27993
     27980     27979     27991     27994     27980     27995     28001     27998
     27981     27980     27979     27983     27981     27980     27979     27987
     27981     27980     27979     27991     27981     27980     27995     27996
     27981     27980     27995     27997     27981     27980     27995     28001
     27982     27980     27979     27983     27982     27980     27979     27987
     27982     27980     27979     27991     27982     27980     27995     27996
     27982     27980     27995     27997     27982     27980     27995     28001
     27983     27979     27980     27995     27983     27979     27987     27988
     27983     27979     27987     27989     27983     27979     27987     27990
     27983     27979     27991     27992     27983     27979     27991     27993
     27983     27979     27991     27994     27984     27983     27979     27987
     27984     27983     27979     27991     27985     27983     27979     27987
     27985     27983     27979     27991     27986     27983     27979     27987
     27986     27983     27979     27991     27987     27979     27980     27995
     27987     27979     27991     27992     27987     27979     27991     27993
     27987     27979     27991     27994     27988     27987     27979     27991
     27989     27987     27979     27991     27990     27987     27979     27991
     27991     27979     27980     27995     27995     28001     27998     27999
     27995     28001     27998     28000     27995     28001     27998     28002
     27996     27995     28001     27998     27997     27995     28001     27998
     27998     28002     28003     28004     27998     28002     28003     28005
     27998     28002     28003     28006     27999     27998     28002     28003
     28000     27998     28002     28003     28001     27998     28002     28003
     28002     28003     28006     28007     28002     28003     28006     28008
     28002     28003     28006     28014     28003     28006     28008     28009
     28003     28006     28014     28015     28003     28006     28014     28016
     28003     28006     28014     28017     28004     28003     28006     28007
     28004     28003     28006     28008     28004     28003     28006     28014
     28005     28003     28006     28007     28005     28003     28006     28008
     28005     28003     28006     28014     28006     28008     28009     28010
     28006     28008     28009     28011     28006     28014     28017     28018
     28007     28006     28008     28009     28007     28006     28014     28015
     28007     28006     28014     28016     28007     28006     28014     28017
     28008     28006     28014     28015     28008     28006     28014     28016
     28008     28006     28014     28017     28008     28009     28011     28012
     28008     28009     28011     28013     28008     28009     28011     28023
     28009     28008     28006     28014     28009     28011     28023     28024
     28009     28011     28023     28025     28009     28011     28023     28026
     28010     28009     28011     28012     28010     28009     28011     28013
     28010     28009     28011     28023     28011     28023     28026     28027
     28011     28023     28026     28028     28011     28023     28026     28029
     28012     28011     28023     28024     28012     28011     28023     28025
     28012     28011     28023     28026     28013     28011     28023     28024
     28013     28011     28023     28025     28013     28011     28023     28026
     28014     28017     28018     28019     28014     28017     28018     28020
     28015     28014     28017     28018     28016     28014     28017     28018
     28017     28018     28020     28021     28017     28018     28020     28022
     28017     28018     28020     28070     28018     28020     28070     28071
     28018     28020     28070     28072     28018     28020     28070     28073
     28019     28018     28020     28021     28019     28018     28020     28022
     28019     28018     28020     28070     28020     28070     28073     28074
     28020     28070     28073     28075     28020     28070     28073     28076
     28021     28020     28070     28071     28021     28020     28070     28072
     28021     28020     28070     28073     28022     28020     28070     28071
     28022     28020     28070     28072     28022     28020     28070     28073
     28023     28026     28029     28030     28023     28026     28029     28031
     28023     28026     28029     28032     28024     28023     28026     28027
     28024     28023     28026     28028     28024     28023     28026     28029
     28025     28023     28026     28027     28025     28023     28026     28028
     28025     28023     28026     28029     28026     28029     28032     28033
     28026     28029     28032     28034     28026     28029     28032     28035
     28027     28026     28029     28030     28027     28026     28029     28031
     28027     28026     28029     28032     28028     28026     28029     28030
     28028     28026     28029     28031     28028     28026     28029     28032
     28029     28032     28035     28036     28029     28032     28035     28037
     28029     28032     28035     28038     28030     28029     28032     28033
     28030     28029     28032     28034     28030     28029     28032     28035
     28031     28029     28032     28033     28031     28029     28032     28034
     28031     28029     28032     28035     28032     28035     28038     28039
     28032     28035     28038     28040     28032     28035     28038     28041
     28033     28032     28035     28036     28033     28032     28035     28037
     28033     28032     28035     28038     28034     28032     28035     28036
     28034     28032     28035     28037     28034     28032     28035     28038
     28035     28038     28041     28042     28035     28038     28041     28043
     28036     28035     28038     28039     28036     28035     28038     28040
     28036     28035     28038     28041     28037     28035     28038     28039
     28037     28035     28038     28040     28037     28035     28038     28041
     28038     28041     28043     28044     28038     28041     28043     28045
     28039     28038     28041     28042     28039     28038     28041     28043
     28040     28038     28041     28042     28040     28038     28041     28043
     28041     28043     28045     28046     28041     28043     28045     28047
     28041     28043     28045     28048     28042     28041     28043     28044
     28042     28041     28043     28045     28043     28045     28048     28049
     28043     28045     28048     28050     28043     28045     28048     28051
     28044     28043     28045     28046     28044     28043     28045     28047
     28044     28043     28045     28048     28045     28048     28051     28052
     28045     28048     28051     28053     28045     28048     28051     28054
     28046     28045     28048     28049     28046     28045     28048     28050
     28046     28045     28048     28051     28047     28045     28048     28049
     28047     28045     28048     28050     28047     28045     28048     28051
     28048     28051     28054     28055     28048     28051     28054     28056
     28048     28051     28054     28057     28049     28048     28051     28052
     28049     28048     28051     28053     28049     28048     28051     28054
     28050     28048     28051     28052     28050     28048     28051     28053
     28050     28048     28051     28054     28051     28054     28057     28058
     28051     28054     28057     28059     28051     28054     28057     28060
     28052     28051     28054     28055     28052     28051     28054     28056
     28052     28051     28054     28057     28053     28051     28054     28055
     28053     28051     28054     28056     28053     28051     28054     28057
     28054     28057     28060     28061     28054     28057     28060     28062
     28054     28057     28060     28063     28055     28054     28057     28058
     28055     28054     28057     28059     28055     28054     28057     28060
     28056     28054     28057     28058     28056     28054     28057     28059
     28056     28054     28057     28060     28057     28060     28063     28064
     28057     28060     28063     28065     28057     28060     28063     28066
     28058     28057     28060     28061     28058     28057     28060     28062
     28058     28057     28060     28063     28059     28057     28060     28061
     28059     28057     28060     28062     28059     28057     28060     28063
     28060     28063     28066     28067     28060     28063     28066     28068
     28060     28063     28066     28069     28061     28060     28063     28064
     28061     28060     28063     28065     28061     28060     28063     28066
     28062     28060     28063     28064     28062     28060     28063     28065
     28062     28060     28063     28066     28064     28063     28066     28067
     28064     28063     28066     28068     28064     28063     28066     28069
     28065     28063     28066     28067     28065     28063     28066     28068
     28065     28063     28066     28069     28070     28073     28076     28077
     28070     28073     28076     28078     28070     28073     28076     28079
     28071     28070     28073     28074     28071     28070     28073     28075
     28071     28070     28073     28076     28072     28070     28073     28074
     28072     28070     28073     28075     28072     28070     28073     28076
     28073     28076     28079     28080     28073     28076     28079     28081
     28073     28076     28079     28082     28074     28073     28076     28077
     28074     28073     28076     28078     28074     28073     28076     28079
     28075     28073     28076     28077     28075     28073     28076     28078
     28075     28073     28076     28079     28076     28079     28082     28083
     28076     28079     28082     28084     28076     28079     28082     28085
     28077     28076     28079     28080     28077     28076     28079     28081
     28077     28076     28079     28082     28078     28076     28079     28080
     28078     28076     28079     28081     28078     28076     28079     28082
     28079     28082     28085     28086     28079     28082     28085     28087
     28079     28082     28085     28088     28080     28079     28082     28083
     28080     28079     28082     28084     28080     28079     28082     28085
     28081     28079     28082     28083     28081     28079     28082     28084
     28081     28079     28082     28085     28082     28085     28088     28089
     28082     28085     28088     28090     28082     28085     28088     28091
     28083     28082     28085     28086     28083     28082     28085     28087
     28083     28082     28085     28088     28084     28082     28085     28086
     28084     28082     28085     28087     28084     28082     28085     28088
     28085     28088     28091     28092     28085     28088     28091     28093
     28085     28088     28091     28094     28086     28085     28088     28089
     28086     28085     28088     28090     28086     28085     28088     28091
     28087     28085     28088     28089     28087     28085     28088     28090
     28087     28085     28088     28091     28088     28091     28094     28095
     28088     28091     28094     28096     28088     28091     28094     28097
     28089     28088     28091     28092     28089     28088     28091     28093
     28089     28088     28091     28094     28090     28088     28091     28092
     28090     28088     28091     28093     28090     28088     28091     28094
     28091     28094     28097     28098     28091     28094     28097     28099
     28091     28094     28097     28100     28092     28091     28094     28095
     28092     28091     28094     28096     28092     28091     28094     28097
     28093     28091     28094     28095     28093     28091     28094     28096
     28093     28091     28094     28097     28094     28097     28100     28101
     28094     28097     28100     28102     28094     28097     28100     28103
     28095     28094     28097     28098     28095     28094     28097     28099
     28095     28094     28097     28100     28096     28094     28097     28098
     28096     28094     28097     28099     28096     28094     28097     28100
     28097     28100     28103     28104     28097     28100     28103     28105
     28097     28100     28103     28106     28098     28097     28100     28101
     28098     28097     28100     28102     28098     28097     28100     28103
     28099     28097     28100     28101     28099     28097     28100     28102
     28099     28097     28100     28103     28100     28103     28106     28107
     28100     28103     28106     28108     28100     28103     28106     28109
     28101     28100     28103     28104     28101     28100     28103     28105
     28101     28100     28103     28106     28102     28100     28103     28104
     28102     28100     28103     28105     28102     28100     28103     28106
     28103     28106     28109     28110     28103     28106     28109     28111
     28103     28106     28109     28112     28104     28103     28106     28107
     28104     28103     28106     28108     28104     28103     28106     28109
     28105     28103     28106     28107     28105     28103     28106     28108
     28105     28103     28106     28109     28107     28106     28109     28110
     28107     28106     28109     28111     28107     28106     28109     28112
     28108     28106     28109     28110     28108     28106     28109     28111
     28108     28106     28109     28112     28113     28114     28129     28130
     28113     28114     28129     28131     28113     28114     28129     28135
     28114     28113     28117     28118     28114     28113     28117     28119
     28114     28113     28117     28120     28114     28113     28121     28122
     28114     28113     28121     28123     28114     28113     28121     28124
     28114     28113     28125     28126     28114     28113     28125     28127
     28114     28113     28125     28128     28114     28129     28135     28132
     28115     28114     28113     28117     28115     28114     28113     28121
     28115     28114     28113     28125     28115     28114     28129     28130
     28115     28114     28129     28131     28115     28114     28129     28135
     28116     28114     28113     28117     28116     28114     28113     28121
     28116     28114     28113     28125     28116     28114     28129     28130
     28116     28114     28129     28131     28116     28114     28129     28135
     28117     28113     28114     28129     28117     28113     28121     28122
     28117     28113     28121     28123     28117     28113     28121     28124
     28117     28113     28125     28126     28117     28113     28125     28127
     28117     28113     28125     28128     28118     28117     28113     28121
     28118     28117     28113     28125     28119     28117     28113     28121
     28119     28117     28113     28125     28120     28117     28113     28121
     28120     28117     28113     28125     28121     28113     28114     28129
     28121     28113     28125     28126     28121     28113     28125     28127
     28121     28113     28125     28128     28122     28121     28113     28125
     28123     28121     28113     28125     28124     28121     28113     28125
     28125     28113     28114     28129     28129     28135     28132     28133
     28129     28135     28132     28134     28129     28135     28132     28136
     28130     28129     28135     28132     28131     28129     28135     28132
     28132     28136     28137     28138     28132     28136     28137     28139
     28132     28136     28137     28140     28133     28132     28136     28137
     28134     28132     28136     28137     28135     28132     28136     28137
     28136     28137     28140     28141     28136     28137     28140     28142
     28136     28137     28140     28148     28137     28140     28142     28143
     28137     28140     28148     28149     28137     28140     28148     28150
     28137     28140     28148     28151     28138     28137     28140     28141
     28138     28137     28140     28142     28138     28137     28140     28148
     28139     28137     28140     28141     28139     28137     28140     28142
     28139     28137     28140     28148     28140     28142     28143     28144
     28140     28142     28143     28145     28140     28148     28151     28152
     28141     28140     28142     28143     28141     28140     28148     28149
     28141     28140     28148     28150     28141     28140     28148     28151
     28142     28140     28148     28149     28142     28140     28148     28150
     28142     28140     28148     28151     28142     28143     28145     28146
     28142     28143     28145     28147     28142     28143     28145     28157
     28143     28142     28140     28148     28143     28145     28157     28158
     28143     28145     28157     28159     28143     28145     28157     28160
     28144     28143     28145     28146     28144     28143     28145     28147
     28144     28143     28145     28157     28145     28157     28160     28161
     28145     28157     28160     28162     28145     28157     28160     28163
     28146     28145     28157     28158     28146     28145     28157     28159
     28146     28145     28157     28160     28147     28145     28157     28158
     28147     28145     28157     28159     28147     28145     28157     28160
     28148     28151     28152     28153     28148     28151     28152     28154
     28149     28148     28151     28152     28150     28148     28151     28152
     28151     28152     28154     28155     28151     28152     28154     28156
     28151     28152     28154     28204     28152     28154     28204     28205
     28152     28154     28204     28206     28152     28154     28204     28207
     28153     28152     28154     28155     28153     28152     28154     28156
     28153     28152     28154     28204     28154     28204     28207     28208
     28154     28204     28207     28209     28154     28204     28207     28210
     28155     28154     28204     28205     28155     28154     28204     28206
     28155     28154     28204     28207     28156     28154     28204     28205
     28156     28154     28204     28206     28156     28154     28204     28207
     28157     28160     28163     28164     28157     28160     28163     28165
     28157     28160     28163     28166     28158     28157     28160     28161
     28158     28157     28160     28162     28158     28157     28160     28163
     28159     28157     28160     28161     28159     28157     28160     28162
     28159     28157     28160     28163     28160     28163     28166     28167
     28160     28163     28166     28168     28160     28163     28166     28169
     28161     28160     28163     28164     28161     28160     28163     28165
     28161     28160     28163     28166     28162     28160     28163     28164
     28162     28160     28163     28165     28162     28160     28163     28166
     28163     28166     28169     28170     28163     28166     28169     28171
     28163     28166     28169     28172     28164     28163     28166     28167
     28164     28163     28166     28168     28164     28163     28166     28169
     28165     28163     28166     28167     28165     28163     28166     28168
     28165     28163     28166     28169     28166     28169     28172     28173
     28166     28169     28172     28174     28166     28169     28172     28175
     28167     28166     28169     28170     28167     28166     28169     28171
     28167     28166     28169     28172     28168     28166     28169     28170
     28168     28166     28169     28171     28168     28166     28169     28172
     28169     28172     28175     28176     28169     28172     28175     28177
     28170     28169     28172     28173     28170     28169     28172     28174
     28170     28169     28172     28175     28171     28169     28172     28173
     28171     28169     28172     28174     28171     28169     28172     28175
     28172     28175     28177     28178     28172     28175     28177     28179
     28173     28172     28175     28176     28173     28172     28175     28177
     28174     28172     28175     28176     28174     28172     28175     28177
     28175     28177     28179     28180     28175     28177     28179     28181
     28175     28177     28179     28182     28176     28175     28177     28178
     28176     28175     28177     28179     28177     28179     28182     28183
     28177     28179     28182     28184     28177     28179     28182     28185
     28178     28177     28179     28180     28178     28177     28179     28181
     28178     28177     28179     28182     28179     28182     28185     28186
     28179     28182     28185     28187     28179     28182     28185     28188
     28180     28179     28182     28183     28180     28179     28182     28184
     28180     28179     28182     28185     28181     28179     28182     28183
     28181     28179     28182     28184     28181     28179     28182     28185
     28182     28185     28188     28189     28182     28185     28188     28190
     28182     28185     28188     28191     28183     28182     28185     28186
     28183     28182     28185     28187     28183     28182     28185     28188
     28184     28182     28185     28186     28184     28182     28185     28187
     28184     28182     28185     28188     28185     28188     28191     28192
     28185     28188     28191     28193     28185     28188     28191     28194
     28186     28185     28188     28189     28186     28185     28188     28190
     28186     28185     28188     28191     28187     28185     28188     28189
     28187     28185     28188     28190     28187     28185     28188     28191
     28188     28191     28194     28195     28188     28191     28194     28196
     28188     28191     28194     28197     28189     28188     28191     28192
     28189     28188     28191     28193     28189     28188     28191     28194
     28190     28188     28191     28192     28190     28188     28191     28193
     28190     28188     28191     28194     28191     28194     28197     28198
     28191     28194     28197     28199     28191     28194     28197     28200
     28192     28191     28194     28195     28192     28191     28194     28196
     28192     28191     28194     28197     28193     28191     28194     28195
     28193     28191     28194     28196     28193     28191     28194     28197
     28194     28197     28200     28201     28194     28197     28200     28202
     28194     28197     28200     28203     28195     28194     28197     28198
     28195     28194     28197     28199     28195     28194     28197     28200
     28196     28194     28197     28198     28196     28194     28197     28199
     28196     28194     28197     28200     28198     28197     28200     28201
     28198     28197     28200     28202     28198     28197     28200     28203
     28199     28197     28200     28201     28199     28197     28200     28202
     28199     28197     28200     28203     28204     28207     28210     28211
     28204     28207     28210     28212     28204     28207     28210     28213
     28205     28204     28207     28208     28205     28204     28207     28209
     28205     28204     28207     28210     28206     28204     28207     28208
     28206     28204     28207     28209     28206     28204     28207     28210
     28207     28210     28213     28214     28207     28210     28213     28215
     28207     28210     28213     28216     28208     28207     28210     28211
     28208     28207     28210     28212     28208     28207     28210     28213
     28209     28207     28210     28211     28209     28207     28210     28212
     28209     28207     28210     28213     28210     28213     28216     28217
     28210     28213     28216     28218     28210     28213     28216     28219
     28211     28210     28213     28214     28211     28210     28213     28215
     28211     28210     28213     28216     28212     28210     28213     28214
     28212     28210     28213     28215     28212     28210     28213     28216
     28213     28216     28219     28220     28213     28216     28219     28221
     28213     28216     28219     28222     28214     28213     28216     28217
     28214     28213     28216     28218     28214     28213     28216     28219
     28215     28213     28216     28217     28215     28213     28216     28218
     28215     28213     28216     28219     28216     28219     28222     28223
     28216     28219     28222     28224     28216     28219     28222     28225
     28217     28216     28219     28220     28217     28216     28219     28221
     28217     28216     28219     28222     28218     28216     28219     28220
     28218     28216     28219     28221     28218     28216     28219     28222
     28219     28222     28225     28226     28219     28222     28225     28227
     28219     28222     28225     28228     28220     28219     28222     28223
     28220     28219     28222     28224     28220     28219     28222     28225
     28221     28219     28222     28223     28221     28219     28222     28224
     28221     28219     28222     28225     28222     28225     28228     28229
     28222     28225     28228     28230     28222     28225     28228     28231
     28223     28222     28225     28226     28223     28222     28225     28227
     28223     28222     28225     28228     28224     28222     28225     28226
     28224     28222     28225     28227     28224     28222     28225     28228
     28225     28228     28231     28232     28225     28228     28231     28233
     28225     28228     28231     28234     28226     28225     28228     28229
     28226     28225     28228     28230     28226     28225     28228     28231
     28227     28225     28228     28229     28227     28225     28228     28230
     28227     28225     28228     28231     28228     28231     28234     28235
     28228     28231     28234     28236     28228     28231     28234     28237
     28229     28228     28231     28232     28229     28228     28231     28233
     28229     28228     28231     28234     28230     28228     28231     28232
     28230     28228     28231     28233     28230     28228     28231     28234
     28231     28234     28237     28238     28231     28234     28237     28239
     28231     28234     28237     28240     28232     28231     28234     28235
     28232     28231     28234     28236     28232     28231     28234     28237
     28233     28231     28234     28235     28233     28231     28234     28236
     28233     28231     28234     28237     28234     28237     28240     28241
     28234     28237     28240     28242     28234     28237     28240     28243
     28235     28234     28237     28238     28235     28234     28237     28239
     28235     28234     28237     28240     28236     28234     28237     28238
     28236     28234     28237     28239     28236     28234     28237     28240
     28237     28240     28243     28244     28237     28240     28243     28245
     28237     28240     28243     28246     28238     28237     28240     28241
     28238     28237     28240     28242     28238     28237     28240     28243
     28239     28237     28240     28241     28239     28237     28240     28242
     28239     28237     28240     28243     28241     28240     28243     28244
     28241     28240     28243     28245     28241     28240     28243     28246
     28242     28240     28243     28244     28242     28240     28243     28245
     28242     28240     28243     28246     28247     28248     28263     28264
     28247     28248     28263     28265     28247     28248     28263     28269
     28248     28247     28251     28252     28248     28247     28251     28253
     28248     28247     28251     28254     28248     28247     28255     28256
     28248     28247     28255     28257     28248     28247     28255     28258
     28248     28247     28259     28260     28248     28247     28259     28261
     28248     28247     28259     28262     28248     28263     28269     28266
     28249     28248     28247     28251     28249     28248     28247     28255
     28249     28248     28247     28259     28249     28248     28263     28264
     28249     28248     28263     28265     28249     28248     28263     28269
     28250     28248     28247     28251     28250     28248     28247     28255
     28250     28248     28247     28259     28250     28248     28263     28264
     28250     28248     28263     28265     28250     28248     28263     28269
     28251     28247     28248     28263     28251     28247     28255     28256
     28251     28247     28255     28257     28251     28247     28255     28258
     28251     28247     28259     28260     28251     28247     28259     28261
     28251     28247     28259     28262     28252     28251     28247     28255
     28252     28251     28247     28259     28253     28251     28247     28255
     28253     28251     28247     28259     28254     28251     28247     28255
     28254     28251     28247     28259     28255     28247     28248     28263
     28255     28247     28259     28260     28255     28247     28259     28261
     28255     28247     28259     28262     28256     28255     28247     28259
     28257     28255     28247     28259     28258     28255     28247     28259
     28259     28247     28248     28263     28263     28269     28266     28267
     28263     28269     28266     28268     28263     28269     28266     28270
     28264     28263     28269     28266     28265     28263     28269     28266
     28266     28270     28271     28272     28266     28270     28271     28273
     28266     28270     28271     28274     28267     28266     28270     28271
     28268     28266     28270     28271     28269     28266     28270     28271
     28270     28271     28274     28275     28270     28271     28274     28276
     28270     28271     28274     28282     28271     28274     28276     28277
     28271     28274     28282     28283     28271     28274     28282     28284
     28271     28274     28282     28285     28272     28271     28274     28275
     28272     28271     28274     28276     28272     28271     28274     28282
     28273     28271     28274     28275     28273     28271     28274     28276
     28273     28271     28274     28282     28274     28276     28277     28278
     28274     28276     28277     28279     28274     28282     28285     28286
     28275     28274     28276     28277     28275     28274     28282     28283
     28275     28274     28282     28284     28275     28274     28282     28285
     28276     28274     28282     28283     28276     28274     28282     28284
     28276     28274     28282     28285     28276     28277     28279     28280
     28276     28277     28279     28281     28276     28277     28279     28291
     28277     28276     28274     28282     28277     28279     28291     28292
     28277     28279     28291     28293     28277     28279     28291     28294
     28278     28277     28279     28280     28278     28277     28279     28281
     28278     28277     28279     28291     28279     28291     28294     28295
     28279     28291     28294     28296     28279     28291     28294     28297
     28280     28279     28291     28292     28280     28279     28291     28293
     28280     28279     28291     28294     28281     28279     28291     28292
     28281     28279     28291     28293     28281     28279     28291     28294
     28282     28285     28286     28287     28282     28285     28286     28288
     28283     28282     28285     28286     28284     28282     28285     28286
     28285     28286     28288     28289     28285     28286     28288     28290
     28285     28286     28288     28338     28286     28288     28338     28339
     28286     28288     28338     28340     28286     28288     28338     28341
     28287     28286     28288     28289     28287     28286     28288     28290
     28287     28286     28288     28338     28288     28338     28341     28342
     28288     28338     28341     28343     28288     28338     28341     28344
     28289     28288     28338     28339     28289     28288     28338     28340
     28289     28288     28338     28341     28290     28288     28338     28339
     28290     28288     28338     28340     28290     28288     28338     28341
     28291     28294     28297     28298     28291     28294     28297     28299
     28291     28294     28297     28300     28292     28291     28294     28295
     28292     28291     28294     28296     28292     28291     28294     28297
     28293     28291     28294     28295     28293     28291     28294     28296
     28293     28291     28294     28297     28294     28297     28300     28301
     28294     28297     28300     28302     28294     28297     28300     28303
     28295     28294     28297     28298     28295     28294     28297     28299
     28295     28294     28297     28300     28296     28294     28297     28298
     28296     28294     28297     28299     28296     28294     28297     28300
     28297     28300     28303     28304     28297     28300     28303     28305
     28297     28300     28303     28306     28298     28297     28300     28301
     28298     28297     28300     28302     28298     28297     28300     28303
     28299     28297     28300     28301     28299     28297     28300     28302
     28299     28297     28300     28303     28300     28303     28306     28307
     28300     28303     28306     28308     28300     28303     28306     28309
     28301     28300     28303     28304     28301     28300     28303     28305
     28301     28300     28303     28306     28302     28300     28303     28304
     28302     28300     28303     28305     28302     28300     28303     28306
     28303     28306     28309     28310     28303     28306     28309     28311
     28304     28303     28306     28307     28304     28303     28306     28308
     28304     28303     28306     28309     28305     28303     28306     28307
     28305     28303     28306     28308     28305     28303     28306     28309
     28306     28309     28311     28312     28306     28309     28311     28313
     28307     28306     28309     28310     28307     28306     28309     28311
     28308     28306     28309     28310     28308     28306     28309     28311
     28309     28311     28313     28314     28309     28311     28313     28315
     28309     28311     28313     28316     28310     28309     28311     28312
     28310     28309     28311     28313     28311     28313     28316     28317
     28311     28313     28316     28318     28311     28313     28316     28319
     28312     28311     28313     28314     28312     28311     28313     28315
     28312     28311     28313     28316     28313     28316     28319     28320
     28313     28316     28319     28321     28313     28316     28319     28322
     28314     28313     28316     28317     28314     28313     28316     28318
     28314     28313     28316     28319     28315     28313     28316     28317
     28315     28313     28316     28318     28315     28313     28316     28319
     28316     28319     28322     28323     28316     28319     28322     28324
     28316     28319     28322     28325     28317     28316     28319     28320
     28317     28316     28319     28321     28317     28316     28319     28322
     28318     28316     28319     28320     28318     28316     28319     28321
     28318     28316     28319     28322     28319     28322     28325     28326
     28319     28322     28325     28327     28319     28322     28325     28328
     28320     28319     28322     28323     28320     28319     28322     28324
     28320     28319     28322     28325     28321     28319     28322     28323
     28321     28319     28322     28324     28321     28319     28322     28325
     28322     28325     28328     28329     28322     28325     28328     28330
     28322     28325     28328     28331     28323     28322     28325     28326
     28323     28322     28325     28327     28323     28322     28325     28328
     28324     28322     28325     28326     28324     28322     28325     28327
     28324     28322     28325     28328     28325     28328     28331     28332
     28325     28328     28331     28333     28325     28328     28331     28334
     28326     28325     28328     28329     28326     28325     28328     28330
     28326     28325     28328     28331     28327     28325     28328     28329
     28327     28325     28328     28330     28327     28325     28328     28331
     28328     28331     28334     28335     28328     28331     28334     28336
     28328     28331     28334     28337     28329     28328     28331     28332
     28329     28328     28331     28333     28329     28328     28331     28334
     28330     28328     28331     28332     28330     28328     28331     28333
     28330     28328     28331     28334     28332     28331     28334     28335
     28332     28331     28334     28336     28332     28331     28334     28337
     28333     28331     28334     28335     28333     28331     28334     28336
     28333     28331     28334     28337     28338     28341     28344     28345
     28338     28341     28344     28346     28338     28341     28344     28347
     28339     28338     28341     28342     28339     28338     28341     28343
     28339     28338     28341     28344     28340     28338     28341     28342
     28340     28338     28341     28343     28340     28338     28341     28344
     28341     28344     28347     28348     28341     28344     28347     28349
     28341     28344     28347     28350     28342     28341     28344     28345
     28342     28341     28344     28346     28342     28341     28344     28347
     28343     28341     28344     28345     28343     28341     28344     28346
     28343     28341     28344     28347     28344     28347     28350     28351
     28344     28347     28350     28352     28344     28347     28350     28353
     28345     28344     28347     28348     28345     28344     28347     28349
     28345     28344     28347     28350     28346     28344     28347     28348
     28346     28344     28347     28349     28346     28344     28347     28350
     28347     28350     28353     28354     28347     28350     28353     28355
     28347     28350     28353     28356     28348     28347     28350     28351
     28348     28347     28350     28352     28348     28347     28350     28353
     28349     28347     28350     28351     28349     28347     28350     28352
     28349     28347     28350     28353     28350     28353     28356     28357
     28350     28353     28356     28358     28350     28353     28356     28359
     28351     28350     28353     28354     28351     28350     28353     28355
     28351     28350     28353     28356     28352     28350     28353     28354
     28352     28350     28353     28355     28352     28350     28353     28356
     28353     28356     28359     28360     28353     28356     28359     28361
     28353     28356     28359     28362     28354     28353     28356     28357
     28354     28353     28356     28358     28354     28353     28356     28359
     28355     28353     28356     28357     28355     28353     28356     28358
     28355     28353     28356     28359     28356     28359     28362     28363
     28356     28359     28362     28364     28356     28359     28362     28365
     28357     28356     28359     28360     28357     28356     28359     28361
     28357     28356     28359     28362     28358     28356     28359     28360
     28358     28356     28359     28361     28358     28356     28359     28362
     28359     28362     28365     28366     28359     28362     28365     28367
     28359     28362     28365     28368     28360     28359     28362     28363
     28360     28359     28362     28364     28360     28359     28362     28365
     28361     28359     28362     28363     28361     28359     28362     28364
     28361     28359     28362     28365     28362     28365     28368     28369
     28362     28365     28368     28370     28362     28365     28368     28371
     28363     28362     28365     28366     28363     28362     28365     28367
     28363     28362     28365     28368     28364     28362     28365     28366
     28364     28362     28365     28367     28364     28362     28365     28368
     28365     28368     28371     28372     28365     28368     28371     28373
     28365     28368     28371     28374     28366     28365     28368     28369
     28366     28365     28368     28370     28366     28365     28368     28371
     28367     28365     28368     28369     28367     28365     28368     28370
     28367     28365     28368     28371     28368     28371     28374     28375
     28368     28371     28374     28376     28368     28371     28374     28377
     28369     28368     28371     28372     28369     28368     28371     28373
     28369     28368     28371     28374     28370     28368     28371     28372
     28370     28368     28371     28373     28370     28368     28371     28374
     28371     28374     28377     28378     28371     28374     28377     28379
     28371     28374     28377     28380     28372     28371     28374     28375
     28372     28371     28374     28376     28372     28371     28374     28377
     28373     28371     28374     28375     28373     28371     28374     28376
     28373     28371     28374     28377     28375     28374     28377     28378
     28375     28374     28377     28379     28375     28374     28377     28380
     28376     28374     28377     28378     28376     28374     28377     28379
     28376     28374     28377     28380     28381     28382     28397     28398
     28381     28382     28397     28399     28381     28382     28397     28403
     28382     28381     28385     28386     28382     28381     28385     28387
     28382     28381     28385     28388     28382     28381     28389     28390
     28382     28381     28389     28391     28382     28381     28389     28392
     28382     28381     28393     28394     28382     28381     28393     28395
     28382     28381     28393     28396     28382     28397     28403     28400
     28383     28382     28381     28385     28383     28382     28381     28389
     28383     28382     28381     28393     28383     28382     28397     28398
     28383     28382     28397     28399     28383     28382     28397     28403
     28384     28382     28381     28385     28384     28382     28381     28389
     28384     28382     28381     28393     28384     28382     28397     28398
     28384     28382     28397     28399     28384     28382     28397     28403
     28385     28381     28382     28397     28385     28381     28389     28390
     28385     28381     28389     28391     28385     28381     28389     28392
     28385     28381     28393     28394     28385     28381     28393     28395
     28385     28381     28393     28396     28386     28385     28381     28389
     28386     28385     28381     28393     28387     28385     28381     28389
     28387     28385     28381     28393     28388     28385     28381     28389
     28388     28385     28381     28393     28389     28381     28382     28397
     28389     28381     28393     28394     28389     28381     28393     28395
     28389     28381     28393     28396     28390     28389     28381     28393
     28391     28389     28381     28393     28392     28389     28381     28393
     28393     28381     28382     28397     28397     28403     28400     28401
     28397     28403     28400     28402     28397     28403     28400     28404
     28398     28397     28403     28400     28399     28397     28403     28400
     28400     28404     28405     28406     28400     28404     28405     28407
     28400     28404     28405     28408     28401     28400     28404     28405
     28402     28400     28404     28405     28403     28400     28404     28405
     28404     28405     28408     28409     28404     28405     28408     28410
     28404     28405     28408     28416     28405     28408     28410     28411
     28405     28408     28416     28417     28405     28408     28416     28418
     28405     28408     28416     28419     28406     28405     28408     28409
     28406     28405     28408     28410     28406     28405     28408     28416
     28407     28405     28408     28409     28407     28405     28408     28410
     28407     28405     28408     28416     28408     28410     28411     28412
     28408     28410     28411     28413     28408     28416     28419     28420
     28409     28408     28410     28411     28409     28408     28416     28417
     28409     28408     28416     28418     28409     28408     28416     28419
     28410     28408     28416     28417     28410     28408     28416     28418
     28410     28408     28416     28419     28410     28411     28413     28414
     28410     28411     28413     28415     28410     28411     28413     28425
     28411     28410     28408     28416     28411     28413     28425     28426
     28411     28413     28425     28427     28411     28413     28425     28428
     28412     28411     28413     28414     28412     28411     28413     28415
     28412     28411     28413     28425     28413     28425     28428     28429
     28413     28425     28428     28430     28413     28425     28428     28431
     28414     28413     28425     28426     28414     28413     28425     28427
     28414     28413     28425     28428     28415     28413     28425     28426
     28415     28413     28425     28427     28415     28413     28425     28428
     28416     28419     28420     28421     28416     28419     28420     28422
     28417     28416     28419     28420     28418     28416     28419     28420
     28419     28420     28422     28423     28419     28420     28422     28424
     28419     28420     28422     28472     28420     28422     28472     28473
     28420     28422     28472     28474     28420     28422     28472     28475
     28421     28420     28422     28423     28421     28420     28422     28424
     28421     28420     28422     28472     28422     28472     28475     28476
     28422     28472     28475     28477     28422     28472     28475     28478
     28423     28422     28472     28473     28423     28422     28472     28474
     28423     28422     28472     28475     28424     28422     28472     28473
     28424     28422     28472     28474     28424     28422     28472     28475
     28425     28428     28431     28432     28425     28428     28431     28433
     28425     28428     28431     28434     28426     28425     28428     28429
     28426     28425     28428     28430     28426     28425     28428     28431
     28427     28425     28428     28429     28427     28425     28428     28430
     28427     28425     28428     28431     28428     28431     28434     28435
     28428     28431     28434     28436     28428     28431     28434     28437
     28429     28428     28431     28432     28429     28428     28431     28433
     28429     28428     28431     28434     28430     28428     28431     28432
     28430     28428     28431     28433     28430     28428     28431     28434
     28431     28434     28437     28438     28431     28434     28437     28439
     28431     28434     28437     28440     28432     28431     28434     28435
     28432     28431     28434     28436     28432     28431     28434     28437
     28433     28431     28434     28435     28433     28431     28434     28436
     28433     28431     28434     28437     28434     28437     28440     28441
     28434     28437     28440     28442     28434     28437     28440     28443
     28435     28434     28437     28438     28435     28434     28437     28439
     28435     28434     28437     28440     28436     28434     28437     28438
     28436     28434     28437     28439     28436     28434     28437     28440
     28437     28440     28443     28444     28437     28440     28443     28445
     28438     28437     28440     28441     28438     28437     28440     28442
     28438     28437     28440     28443     28439     28437     28440     28441
     28439     28437     28440     28442     28439     28437     28440     28443
     28440     28443     28445     28446     28440     28443     28445     28447
     28441     28440     28443     28444     28441     28440     28443     28445
     28442     28440     28443     28444     28442     28440     28443     28445
     28443     28445     28447     28448     28443     28445     28447     28449
     28443     28445     28447     28450     28444     28443     28445     28446
     28444     28443     28445     28447     28445     28447     28450     28451
     28445     28447     28450     28452     28445     28447     28450     28453
     28446     28445     28447     28448     28446     28445     28447     28449
     28446     28445     28447     28450     28447     28450     28453     28454
     28447     28450     28453     28455     28447     28450     28453     28456
     28448     28447     28450     28451     28448     28447     28450     28452
     28448     28447     28450     28453     28449     28447     28450     28451
     28449     28447     28450     28452     28449     28447     28450     28453
     28450     28453     28456     28457     28450     28453     28456     28458
     28450     28453     28456     28459     28451     28450     28453     28454
     28451     28450     28453     28455     28451     28450     28453     28456
     28452     28450     28453     28454     28452     28450     28453     28455
     28452     28450     28453     28456     28453     28456     28459     28460
     28453     28456     28459     28461     28453     28456     28459     28462
     28454     28453     28456     28457     28454     28453     28456     28458
     28454     28453     28456     28459     28455     28453     28456     28457
     28455     28453     28456     28458     28455     28453     28456     28459
     28456     28459     28462     28463     28456     28459     28462     28464
     28456     28459     28462     28465     28457     28456     28459     28460
     28457     28456     28459     28461     28457     28456     28459     28462
     28458     28456     28459     28460     28458     28456     28459     28461
     28458     28456     28459     28462     28459     28462     28465     28466
     28459     28462     28465     28467     28459     28462     28465     28468
     28460     28459     28462     28463     28460     28459     28462     28464
     28460     28459     28462     28465     28461     28459     28462     28463
     28461     28459     28462     28464     28461     28459     28462     28465
     28462     28465     28468     28469     28462     28465     28468     28470
     28462     28465     28468     28471     28463     28462     28465     28466
     28463     28462     28465     28467     28463     28462     28465     28468
     28464     28462     28465     28466     28464     28462     28465     28467
     28464     28462     28465     28468     28466     28465     28468     28469
     28466     28465     28468     28470     28466     28465     28468     28471
     28467     28465     28468     28469     28467     28465     28468     28470
     28467     28465     28468     28471     28472     28475     28478     28479
     28472     28475     28478     28480     28472     28475     28478     28481
     28473     28472     28475     28476     28473     28472     28475     28477
     28473     28472     28475     28478     28474     28472     28475     28476
     28474     28472     28475     28477     28474     28472     28475     28478
     28475     28478     28481     28482     28475     28478     28481     28483
     28475     28478     28481     28484     28476     28475     28478     28479
     28476     28475     28478     28480     28476     28475     28478     28481
     28477     28475     28478     28479     28477     28475     28478     28480
     28477     28475     28478     28481     28478     28481     28484     28485
     28478     28481     28484     28486     28478     28481     28484     28487
     28479     28478     28481     28482     28479     28478     28481     28483
     28479     28478     28481     28484     28480     28478     28481     28482
     28480     28478     28481     28483     28480     28478     28481     28484
     28481     28484     28487     28488     28481     28484     28487     28489
     28481     28484     28487     28490     28482     28481     28484     28485
     28482     28481     28484     28486     28482     28481     28484     28487
     28483     28481     28484     28485     28483     28481     28484     28486
     28483     28481     28484     28487     28484     28487     28490     28491
     28484     28487     28490     28492     28484     28487     28490     28493
     28485     28484     28487     28488     28485     28484     28487     28489
     28485     28484     28487     28490     28486     28484     28487     28488
     28486     28484     28487     28489     28486     28484     28487     28490
     28487     28490     28493     28494     28487     28490     28493     28495
     28487     28490     28493     28496     28488     28487     28490     28491
     28488     28487     28490     28492     28488     28487     28490     28493
     28489     28487     28490     28491     28489     28487     28490     28492
     28489     28487     28490     28493     28490     28493     28496     28497
     28490     28493     28496     28498     28490     28493     28496     28499
     28491     28490     28493     28494     28491     28490     28493     28495
     28491     28490     28493     28496     28492     28490     28493     28494
     28492     28490     28493     28495     28492     28490     28493     28496
     28493     28496     28499     28500     28493     28496     28499     28501
     28493     28496     28499     28502     28494     28493     28496     28497
     28494     28493     28496     28498     28494     28493     28496     28499
     28495     28493     28496     28497     28495     28493     28496     28498
     28495     28493     28496     28499     28496     28499     28502     28503
     28496     28499     28502     28504     28496     28499     28502     28505
     28497     28496     28499     28500     28497     28496     28499     28501
     28497     28496     28499     28502     28498     28496     28499     28500
     28498     28496     28499     28501     28498     28496     28499     28502
     28499     28502     28505     28506     28499     28502     28505     28507
     28499     28502     28505     28508     28500     28499     28502     28503
     28500     28499     28502     28504     28500     28499     28502     28505
     28501     28499     28502     28503     28501     28499     28502     28504
     28501     28499     28502     28505     28502     28505     28508     28509
     28502     28505     28508     28510     28502     28505     28508     28511
     28503     28502     28505     28506     28503     28502     28505     28507
     28503     28502     28505     28508     28504     28502     28505     28506
     28504     28502     28505     28507     28504     28502     28505     28508
     28505     28508     28511     28512     28505     28508     28511     28513
     28505     28508     28511     28514     28506     28505     28508     28509
     28506     28505     28508     28510     28506     28505     28508     28511
     28507     28505     28508     28509     28507     28505     28508     28510
     28507     28505     28508     28511     28509     28508     28511     28512
     28509     28508     28511     28513     28509     28508     28511     28514
     28510     28508     28511     28512     28510     28508     28511     28513
     28510     28508     28511     28514     28515     28516     28531     28532
     28515     28516     28531     28533     28515     28516     28531     28537
     28516     28515     28519     28520     28516     28515     28519     28521
     28516     28515     28519     28522     28516     28515     28523     28524
     28516     28515     28523     28525     28516     28515     28523     28526
     28516     28515     28527     28528     28516     28515     28527     28529
     28516     28515     28527     28530     28516     28531     28537     28534
     28517     28516     28515     28519     28517     28516     28515     28523
     28517     28516     28515     28527     28517     28516     28531     28532
     28517     28516     28531     28533     28517     28516     28531     28537
     28518     28516     28515     28519     28518     28516     28515     28523
     28518     28516     28515     28527     28518     28516     28531     28532
     28518     28516     28531     28533     28518     28516     28531     28537
     28519     28515     28516     28531     28519     28515     28523     28524
     28519     28515     28523     28525     28519     28515     28523     28526
     28519     28515     28527     28528     28519     28515     28527     28529
     28519     28515     28527     28530     28520     28519     28515     28523
     28520     28519     28515     28527     28521     28519     28515     28523
     28521     28519     28515     28527     28522     28519     28515     28523
     28522     28519     28515     28527     28523     28515     28516     28531
     28523     28515     28527     28528     28523     28515     28527     28529
     28523     28515     28527     28530     28524     28523     28515     28527
     28525     28523     28515     28527     28526     28523     28515     28527
     28527     28515     28516     28531     28531     28537     28534     28535
     28531     28537     28534     28536     28531     28537     28534     28538
     28532     28531     28537     28534     28533     28531     28537     28534
     28534     28538     28539     28540     28534     28538     28539     28541
     28534     28538     28539     28542     28535     28534     28538     28539
     28536     28534     28538     28539     28537     28534     28538     28539
     28538     28539     28542     28543     28538     28539     28542     28544
     28538     28539     28542     28550     28539     28542     28544     28545
     28539     28542     28550     28551     28539     28542     28550     28552
     28539     28542     28550     28553     28540     28539     28542     28543
     28540     28539     28542     28544     28540     28539     28542     28550
     28541     28539     28542     28543     28541     28539     28542     28544
     28541     28539     28542     28550     28542     28544     28545     28546
     28542     28544     28545     28547     28542     28550     28553     28554
     28543     28542     28544     28545     28543     28542     28550     28551
     28543     28542     28550     28552     28543     28542     28550     28553
     28544     28542     28550     28551     28544     28542     28550     28552
     28544     28542     28550     28553     28544     28545     28547     28548
     28544     28545     28547     28549     28544     28545     28547     28559
     28545     28544     28542     28550     28545     28547     28559     28560
     28545     28547     28559     28561     28545     28547     28559     28562
     28546     28545     28547     28548     28546     28545     28547     28549
     28546     28545     28547     28559     28547     28559     28562     28563
     28547     28559     28562     28564     28547     28559     28562     28565
     28548     28547     28559     28560     28548     28547     28559     28561
     28548     28547     28559     28562     28549     28547     28559     28560
     28549     28547     28559     28561     28549     28547     28559     28562
     28550     28553     28554     28555     28550     28553     28554     28556
     28551     28550     28553     28554     28552     28550     28553     28554
     28553     28554     28556     28557     28553     28554     28556     28558
     28553     28554     28556     28606     28554     28556     28606     28607
     28554     28556     28606     28608     28554     28556     28606     28609
     28555     28554     28556     28557     28555     28554     28556     28558
     28555     28554     28556     28606     28556     28606     28609     28610
     28556     28606     28609     28611     28556     28606     28609     28612
     28557     28556     28606     28607     28557     28556     28606     28608
     28557     28556     28606     28609     28558     28556     28606     28607
     28558     28556     28606     28608     28558     28556     28606     28609
     28559     28562     28565     28566     28559     28562     28565     28567
     28559     28562     28565     28568     28560     28559     28562     28563
     28560     28559     28562     28564     28560     28559     28562     28565
     28561     28559     28562     28563     28561     28559     28562     28564
     28561     28559     28562     28565     28562     28565     28568     28569
     28562     28565     28568     28570     28562     28565     28568     28571
     28563     28562     28565     28566     28563     28562     28565     28567
     28563     28562     28565     28568     28564     28562     28565     28566
     28564     28562     28565     28567     28564     28562     28565     28568
     28565     28568     28571     28572     28565     28568     28571     28573
     28565     28568     28571     28574     28566     28565     28568     28569
     28566     28565     28568     28570     28566     28565     28568     28571
     28567     28565     28568     28569     28567     28565     28568     28570
     28567     28565     28568     28571     28568     28571     28574     28575
     28568     28571     28574     28576     28568     28571     28574     28577
     28569     28568     28571     28572     28569     28568     28571     28573
     28569     28568     28571     28574     28570     28568     28571     28572
     28570     28568     28571     28573     28570     28568     28571     28574
     28571     28574     28577     28578     28571     28574     28577     28579
     28572     28571     28574     28575     28572     28571     28574     28576
     28572     28571     28574     28577     28573     28571     28574     28575
     28573     28571     28574     28576     28573     28571     28574     28577
     28574     28577     28579     28580     28574     28577     28579     28581
     28575     28574     28577     28578     28575     28574     28577     28579
     28576     28574     28577     28578     28576     28574     28577     28579
     28577     28579     28581     28582     28577     28579     28581     28583
     28577     28579     28581     28584     28578     28577     28579     28580
     28578     28577     28579     28581     28579     28581     28584     28585
     28579     28581     28584     28586     28579     28581     28584     28587
     28580     28579     28581     28582     28580     28579     28581     28583
     28580     28579     28581     28584     28581     28584     28587     28588
     28581     28584     28587     28589     28581     28584     28587     28590
     28582     28581     28584     28585     28582     28581     28584     28586
     28582     28581     28584     28587     28583     28581     28584     28585
     28583     28581     28584     28586     28583     28581     28584     28587
     28584     28587     28590     28591     28584     28587     28590     28592
     28584     28587     28590     28593     28585     28584     28587     28588
     28585     28584     28587     28589     28585     28584     28587     28590
     28586     28584     28587     28588     28586     28584     28587     28589
     28586     28584     28587     28590     28587     28590     28593     28594
     28587     28590     28593     28595     28587     28590     28593     28596
     28588     28587     28590     28591     28588     28587     28590     28592
     28588     28587     28590     28593     28589     28587     28590     28591
     28589     28587     28590     28592     28589     28587     28590     28593
     28590     28593     28596     28597     28590     28593     28596     28598
     28590     28593     28596     28599     28591     28590     28593     28594
     28591     28590     28593     28595     28591     28590     28593     28596
     28592     28590     28593     28594     28592     28590     28593     28595
     28592     28590     28593     28596     28593     28596     28599     28600
     28593     28596     28599     28601     28593     28596     28599     28602
     28594     28593     28596     28597     28594     28593     28596     28598
     28594     28593     28596     28599     28595     28593     28596     28597
     28595     28593     28596     28598     28595     28593     28596     28599
     28596     28599     28602     28603     28596     28599     28602     28604
     28596     28599     28602     28605     28597     28596     28599     28600
     28597     28596     28599     28601     28597     28596     28599     28602
     28598     28596     28599     28600     28598     28596     28599     28601
     28598     28596     28599     28602     28600     28599     28602     28603
     28600     28599     28602     28604     28600     28599     28602     28605
     28601     28599     28602     28603     28601     28599     28602     28604
     28601     28599     28602     28605     28606     28609     28612     28613
     28606     28609     28612     28614     28606     28609     28612     28615
     28607     28606     28609     28610     28607     28606     28609     28611
     28607     28606     28609     28612     28608     28606     28609     28610
     28608     28606     28609     28611     28608     28606     28609     28612
     28609     28612     28615     28616     28609     28612     28615     28617
     28609     28612     28615     28618     28610     28609     28612     28613
     28610     28609     28612     28614     28610     28609     28612     28615
     28611     28609     28612     28613     28611     28609     28612     28614
     28611     28609     28612     28615     28612     28615     28618     28619
     28612     28615     28618     28620     28612     28615     28618     28621
     28613     28612     28615     28616     28613     28612     28615     28617
     28613     28612     28615     28618     28614     28612     28615     28616
     28614     28612     28615     28617     28614     28612     28615     28618
     28615     28618     28621     28622     28615     28618     28621     28623
     28615     28618     28621     28624     28616     28615     28618     28619
     28616     28615     28618     28620     28616     28615     28618     28621
     28617     28615     28618     28619     28617     28615     28618     28620
     28617     28615     28618     28621     28618     28621     28624     28625
     28618     28621     28624     28626     28618     28621     28624     28627
     28619     28618     28621     28622     28619     28618     28621     28623
     28619     28618     28621     28624     28620     28618     28621     28622
     28620     28618     28621     28623     28620     28618     28621     28624
     28621     28624     28627     28628     28621     28624     28627     28629
     28621     28624     28627     28630     28622     28621     28624     28625
     28622     28621     28624     28626     28622     28621     28624     28627
     28623     28621     28624     28625     28623     28621     28624     28626
     28623     28621     28624     28627     28624     28627     28630     28631
     28624     28627     28630     28632     28624     28627     28630     28633
     28625     28624     28627     28628     28625     28624     28627     28629
     28625     28624     28627     28630     28626     28624     28627     28628
     28626     28624     28627     28629     28626     28624     28627     28630
     28627     28630     28633     28634     28627     28630     28633     28635
     28627     28630     28633     28636     28628     28627     28630     28631
     28628     28627     28630     28632     28628     28627     28630     28633
     28629     28627     28630     28631     28629     28627     28630     28632
     28629     28627     28630     28633     28630     28633     28636     28637
     28630     28633     28636     28638     28630     28633     28636     28639
     28631     28630     28633     28634     28631     28630     28633     28635
     28631     28630     28633     28636     28632     28630     28633     28634
     28632     28630     28633     28635     28632     28630     28633     28636
     28633     28636     28639     28640     28633     28636     28639     28641
     28633     28636     28639     28642     28634     28633     28636     28637
     28634     28633     28636     28638     28634     28633     28636     28639
     28635     28633     28636     28637     28635     28633     28636     28638
     28635     28633     28636     28639     28636     28639     28642     28643
     28636     28639     28642     28644     28636     28639     28642     28645
     28637     28636     28639     28640     28637     28636     28639     28641
     28637     28636     28639     28642     28638     28636     28639     28640
     28638     28636     28639     28641     28638     28636     28639     28642
     28639     28642     28645     28646     28639     28642     28645     28647
     28639     28642     28645     28648     28640     28639     28642     28643
     28640     28639     28642     28644     28640     28639     28642     28645
     28641     28639     28642     28643     28641     28639     28642     28644
     28641     28639     28642     28645     28643     28642     28645     28646
     28643     28642     28645     28647     28643     28642     28645     28648
     28644     28642     28645     28646     28644     28642     28645     28647
     28644     28642     28645     28648     28649     28650     28665     28666
     28649     28650     28665     28667     28649     28650     28665     28671
     28650     28649     28653     28654     28650     28649     28653     28655
     28650     28649     28653     28656     28650     28649     28657     28658
     28650     28649     28657     28659     28650     28649     28657     28660
     28650     28649     28661     28662     28650     28649     28661     28663
     28650     28649     28661     28664     28650     28665     28671     28668
     28651     28650     28649     28653     28651     28650     28649     28657
     28651     28650     28649     28661     28651     28650     28665     28666
     28651     28650     28665     28667     28651     28650     28665     28671
     28652     28650     28649     28653     28652     28650     28649     28657
     28652     28650     28649     28661     28652     28650     28665     28666
     28652     28650     28665     28667     28652     28650     28665     28671
     28653     28649     28650     28665     28653     28649     28657     28658
     28653     28649     28657     28659     28653     28649     28657     28660
     28653     28649     28661     28662     28653     28649     28661     28663
     28653     28649     28661     28664     28654     28653     28649     28657
     28654     28653     28649     28661     28655     28653     28649     28657
     28655     28653     28649     28661     28656     28653     28649     28657
     28656     28653     28649     28661     28657     28649     28650     28665
     28657     28649     28661     28662     28657     28649     28661     28663
     28657     28649     28661     28664     28658     28657     28649     28661
     28659     28657     28649     28661     28660     28657     28649     28661
     28661     28649     28650     28665     28665     28671     28668     28669
     28665     28671     28668     28670     28665     28671     28668     28672
     28666     28665     28671     28668     28667     28665     28671     28668
     28668     28672     28673     28674     28668     28672     28673     28675
     28668     28672     28673     28676     28669     28668     28672     28673
     28670     28668     28672     28673     28671     28668     28672     28673
     28672     28673     28676     28677     28672     28673     28676     28678
     28672     28673     28676     28684     28673     28676     28678     28679
     28673     28676     28684     28685     28673     28676     28684     28686
     28673     28676     28684     28687     28674     28673     28676     28677
     28674     28673     28676     28678     28674     28673     28676     28684
     28675     28673     28676     28677     28675     28673     28676     28678
     28675     28673     28676     28684     28676     28678     28679     28680
     28676     28678     28679     28681     28676     28684     28687     28688
     28677     28676     28678     28679     28677     28676     28684     28685
     28677     28676     28684     28686     28677     28676     28684     28687
     28678     28676     28684     28685     28678     28676     28684     28686
     28678     28676     28684     28687     28678     28679     28681     28682
     28678     28679     28681     28683     28678     28679     28681     28693
     28679     28678     28676     28684     28679     28681     28693     28694
     28679     28681     28693     28695     28679     28681     28693     28696
     28680     28679     28681     28682     28680     28679     28681     28683
     28680     28679     28681     28693     28681     28693     28696     28697
     28681     28693     28696     28698     28681     28693     28696     28699
     28682     28681     28693     28694     28682     28681     28693     28695
     28682     28681     28693     28696     28683     28681     28693     28694
     28683     28681     28693     28695     28683     28681     28693     28696
     28684     28687     28688     28689     28684     28687     28688     28690
     28685     28684     28687     28688     28686     28684     28687     28688
     28687     28688     28690     28691     28687     28688     28690     28692
     28687     28688     28690     28740     28688     28690     28740     28741
     28688     28690     28740     28742     28688     28690     28740     28743
     28689     28688     28690     28691     28689     28688     28690     28692
     28689     28688     28690     28740     28690     28740     28743     28744
     28690     28740     28743     28745     28690     28740     28743     28746
     28691     28690     28740     28741     28691     28690     28740     28742
     28691     28690     28740     28743     28692     28690     28740     28741
     28692     28690     28740     28742     28692     28690     28740     28743
     28693     28696     28699     28700     28693     28696     28699     28701
     28693     28696     28699     28702     28694     28693     28696     28697
     28694     28693     28696     28698     28694     28693     28696     28699
     28695     28693     28696     28697     28695     28693     28696     28698
     28695     28693     28696     28699     28696     28699     28702     28703
     28696     28699     28702     28704     28696     28699     28702     28705
     28697     28696     28699     28700     28697     28696     28699     28701
     28697     28696     28699     28702     28698     28696     28699     28700
     28698     28696     28699     28701     28698     28696     28699     28702
     28699     28702     28705     28706     28699     28702     28705     28707
     28699     28702     28705     28708     28700     28699     28702     28703
     28700     28699     28702     28704     28700     28699     28702     28705
     28701     28699     28702     28703     28701     28699     28702     28704
     28701     28699     28702     28705     28702     28705     28708     28709
     28702     28705     28708     28710     28702     28705     28708     28711
     28703     28702     28705     28706     28703     28702     28705     28707
     28703     28702     28705     28708     28704     28702     28705     28706
     28704     28702     28705     28707     28704     28702     28705     28708
     28705     28708     28711     28712     28705     28708     28711     28713
     28706     28705     28708     28709     28706     28705     28708     28710
     28706     28705     28708     28711     28707     28705     28708     28709
     28707     28705     28708     28710     28707     28705     28708     28711
     28708     28711     28713     28714     28708     28711     28713     28715
     28709     28708     28711     28712     28709     28708     28711     28713
     28710     28708     28711     28712     28710     28708     28711     28713
     28711     28713     28715     28716     28711     28713     28715     28717
     28711     28713     28715     28718     28712     28711     28713     28714
     28712     28711     28713     28715     28713     28715     28718     28719
     28713     28715     28718     28720     28713     28715     28718     28721
     28714     28713     28715     28716     28714     28713     28715     28717
     28714     28713     28715     28718     28715     28718     28721     28722
     28715     28718     28721     28723     28715     28718     28721     28724
     28716     28715     28718     28719     28716     28715     28718     28720
     28716     28715     28718     28721     28717     28715     28718     28719
     28717     28715     28718     28720     28717     28715     28718     28721
     28718     28721     28724     28725     28718     28721     28724     28726
     28718     28721     28724     28727     28719     28718     28721     28722
     28719     28718     28721     28723     28719     28718     28721     28724
     28720     28718     28721     28722     28720     28718     28721     28723
     28720     28718     28721     28724     28721     28724     28727     28728
     28721     28724     28727     28729     28721     28724     28727     28730
     28722     28721     28724     28725     28722     28721     28724     28726
     28722     28721     28724     28727     28723     28721     28724     28725
     28723     28721     28724     28726     28723     28721     28724     28727
     28724     28727     28730     28731     28724     28727     28730     28732
     28724     28727     28730     28733     28725     28724     28727     28728
     28725     28724     28727     28729     28725     28724     28727     28730
     28726     28724     28727     28728     28726     28724     28727     28729
     28726     28724     28727     28730     28727     28730     28733     28734
     28727     28730     28733     28735     28727     28730     28733     28736
     28728     28727     28730     28731     28728     28727     28730     28732
     28728     28727     28730     28733     28729     28727     28730     28731
     28729     28727     28730     28732     28729     28727     28730     28733
     28730     28733     28736     28737     28730     28733     28736     28738
     28730     28733     28736     28739     28731     28730     28733     28734
     28731     28730     28733     28735     28731     28730     28733     28736
     28732     28730     28733     28734     28732     28730     28733     28735
     28732     28730     28733     28736     28734     28733     28736     28737
     28734     28733     28736     28738     28734     28733     28736     28739
     28735     28733     28736     28737     28735     28733     28736     28738
     28735     28733     28736     28739     28740     28743     28746     28747
     28740     28743     28746     28748     28740     28743     28746     28749
     28741     28740     28743     28744     28741     28740     28743     28745
     28741     28740     28743     28746     28742     28740     28743     28744
     28742     28740     28743     28745     28742     28740     28743     28746
     28743     28746     28749     28750     28743     28746     28749     28751
     28743     28746     28749     28752     28744     28743     28746     28747
     28744     28743     28746     28748     28744     28743     28746     28749
     28745     28743     28746     28747     28745     28743     28746     28748
     28745     28743     28746     28749     28746     28749     28752     28753
     28746     28749     28752     28754     28746     28749     28752     28755
     28747     28746     28749     28750     28747     28746     28749     28751
     28747     28746     28749     28752     28748     28746     28749     28750
     28748     28746     28749     28751     28748     28746     28749     28752
     28749     28752     28755     28756     28749     28752     28755     28757
     28749     28752     28755     28758     28750     28749     28752     28753
     28750     28749     28752     28754     28750     28749     28752     28755
     28751     28749     28752     28753     28751     28749     28752     28754
     28751     28749     28752     28755     28752     28755     28758     28759
     28752     28755     28758     28760     28752     28755     28758     28761
     28753     28752     28755     28756     28753     28752     28755     28757
     28753     28752     28755     28758     28754     28752     28755     28756
     28754     28752     28755     28757     28754     28752     28755     28758
     28755     28758     28761     28762     28755     28758     28761     28763
     28755     28758     28761     28764     28756     28755     28758     28759
     28756     28755     28758     28760     28756     28755     28758     28761
     28757     28755     28758     28759     28757     28755     28758     28760
     28757     28755     28758     28761     28758     28761     28764     28765
     28758     28761     28764     28766     28758     28761     28764     28767
     28759     28758     28761     28762     28759     28758     28761     28763
     28759     28758     28761     28764     28760     28758     28761     28762
     28760     28758     28761     28763     28760     28758     28761     28764
     28761     28764     28767     28768     28761     28764     28767     28769
     28761     28764     28767     28770     28762     28761     28764     28765
     28762     28761     28764     28766     28762     28761     28764     28767
     28763     28761     28764     28765     28763     28761     28764     28766
     28763     28761     28764     28767     28764     28767     28770     28771
     28764     28767     28770     28772     28764     28767     28770     28773
     28765     28764     28767     28768     28765     28764     28767     28769
     28765     28764     28767     28770     28766     28764     28767     28768
     28766     28764     28767     28769     28766     28764     28767     28770
     28767     28770     28773     28774     28767     28770     28773     28775
     28767     28770     28773     28776     28768     28767     28770     28771
     28768     28767     28770     28772     28768     28767     28770     28773
     28769     28767     28770     28771     28769     28767     28770     28772
     28769     28767     28770     28773     28770     28773     28776     28777
     28770     28773     28776     28778     28770     28773     28776     28779
     28771     28770     28773     28774     28771     28770     28773     28775
     28771     28770     28773     28776     28772     28770     28773     28774
     28772     28770     28773     28775     28772     28770     28773     28776
     28773     28776     28779     28780     28773     28776     28779     28781
     28773     28776     28779     28782     28774     28773     28776     28777
     28774     28773     28776     28778     28774     28773     28776     28779
     28775     28773     28776     28777     28775     28773     28776     28778
     28775     28773     28776     28779     28777     28776     28779     28780
     28777     28776     28779     28781     28777     28776     28779     28782
     28778     28776     28779     28780     28778     28776     28779     28781
     28778     28776     28779     28782     28783     28784     28799     28800
     28783     28784     28799     28801     28783     28784     28799     28805
     28784     28783     28787     28788     28784     28783     28787     28789
     28784     28783     28787     28790     28784     28783     28791     28792
     28784     28783     28791     28793     28784     28783     28791     28794
     28784     28783     28795     28796     28784     28783     28795     28797
     28784     28783     28795     28798     28784     28799     28805     28802
     28785     28784     28783     28787     28785     28784     28783     28791
     28785     28784     28783     28795     28785     28784     28799     28800
     28785     28784     28799     28801     28785     28784     28799     28805
     28786     28784     28783     28787     28786     28784     28783     28791
     28786     28784     28783     28795     28786     28784     28799     28800
     28786     28784     28799     28801     28786     28784     28799     28805
     28787     28783     28784     28799     28787     28783     28791     28792
     28787     28783     28791     28793     28787     28783     28791     28794
     28787     28783     28795     28796     28787     28783     28795     28797
     28787     28783     28795     28798     28788     28787     28783     28791
     28788     28787     28783     28795     28789     28787     28783     28791
     28789     28787     28783     28795     28790     28787     28783     28791
     28790     28787     28783     28795     28791     28783     28784     28799
     28791     28783     28795     28796     28791     28783     28795     28797
     28791     28783     28795     28798     28792     28791     28783     28795
     28793     28791     28783     28795     28794     28791     28783     28795
     28795     28783     28784     28799     28799     28805     28802     28803
     28799     28805     28802     28804     28799     28805     28802     28806
     28800     28799     28805     28802     28801     28799     28805     28802
     28802     28806     28807     28808     28802     28806     28807     28809
     28802     28806     28807     28810     28803     28802     28806     28807
     28804     28802     28806     28807     28805     28802     28806     28807
     28806     28807     28810     28811     28806     28807     28810     28812
     28806     28807     28810     28818     28807     28810     28812     28813
     28807     28810     28818     28819     28807     28810     28818     28820
     28807     28810     28818     28821     28808     28807     28810     28811
     28808     28807     28810     28812     28808     28807     28810     28818
     28809     28807     28810     28811     28809     28807     28810     28812
     28809     28807     28810     28818     28810     28812     28813     28814
     28810     28812     28813     28815     28810     28818     28821     28822
     28811     28810     28812     28813     28811     28810     28818     28819
     28811     28810     28818     28820     28811     28810     28818     28821
     28812     28810     28818     28819     28812     28810     28818     28820
     28812     28810     28818     28821     28812     28813     28815     28816
     28812     28813     28815     28817     28812     28813     28815     28827
     28813     28812     28810     28818     28813     28815     28827     28828
     28813     28815     28827     28829     28813     28815     28827     28830
     28814     28813     28815     28816     28814     28813     28815     28817
     28814     28813     28815     28827     28815     28827     28830     28831
     28815     28827     28830     28832     28815     28827     28830     28833
     28816     28815     28827     28828     28816     28815     28827     28829
     28816     28815     28827     28830     28817     28815     28827     28828
     28817     28815     28827     28829     28817     28815     28827     28830
     28818     28821     28822     28823     28818     28821     28822     28824
     28819     28818     28821     28822     28820     28818     28821     28822
     28821     28822     28824     28825     28821     28822     28824     28826
     28821     28822     28824     28874     28822     28824     28874     28875
     28822     28824     28874     28876     28822     28824     28874     28877
     28823     28822     28824     28825     28823     28822     28824     28826
     28823     28822     28824     28874     28824     28874     28877     28878
     28824     28874     28877     28879     28824     28874     28877     28880
     28825     28824     28874     28875     28825     28824     28874     28876
     28825     28824     28874     28877     28826     28824     28874     28875
     28826     28824     28874     28876     28826     28824     28874     28877
     28827     28830     28833     28834     28827     28830     28833     28835
     28827     28830     28833     28836     28828     28827     28830     28831
     28828     28827     28830     28832     28828     28827     28830     28833
     28829     28827     28830     28831     28829     28827     28830     28832
     28829     28827     28830     28833     28830     28833     28836     28837
     28830     28833     28836     28838     28830     28833     28836     28839
     28831     28830     28833     28834     28831     28830     28833     28835
     28831     28830     28833     28836     28832     28830     28833     28834
     28832     28830     28833     28835     28832     28830     28833     28836
     28833     28836     28839     28840     28833     28836     28839     28841
     28833     28836     28839     28842     28834     28833     28836     28837
     28834     28833     28836     28838     28834     28833     28836     28839
     28835     28833     28836     28837     28835     28833     28836     28838
     28835     28833     28836     28839     28836     28839     28842     28843
     28836     28839     28842     28844     28836     28839     28842     28845
     28837     28836     28839     28840     28837     28836     28839     28841
     28837     28836     28839     28842     28838     28836     28839     28840
     28838     28836     28839     28841     28838     28836     28839     28842
     28839     28842     28845     28846     28839     28842     28845     28847
     28840     28839     28842     28843     28840     28839     28842     28844
     28840     28839     28842     28845     28841     28839     28842     28843
     28841     28839     28842     28844     28841     28839     28842     28845
     28842     28845     28847     28848     28842     28845     28847     28849
     28843     28842     28845     28846     28843     28842     28845     28847
     28844     28842     28845     28846     28844     28842     28845     28847
     28845     28847     28849     28850     28845     28847     28849     28851
     28845     28847     28849     28852     28846     28845     28847     28848
     28846     28845     28847     28849     28847     28849     28852     28853
     28847     28849     28852     28854     28847     28849     28852     28855
     28848     28847     28849     28850     28848     28847     28849     28851
     28848     28847     28849     28852     28849     28852     28855     28856
     28849     28852     28855     28857     28849     28852     28855     28858
     28850     28849     28852     28853     28850     28849     28852     28854
     28850     28849     28852     28855     28851     28849     28852     28853
     28851     28849     28852     28854     28851     28849     28852     28855
     28852     28855     28858     28859     28852     28855     28858     28860
     28852     28855     28858     28861     28853     28852     28855     28856
     28853     28852     28855     28857     28853     28852     28855     28858
     28854     28852     28855     28856     28854     28852     28855     28857
     28854     28852     28855     28858     28855     28858     28861     28862
     28855     28858     28861     28863     28855     28858     28861     28864
     28856     28855     28858     28859     28856     28855     28858     28860
     28856     28855     28858     28861     28857     28855     28858     28859
     28857     28855     28858     28860     28857     28855     28858     28861
     28858     28861     28864     28865     28858     28861     28864     28866
     28858     28861     28864     28867     28859     28858     28861     28862
     28859     28858     28861     28863     28859     28858     28861     28864
     28860     28858     28861     28862     28860     28858     28861     28863
     28860     28858     28861     28864     28861     28864     28867     28868
     28861     28864     28867     28869     28861     28864     28867     28870
     28862     28861     28864     28865     28862     28861     28864     28866
     28862     28861     28864     28867     28863     28861     28864     28865
     28863     28861     28864     28866     28863     28861     28864     28867
     28864     28867     28870     28871     28864     28867     28870     28872
     28864     28867     28870     28873     28865     28864     28867     28868
     28865     28864     28867     28869     28865     28864     28867     28870
     28866     28864     28867     28868     28866     28864     28867     28869
     28866     28864     28867     28870     28868     28867     28870     28871
     28868     28867     28870     28872     28868     28867     28870     28873
     28869     28867     28870     28871     28869     28867     28870     28872
     28869     28867     28870     28873     28874     28877     28880     28881
     28874     28877     28880     28882     28874     28877     28880     28883
     28875     28874     28877     28878     28875     28874     28877     28879
     28875     28874     28877     28880     28876     28874     28877     28878
     28876     28874     28877     28879     28876     28874     28877     28880
     28877     28880     28883     28884     28877     28880     28883     28885
     28877     28880     28883     28886     28878     28877     28880     28881
     28878     28877     28880     28882     28878     28877     28880     28883
     28879     28877     28880     28881     28879     28877     28880     28882
     28879     28877     28880     28883     28880     28883     28886     28887
     28880     28883     28886     28888     28880     28883     28886     28889
     28881     28880     28883     28884     28881     28880     28883     28885
     28881     28880     28883     28886     28882     28880     28883     28884
     28882     28880     28883     28885     28882     28880     28883     28886
     28883     28886     28889     28890     28883     28886     28889     28891
     28883     28886     28889     28892     28884     28883     28886     28887
     28884     28883     28886     28888     28884     28883     28886     28889
     28885     28883     28886     28887     28885     28883     28886     28888
     28885     28883     28886     28889     28886     28889     28892     28893
     28886     28889     28892     28894     28886     28889     28892     28895
     28887     28886     28889     28890     28887     28886     28889     28891
     28887     28886     28889     28892     28888     28886     28889     28890
     28888     28886     28889     28891     28888     28886     28889     28892
     28889     28892     28895     28896     28889     28892     28895     28897
     28889     28892     28895     28898     28890     28889     28892     28893
     28890     28889     28892     28894     28890     28889     28892     28895
     28891     28889     28892     28893     28891     28889     28892     28894
     28891     28889     28892     28895     28892     28895     28898     28899
     28892     28895     28898     28900     28892     28895     28898     28901
     28893     28892     28895     28896     28893     28892     28895     28897
     28893     28892     28895     28898     28894     28892     28895     28896
     28894     28892     28895     28897     28894     28892     28895     28898
     28895     28898     28901     28902     28895     28898     28901     28903
     28895     28898     28901     28904     28896     28895     28898     28899
     28896     28895     28898     28900     28896     28895     28898     28901
     28897     28895     28898     28899     28897     28895     28898     28900
     28897     28895     28898     28901     28898     28901     28904     28905
     28898     28901     28904     28906     28898     28901     28904     28907
     28899     28898     28901     28902     28899     28898     28901     28903
     28899     28898     28901     28904     28900     28898     28901     28902
     28900     28898     28901     28903     28900     28898     28901     28904
     28901     28904     28907     28908     28901     28904     28907     28909
     28901     28904     28907     28910     28902     28901     28904     28905
     28902     28901     28904     28906     28902     28901     28904     28907
     28903     28901     28904     28905     28903     28901     28904     28906
     28903     28901     28904     28907     28904     28907     28910     28911
     28904     28907     28910     28912     28904     28907     28910     28913
     28905     28904     28907     28908     28905     28904     28907     28909
     28905     28904     28907     28910     28906     28904     28907     28908
     28906     28904     28907     28909     28906     28904     28907     28910
     28907     28910     28913     28914     28907     28910     28913     28915
     28907     28910     28913     28916     28908     28907     28910     28911
     28908     28907     28910     28912     28908     28907     28910     28913
     28909     28907     28910     28911     28909     28907     28910     28912
     28909     28907     28910     28913     28911     28910     28913     28914
     28911     28910     28913     28915     28911     28910     28913     28916
     28912     28910     28913     28914     28912     28910     28913     28915
     28912     28910     28913     28916     28917     28918     28933     28934
     28917     28918     28933     28935     28917     28918     28933     28939
     28918     28917     28921     28922     28918     28917     28921     28923
     28918     28917     28921     28924     28918     28917     28925     28926
     28918     28917     28925     28927     28918     28917     28925     28928
     28918     28917     28929     28930     28918     28917     28929     28931
     28918     28917     28929     28932     28918     28933     28939     28936
     28919     28918     28917     28921     28919     28918     28917     28925
     28919     28918     28917     28929     28919     28918     28933     28934
     28919     28918     28933     28935     28919     28918     28933     28939
     28920     28918     28917     28921     28920     28918     28917     28925
     28920     28918     28917     28929     28920     28918     28933     28934
     28920     28918     28933     28935     28920     28918     28933     28939
     28921     28917     28918     28933     28921     28917     28925     28926
     28921     28917     28925     28927     28921     28917     28925     28928
     28921     28917     28929     28930     28921     28917     28929     28931
     28921     28917     28929     28932     28922     28921     28917     28925
     28922     28921     28917     28929     28923     28921     28917     28925
     28923     28921     28917     28929     28924     28921     28917     28925
     28924     28921     28917     28929     28925     28917     28918     28933
     28925     28917     28929     28930     28925     28917     28929     28931
     28925     28917     28929     28932     28926     28925     28917     28929
     28927     28925     28917     28929     28928     28925     28917     28929
     28929     28917     28918     28933     28933     28939     28936     28937
     28933     28939     28936     28938     28933     28939     28936     28940
     28934     28933     28939     28936     28935     28933     28939     28936
     28936     28940     28941     28942     28936     28940     28941     28943
     28936     28940     28941     28944     28937     28936     28940     28941
     28938     28936     28940     28941     28939     28936     28940     28941
     28940     28941     28944     28945     28940     28941     28944     28946
     28940     28941     28944     28952     28941     28944     28946     28947
     28941     28944     28952     28953     28941     28944     28952     28954
     28941     28944     28952     28955     28942     28941     28944     28945
     28942     28941     28944     28946     28942     28941     28944     28952
     28943     28941     28944     28945     28943     28941     28944     28946
     28943     28941     28944     28952     28944     28946     28947     28948
     28944     28946     28947     28949     28944     28952     28955     28956
     28945     28944     28946     28947     28945     28944     28952     28953
     28945     28944     28952     28954     28945     28944     28952     28955
     28946     28944     28952     28953     28946     28944     28952     28954
     28946     28944     28952     28955     28946     28947     28949     28950
     28946     28947     28949     28951     28946     28947     28949     28961
     28947     28946     28944     28952     28947     28949     28961     28962
     28947     28949     28961     28963     28947     28949     28961     28964
     28948     28947     28949     28950     28948     28947     28949     28951
     28948     28947     28949     28961     28949     28961     28964     28965
     28949     28961     28964     28966     28949     28961     28964     28967
     28950     28949     28961     28962     28950     28949     28961     28963
     28950     28949     28961     28964     28951     28949     28961     28962
     28951     28949     28961     28963     28951     28949     28961     28964
     28952     28955     28956     28957     28952     28955     28956     28958
     28953     28952     28955     28956     28954     28952     28955     28956
     28955     28956     28958     28959     28955     28956     28958     28960
     28955     28956     28958     29008     28956     28958     29008     29009
     28956     28958     29008     29010     28956     28958     29008     29011
     28957     28956     28958     28959     28957     28956     28958     28960
     28957     28956     28958     29008     28958     29008     29011     29012
     28958     29008     29011     29013     28958     29008     29011     29014
     28959     28958     29008     29009     28959     28958     29008     29010
     28959     28958     29008     29011     28960     28958     29008     29009
     28960     28958     29008     29010     28960     28958     29008     29011
     28961     28964     28967     28968     28961     28964     28967     28969
     28961     28964     28967     28970     28962     28961     28964     28965
     28962     28961     28964     28966     28962     28961     28964     28967
     28963     28961     28964     28965     28963     28961     28964     28966
     28963     28961     28964     28967     28964     28967     28970     28971
     28964     28967     28970     28972     28964     28967     28970     28973
     28965     28964     28967     28968     28965     28964     28967     28969
     28965     28964     28967     28970     28966     28964     28967     28968
     28966     28964     28967     28969     28966     28964     28967     28970
     28967     28970     28973     28974     28967     28970     28973     28975
     28967     28970     28973     28976     28968     28967     28970     28971
     28968     28967     28970     28972     28968     28967     28970     28973
     28969     28967     28970     28971     28969     28967     28970     28972
     28969     28967     28970     28973     28970     28973     28976     28977
     28970     28973     28976     28978     28970     28973     28976     28979
     28971     28970     28973     28974     28971     28970     28973     28975
     28971     28970     28973     28976     28972     28970     28973     28974
     28972     28970     28973     28975     28972     28970     28973     28976
     28973     28976     28979     28980     28973     28976     28979     28981
     28974     28973     28976     28977     28974     28973     28976     28978
     28974     28973     28976     28979     28975     28973     28976     28977
     28975     28973     28976     28978     28975     28973     28976     28979
     28976     28979     28981     28982     28976     28979     28981     28983
     28977     28976     28979     28980     28977     28976     28979     28981
     28978     28976     28979     28980     28978     28976     28979     28981
     28979     28981     28983     28984     28979     28981     28983     28985
     28979     28981     28983     28986     28980     28979     28981     28982
     28980     28979     28981     28983     28981     28983     28986     28987
     28981     28983     28986     28988     28981     28983     28986     28989
     28982     28981     28983     28984     28982     28981     28983     28985
     28982     28981     28983     28986     28983     28986     28989     28990
     28983     28986     28989     28991     28983     28986     28989     28992
     28984     28983     28986     28987     28984     28983     28986     28988
     28984     28983     28986     28989     28985     28983     28986     28987
     28985     28983     28986     28988     28985     28983     28986     28989
     28986     28989     28992     28993     28986     28989     28992     28994
     28986     28989     28992     28995     28987     28986     28989     28990
     28987     28986     28989     28991     28987     28986     28989     28992
     28988     28986     28989     28990     28988     28986     28989     28991
     28988     28986     28989     28992     28989     28992     28995     28996
     28989     28992     28995     28997     28989     28992     28995     28998
     28990     28989     28992     28993     28990     28989     28992     28994
     28990     28989     28992     28995     28991     28989     28992     28993
     28991     28989     28992     28994     28991     28989     28992     28995
     28992     28995     28998     28999     28992     28995     28998     29000
     28992     28995     28998     29001     28993     28992     28995     28996
     28993     28992     28995     28997     28993     28992     28995     28998
     28994     28992     28995     28996     28994     28992     28995     28997
     28994     28992     28995     28998     28995     28998     29001     29002
     28995     28998     29001     29003     28995     28998     29001     29004
     28996     28995     28998     28999     28996     28995     28998     29000
     28996     28995     28998     29001     28997     28995     28998     28999
     28997     28995     28998     29000     28997     28995     28998     29001
     28998     29001     29004     29005     28998     29001     29004     29006
     28998     29001     29004     29007     28999     28998     29001     29002
     28999     28998     29001     29003     28999     28998     29001     29004
     29000     28998     29001     29002     29000     28998     29001     29003
     29000     28998     29001     29004     29002     29001     29004     29005
     29002     29001     29004     29006     29002     29001     29004     29007
     29003     29001     29004     29005     29003     29001     29004     29006
     29003     29001     29004     29007     29008     29011     29014     29015
     29008     29011     29014     29016     29008     29011     29014     29017
     29009     29008     29011     29012     29009     29008     29011     29013
     29009     29008     29011     29014     29010     29008     29011     29012
     29010     29008     29011     29013     29010     29008     29011     29014
     29011     29014     29017     29018     29011     29014     29017     29019
     29011     29014     29017     29020     29012     29011     29014     29015
     29012     29011     29014     29016     29012     29011     29014     29017
     29013     29011     29014     29015     29013     29011     29014     29016
     29013     29011     29014     29017     29014     29017     29020     29021
     29014     29017     29020     29022     29014     29017     29020     29023
     29015     29014     29017     29018     29015     29014     29017     29019
     29015     29014     29017     29020     29016     29014     29017     29018
     29016     29014     29017     29019     29016     29014     29017     29020
     29017     29020     29023     29024     29017     29020     29023     29025
     29017     29020     29023     29026     29018     29017     29020     29021
     29018     29017     29020     29022     29018     29017     29020     29023
     29019     29017     29020     29021     29019     29017     29020     29022
     29019     29017     29020     29023     29020     29023     29026     29027
     29020     29023     29026     29028     29020     29023     29026     29029
     29021     29020     29023     29024     29021     29020     29023     29025
     29021     29020     29023     29026     29022     29020     29023     29024
     29022     29020     29023     29025     29022     29020     29023     29026
     29023     29026     29029     29030     29023     29026     29029     29031
     29023     29026     29029     29032     29024     29023     29026     29027
     29024     29023     29026     29028     29024     29023     29026     29029
     29025     29023     29026     29027     29025     29023     29026     29028
     29025     29023     29026     29029     29026     29029     29032     29033
     29026     29029     29032     29034     29026     29029     29032     29035
     29027     29026     29029     29030     29027     29026     29029     29031
     29027     29026     29029     29032     29028     29026     29029     29030
     29028     29026     29029     29031     29028     29026     29029     29032
     29029     29032     29035     29036     29029     29032     29035     29037
     29029     29032     29035     29038     29030     29029     29032     29033
     29030     29029     29032     29034     29030     29029     29032     29035
     29031     29029     29032     29033     29031     29029     29032     29034
     29031     29029     29032     29035     29032     29035     29038     29039
     29032     29035     29038     29040     29032     29035     29038     29041
     29033     29032     29035     29036     29033     29032     29035     29037
     29033     29032     29035     29038     29034     29032     29035     29036
     29034     29032     29035     29037     29034     29032     29035     29038
     29035     29038     29041     29042     29035     29038     29041     29043
     29035     29038     29041     29044     29036     29035     29038     29039
     29036     29035     29038     29040     29036     29035     29038     29041
     29037     29035     29038     29039     29037     29035     29038     29040
     29037     29035     29038     29041     29038     29041     29044     29045
     29038     29041     29044     29046     29038     29041     29044     29047
     29039     29038     29041     29042     29039     29038     29041     29043
     29039     29038     29041     29044     29040     29038     29041     29042
     29040     29038     29041     29043     29040     29038     29041     29044
     29041     29044     29047     29048     29041     29044     29047     29049
     29041     29044     29047     29050     29042     29041     29044     29045
     29042     29041     29044     29046     29042     29041     29044     29047
     29043     29041     29044     29045     29043     29041     29044     29046
     29043     29041     29044     29047     29045     29044     29047     29048
     29045     29044     29047     29049     29045     29044     29047     29050
     29046     29044     29047     29048     29046     29044     29047     29049
     29046     29044     29047     29050     29051     29052     29067     29068
     29051     29052     29067     29069     29051     29052     29067     29073
     29052     29051     29055     29056     29052     29051     29055     29057
     29052     29051     29055     29058     29052     29051     29059     29060
     29052     29051     29059     29061     29052     29051     29059     29062
     29052     29051     29063     29064     29052     29051     29063     29065
     29052     29051     29063     29066     29052     29067     29073     29070
     29053     29052     29051     29055     29053     29052     29051     29059
     29053     29052     29051     29063     29053     29052     29067     29068
     29053     29052     29067     29069     29053     29052     29067     29073
     29054     29052     29051     29055     29054     29052     29051     29059
     29054     29052     29051     29063     29054     29052     29067     29068
     29054     29052     29067     29069     29054     29052     29067     29073
     29055     29051     29052     29067     29055     29051     29059     29060
     29055     29051     29059     29061     29055     29051     29059     29062
     29055     29051     29063     29064     29055     29051     29063     29065
     29055     29051     29063     29066     29056     29055     29051     29059
     29056     29055     29051     29063     29057     29055     29051     29059
     29057     29055     29051     29063     29058     29055     29051     29059
     29058     29055     29051     29063     29059     29051     29052     29067
     29059     29051     29063     29064     29059     29051     29063     29065
     29059     29051     29063     29066     29060     29059     29051     29063
     29061     29059     29051     29063     29062     29059     29051     29063
     29063     29051     29052     29067     29067     29073     29070     29071
     29067     29073     29070     29072     29067     29073     29070     29074
     29068     29067     29073     29070     29069     29067     29073     29070
     29070     29074     29075     29076     29070     29074     29075     29077
     29070     29074     29075     29078     29071     29070     29074     29075
     29072     29070     29074     29075     29073     29070     29074     29075
     29074     29075     29078     29079     29074     29075     29078     29080
     29074     29075     29078     29086     29075     29078     29080     29081
     29075     29078     29086     29087     29075     29078     29086     29088
     29075     29078     29086     29089     29076     29075     29078     29079
     29076     29075     29078     29080     29076     29075     29078     29086
     29077     29075     29078     29079     29077     29075     29078     29080
     29077     29075     29078     29086     29078     29080     29081     29082
     29078     29080     29081     29083     29078     29086     29089     29090
     29079     29078     29080     29081     29079     29078     29086     29087
     29079     29078     29086     29088     29079     29078     29086     29089
     29080     29078     29086     29087     29080     29078     29086     29088
     29080     29078     29086     29089     29080     29081     29083     29084
     29080     29081     29083     29085     29080     29081     29083     29095
     29081     29080     29078     29086     29081     29083     29095     29096
     29081     29083     29095     29097     29081     29083     29095     29098
     29082     29081     29083     29084     29082     29081     29083     29085
     29082     29081     29083     29095     29083     29095     29098     29099
     29083     29095     29098     29100     29083     29095     29098     29101
     29084     29083     29095     29096     29084     29083     29095     29097
     29084     29083     29095     29098     29085     29083     29095     29096
     29085     29083     29095     29097     29085     29083     29095     29098
     29086     29089     29090     29091     29086     29089     29090     29092
     29087     29086     29089     29090     29088     29086     29089     29090
     29089     29090     29092     29093     29089     29090     29092     29094
     29089     29090     29092     29142     29090     29092     29142     29143
     29090     29092     29142     29144     29090     29092     29142     29145
     29091     29090     29092     29093     29091     29090     29092     29094
     29091     29090     29092     29142     29092     29142     29145     29146
     29092     29142     29145     29147     29092     29142     29145     29148
     29093     29092     29142     29143     29093     29092     29142     29144
     29093     29092     29142     29145     29094     29092     29142     29143
     29094     29092     29142     29144     29094     29092     29142     29145
     29095     29098     29101     29102     29095     29098     29101     29103
     29095     29098     29101     29104     29096     29095     29098     29099
     29096     29095     29098     29100     29096     29095     29098     29101
     29097     29095     29098     29099     29097     29095     29098     29100
     29097     29095     29098     29101     29098     29101     29104     29105
     29098     29101     29104     29106     29098     29101     29104     29107
     29099     29098     29101     29102     29099     29098     29101     29103
     29099     29098     29101     29104     29100     29098     29101     29102
     29100     29098     29101     29103     29100     29098     29101     29104
     29101     29104     29107     29108     29101     29104     29107     29109
     29101     29104     29107     29110     29102     29101     29104     29105
     29102     29101     29104     29106     29102     29101     29104     29107
     29103     29101     29104     29105     29103     29101     29104     29106
     29103     29101     29104     29107     29104     29107     29110     29111
     29104     29107     29110     29112     29104     29107     29110     29113
     29105     29104     29107     29108     29105     29104     29107     29109
     29105     29104     29107     29110     29106     29104     29107     29108
     29106     29104     29107     29109     29106     29104     29107     29110
     29107     29110     29113     29114     29107     29110     29113     29115
     29108     29107     29110     29111     29108     29107     29110     29112
     29108     29107     29110     29113     29109     29107     29110     29111
     29109     29107     29110     29112     29109     29107     29110     29113
     29110     29113     29115     29116     29110     29113     29115     29117
     29111     29110     29113     29114     29111     29110     29113     29115
     29112     29110     29113     29114     29112     29110     29113     29115
     29113     29115     29117     29118     29113     29115     29117     29119
     29113     29115     29117     29120     29114     29113     29115     29116
     29114     29113     29115     29117     29115     29117     29120     29121
     29115     29117     29120     29122     29115     29117     29120     29123
     29116     29115     29117     29118     29116     29115     29117     29119
     29116     29115     29117     29120     29117     29120     29123     29124
     29117     29120     29123     29125     29117     29120     29123     29126
     29118     29117     29120     29121     29118     29117     29120     29122
     29118     29117     29120     29123     29119     29117     29120     29121
     29119     29117     29120     29122     29119     29117     29120     29123
     29120     29123     29126     29127     29120     29123     29126     29128
     29120     29123     29126     29129     29121     29120     29123     29124
     29121     29120     29123     29125     29121     29120     29123     29126
     29122     29120     29123     29124     29122     29120     29123     29125
     29122     29120     29123     29126     29123     29126     29129     29130
     29123     29126     29129     29131     29123     29126     29129     29132
     29124     29123     29126     29127     29124     29123     29126     29128
     29124     29123     29126     29129     29125     29123     29126     29127
     29125     29123     29126     29128     29125     29123     29126     29129
     29126     29129     29132     29133     29126     29129     29132     29134
     29126     29129     29132     29135     29127     29126     29129     29130
     29127     29126     29129     29131     29127     29126     29129     29132
     29128     29126     29129     29130     29128     29126     29129     29131
     29128     29126     29129     29132     29129     29132     29135     29136
     29129     29132     29135     29137     29129     29132     29135     29138
     29130     29129     29132     29133     29130     29129     29132     29134
     29130     29129     29132     29135     29131     29129     29132     29133
     29131     29129     29132     29134     29131     29129     29132     29135
     29132     29135     29138     29139     29132     29135     29138     29140
     29132     29135     29138     29141     29133     29132     29135     29136
     29133     29132     29135     29137     29133     29132     29135     29138
     29134     29132     29135     29136     29134     29132     29135     29137
     29134     29132     29135     29138     29136     29135     29138     29139
     29136     29135     29138     29140     29136     29135     29138     29141
     29137     29135     29138     29139     29137     29135     29138     29140
     29137     29135     29138     29141     29142     29145     29148     29149
     29142     29145     29148     29150     29142     29145     29148     29151
     29143     29142     29145     29146     29143     29142     29145     29147
     29143     29142     29145     29148     29144     29142     29145     29146
     29144     29142     29145     29147     29144     29142     29145     29148
     29145     29148     29151     29152     29145     29148     29151     29153
     29145     29148     29151     29154     29146     29145     29148     29149
     29146     29145     29148     29150     29146     29145     29148     29151
     29147     29145     29148     29149     29147     29145     29148     29150
     29147     29145     29148     29151     29148     29151     29154     29155
     29148     29151     29154     29156     29148     29151     29154     29157
     29149     29148     29151     29152     29149     29148     29151     29153
     29149     29148     29151     29154     29150     29148     29151     29152
     29150     29148     29151     29153     29150     29148     29151     29154
     29151     29154     29157     29158     29151     29154     29157     29159
     29151     29154     29157     29160     29152     29151     29154     29155
     29152     29151     29154     29156     29152     29151     29154     29157
     29153     29151     29154     29155     29153     29151     29154     29156
     29153     29151     29154     29157     29154     29157     29160     29161
     29154     29157     29160     29162     29154     29157     29160     29163
     29155     29154     29157     29158     29155     29154     29157     29159
     29155     29154     29157     29160     29156     29154     29157     29158
     29156     29154     29157     29159     29156     29154     29157     29160
     29157     29160     29163     29164     29157     29160     29163     29165
     29157     29160     29163     29166     29158     29157     29160     29161
     29158     29157     29160     29162     29158     29157     29160     29163
     29159     29157     29160     29161     29159     29157     29160     29162
     29159     29157     29160     29163     29160     29163     29166     29167
     29160     29163     29166     29168     29160     29163     29166     29169
     29161     29160     29163     29164     29161     29160     29163     29165
     29161     29160     29163     29166     29162     29160     29163     29164
     29162     29160     29163     29165     29162     29160     29163     29166
     29163     29166     29169     29170     29163     29166     29169     29171
     29163     29166     29169     29172     29164     29163     29166     29167
     29164     29163     29166     29168     29164     29163     29166     29169
     29165     29163     29166     29167     29165     29163     29166     29168
     29165     29163     29166     29169     29166     29169     29172     29173
     29166     29169     29172     29174     29166     29169     29172     29175
     29167     29166     29169     29170     29167     29166     29169     29171
     29167     29166     29169     29172     29168     29166     29169     29170
     29168     29166     29169     29171     29168     29166     29169     29172
     29169     29172     29175     29176     29169     29172     29175     29177
     29169     29172     29175     29178     29170     29169     29172     29173
     29170     29169     29172     29174     29170     29169     29172     29175
     29171     29169     29172     29173     29171     29169     29172     29174
     29171     29169     29172     29175     29172     29175     29178     29179
     29172     29175     29178     29180     29172     29175     29178     29181
     29173     29172     29175     29176     29173     29172     29175     29177
     29173     29172     29175     29178     29174     29172     29175     29176
     29174     29172     29175     29177     29174     29172     29175     29178
     29175     29178     29181     29182     29175     29178     29181     29183
     29175     29178     29181     29184     29176     29175     29178     29179
     29176     29175     29178     29180     29176     29175     29178     29181
     29177     29175     29178     29179     29177     29175     29178     29180
     29177     29175     29178     29181     29179     29178     29181     29182
     29179     29178     29181     29183     29179     29178     29181     29184
     29180     29178     29181     29182     29180     29178     29181     29183
     29180     29178     29181     29184     29185     29186     29201     29202
     29185     29186     29201     29203     29185     29186     29201     29207
     29186     29185     29189     29190     29186     29185     29189     29191
     29186     29185     29189     29192     29186     29185     29193     29194
     29186     29185     29193     29195     29186     29185     29193     29196
     29186     29185     29197     29198     29186     29185     29197     29199
     29186     29185     29197     29200     29186     29201     29207     29204
     29187     29186     29185     29189     29187     29186     29185     29193
     29187     29186     29185     29197     29187     29186     29201     29202
     29187     29186     29201     29203     29187     29186     29201     29207
     29188     29186     29185     29189     29188     29186     29185     29193
     29188     29186     29185     29197     29188     29186     29201     29202
     29188     29186     29201     29203     29188     29186     29201     29207
     29189     29185     29186     29201     29189     29185     29193     29194
     29189     29185     29193     29195     29189     29185     29193     29196
     29189     29185     29197     29198     29189     29185     29197     29199
     29189     29185     29197     29200     29190     29189     29185     29193
     29190     29189     29185     29197     29191     29189     29185     29193
     29191     29189     29185     29197     29192     29189     29185     29193
     29192     29189     29185     29197     29193     29185     29186     29201
     29193     29185     29197     29198     29193     29185     29197     29199
     29193     29185     29197     29200     29194     29193     29185     29197
     29195     29193     29185     29197     29196     29193     29185     29197
     29197     29185     29186     29201     29201     29207     29204     29205
     29201     29207     29204     29206     29201     29207     29204     29208
     29202     29201     29207     29204     29203     29201     29207     29204
     29204     29208     29209     29210     29204     29208     29209     29211
     29204     29208     29209     29212     29205     29204     29208     29209
     29206     29204     29208     29209     29207     29204     29208     29209
     29208     29209     29212     29213     29208     29209     29212     29214
     29208     29209     29212     29220     29209     29212     29214     29215
     29209     29212     29220     29221     29209     29212     29220     29222
     29209     29212     29220     29223     29210     29209     29212     29213
     29210     29209     29212     29214     29210     29209     29212     29220
     29211     29209     29212     29213     29211     29209     29212     29214
     29211     29209     29212     29220     29212     29214     29215     29216
     29212     29214     29215     29217     29212     29220     29223     29224
     29213     29212     29214     29215     29213     29212     29220     29221
     29213     29212     29220     29222     29213     29212     29220     29223
     29214     29212     29220     29221     29214     29212     29220     29222
     29214     29212     29220     29223     29214     29215     29217     29218
     29214     29215     29217     29219     29214     29215     29217     29229
     29215     29214     29212     29220     29215     29217     29229     29230
     29215     29217     29229     29231     29215     29217     29229     29232
     29216     29215     29217     29218     29216     29215     29217     29219
     29216     29215     29217     29229     29217     29229     29232     29233
     29217     29229     29232     29234     29217     29229     29232     29235
     29218     29217     29229     29230     29218     29217     29229     29231
     29218     29217     29229     29232     29219     29217     29229     29230
     29219     29217     29229     29231     29219     29217     29229     29232
     29220     29223     29224     29225     29220     29223     29224     29226
     29221     29220     29223     29224     29222     29220     29223     29224
     29223     29224     29226     29227     29223     29224     29226     29228
     29223     29224     29226     29276     29224     29226     29276     29277
     29224     29226     29276     29278     29224     29226     29276     29279
     29225     29224     29226     29227     29225     29224     29226     29228
     29225     29224     29226     29276     29226     29276     29279     29280
     29226     29276     29279     29281     29226     29276     29279     29282
     29227     29226     29276     29277     29227     29226     29276     29278
     29227     29226     29276     29279     29228     29226     29276     29277
     29228     29226     29276     29278     29228     29226     29276     29279
     29229     29232     29235     29236     29229     29232     29235     29237
     29229     29232     29235     29238     29230     29229     29232     29233
     29230     29229     29232     29234     29230     29229     29232     29235
     29231     29229     29232     29233     29231     29229     29232     29234
     29231     29229     29232     29235     29232     29235     29238     29239
     29232     29235     29238     29240     29232     29235     29238     29241
     29233     29232     29235     29236     29233     29232     29235     29237
     29233     29232     29235     29238     29234     29232     29235     29236
     29234     29232     29235     29237     29234     29232     29235     29238
     29235     29238     29241     29242     29235     29238     29241     29243
     29235     29238     29241     29244     29236     29235     29238     29239
     29236     29235     29238     29240     29236     29235     29238     29241
     29237     29235     29238     29239     29237     29235     29238     29240
     29237     29235     29238     29241     29238     29241     29244     29245
     29238     29241     29244     29246     29238     29241     29244     29247
     29239     29238     29241     29242     29239     29238     29241     29243
     29239     29238     29241     29244     29240     29238     29241     29242
     29240     29238     29241     29243     29240     29238     29241     29244
     29241     29244     29247     29248     29241     29244     29247     29249
     29242     29241     29244     29245     29242     29241     29244     29246
     29242     29241     29244     29247     29243     29241     29244     29245
     29243     29241     29244     29246     29243     29241     29244     29247
     29244     29247     29249     29250     29244     29247     29249     29251
     29245     29244     29247     29248     29245     29244     29247     29249
     29246     29244     29247     29248     29246     29244     29247     29249
     29247     29249     29251     29252     29247     29249     29251     29253
     29247     29249     29251     29254     29248     29247     29249     29250
     29248     29247     29249     29251     29249     29251     29254     29255
     29249     29251     29254     29256     29249     29251     29254     29257
     29250     29249     29251     29252     29250     29249     29251     29253
     29250     29249     29251     29254     29251     29254     29257     29258
     29251     29254     29257     29259     29251     29254     29257     29260
     29252     29251     29254     29255     29252     29251     29254     29256
     29252     29251     29254     29257     29253     29251     29254     29255
     29253     29251     29254     29256     29253     29251     29254     29257
     29254     29257     29260     29261     29254     29257     29260     29262
     29254     29257     29260     29263     29255     29254     29257     29258
     29255     29254     29257     29259     29255     29254     29257     29260
     29256     29254     29257     29258     29256     29254     29257     29259
     29256     29254     29257     29260     29257     29260     29263     29264
     29257     29260     29263     29265     29257     29260     29263     29266
     29258     29257     29260     29261     29258     29257     29260     29262
     29258     29257     29260     29263     29259     29257     29260     29261
     29259     29257     29260     29262     29259     29257     29260     29263
     29260     29263     29266     29267     29260     29263     29266     29268
     29260     29263     29266     29269     29261     29260     29263     29264
     29261     29260     29263     29265     29261     29260     29263     29266
     29262     29260     29263     29264     29262     29260     29263     29265
     29262     29260     29263     29266     29263     29266     29269     29270
     29263     29266     29269     29271     29263     29266     29269     29272
     29264     29263     29266     29267     29264     29263     29266     29268
     29264     29263     29266     29269     29265     29263     29266     29267
     29265     29263     29266     29268     29265     29263     29266     29269
     29266     29269     29272     29273     29266     29269     29272     29274
     29266     29269     29272     29275     29267     29266     29269     29270
     29267     29266     29269     29271     29267     29266     29269     29272
     29268     29266     29269     29270     29268     29266     29269     29271
     29268     29266     29269     29272     29270     29269     29272     29273
     29270     29269     29272     29274     29270     29269     29272     29275
     29271     29269     29272     29273     29271     29269     29272     29274
     29271     29269     29272     29275     29276     29279     29282     29283
     29276     29279     29282     29284     29276     29279     29282     29285
     29277     29276     29279     29280     29277     29276     29279     29281
     29277     29276     29279     29282     29278     29276     29279     29280
     29278     29276     29279     29281     29278     29276     29279     29282
     29279     29282     29285     29286     29279     29282     29285     29287
     29279     29282     29285     29288     29280     29279     29282     29283
     29280     29279     29282     29284     29280     29279     29282     29285
     29281     29279     29282     29283     29281     29279     29282     29284
     29281     29279     29282     29285     29282     29285     29288     29289
     29282     29285     29288     29290     29282     29285     29288     29291
     29283     29282     29285     29286     29283     29282     29285     29287
     29283     29282     29285     29288     29284     29282     29285     29286
     29284     29282     29285     29287     29284     29282     29285     29288
     29285     29288     29291     29292     29285     29288     29291     29293
     29285     29288     29291     29294     29286     29285     29288     29289
     29286     29285     29288     29290     29286     29285     29288     29291
     29287     29285     29288     29289     29287     29285     29288     29290
     29287     29285     29288     29291     29288     29291     29294     29295
     29288     29291     29294     29296     29288     29291     29294     29297
     29289     29288     29291     29292     29289     29288     29291     29293
     29289     29288     29291     29294     29290     29288     29291     29292
     29290     29288     29291     29293     29290     29288     29291     29294
     29291     29294     29297     29298     29291     29294     29297     29299
     29291     29294     29297     29300     29292     29291     29294     29295
     29292     29291     29294     29296     29292     29291     29294     29297
     29293     29291     29294     29295     29293     29291     29294     29296
     29293     29291     29294     29297     29294     29297     29300     29301
     29294     29297     29300     29302     29294     29297     29300     29303
     29295     29294     29297     29298     29295     29294     29297     29299
     29295     29294     29297     29300     29296     29294     29297     29298
     29296     29294     29297     29299     29296     29294     29297     29300
     29297     29300     29303     29304     29297     29300     29303     29305
     29297     29300     29303     29306     29298     29297     29300     29301
     29298     29297     29300     29302     29298     29297     29300     29303
     29299     29297     29300     29301     29299     29297     29300     29302
     29299     29297     29300     29303     29300     29303     29306     29307
     29300     29303     29306     29308     29300     29303     29306     29309
     29301     29300     29303     29304     29301     29300     29303     29305
     29301     29300     29303     29306     29302     29300     29303     29304
     29302     29300     29303     29305     29302     29300     29303     29306
     29303     29306     29309     29310     29303     29306     29309     29311
     29303     29306     29309     29312     29304     29303     29306     29307
     29304     29303     29306     29308     29304     29303     29306     29309
     29305     29303     29306     29307     29305     29303     29306     29308
     29305     29303     29306     29309     29306     29309     29312     29313
     29306     29309     29312     29314     29306     29309     29312     29315
     29307     29306     29309     29310     29307     29306     29309     29311
     29307     29306     29309     29312     29308     29306     29309     29310
     29308     29306     29309     29311     29308     29306     29309     29312
     29309     29312     29315     29316     29309     29312     29315     29317
     29309     29312     29315     29318     29310     29309     29312     29313
     29310     29309     29312     29314     29310     29309     29312     29315
     29311     29309     29312     29313     29311     29309     29312     29314
     29311     29309     29312     29315     29313     29312     29315     29316
     29313     29312     29315     29317     29313     29312     29315     29318
     29314     29312     29315     29316     29314     29312     29315     29317
     29314     29312     29315     29318     29319     29320     29335     29336
     29319     29320     29335     29337     29319     29320     29335     29341
     29320     29319     29323     29324     29320     29319     29323     29325
     29320     29319     29323     29326     29320     29319     29327     29328
     29320     29319     29327     29329     29320     29319     29327     29330
     29320     29319     29331     29332     29320     29319     29331     29333
     29320     29319     29331     29334     29320     29335     29341     29338
     29321     29320     29319     29323     29321     29320     29319     29327
     29321     29320     29319     29331     29321     29320     29335     29336
     29321     29320     29335     29337     29321     29320     29335     29341
     29322     29320     29319     29323     29322     29320     29319     29327
     29322     29320     29319     29331     29322     29320     29335     29336
     29322     29320     29335     29337     29322     29320     29335     29341
     29323     29319     29320     29335     29323     29319     29327     29328
     29323     29319     29327     29329     29323     29319     29327     29330
     29323     29319     29331     29332     29323     29319     29331     29333
     29323     29319     29331     29334     29324     29323     29319     29327
     29324     29323     29319     29331     29325     29323     29319     29327
     29325     29323     29319     29331     29326     29323     29319     29327
     29326     29323     29319     29331     29327     29319     29320     29335
     29327     29319     29331     29332     29327     29319     29331     29333
     29327     29319     29331     29334     29328     29327     29319     29331
     29329     29327     29319     29331     29330     29327     29319     29331
     29331     29319     29320     29335     29335     29341     29338     29339
     29335     29341     29338     29340     29335     29341     29338     29342
     29336     29335     29341     29338     29337     29335     29341     29338
     29338     29342     29343     29344     29338     29342     29343     29345
     29338     29342     29343     29346     29339     29338     29342     29343
     29340     29338     29342     29343     29341     29338     29342     29343
     29342     29343     29346     29347     29342     29343     29346     29348
     29342     29343     29346     29354     29343     29346     29348     29349
     29343     29346     29354     29355     29343     29346     29354     29356
     29343     29346     29354     29357     29344     29343     29346     29347
     29344     29343     29346     29348     29344     29343     29346     29354
     29345     29343     29346     29347     29345     29343     29346     29348
     29345     29343     29346     29354     29346     29348     29349     29350
     29346     29348     29349     29351     29346     29354     29357     29358
     29347     29346     29348     29349     29347     29346     29354     29355
     29347     29346     29354     29356     29347     29346     29354     29357
     29348     29346     29354     29355     29348     29346     29354     29356
     29348     29346     29354     29357     29348     29349     29351     29352
     29348     29349     29351     29353     29348     29349     29351     29363
     29349     29348     29346     29354     29349     29351     29363     29364
     29349     29351     29363     29365     29349     29351     29363     29366
     29350     29349     29351     29352     29350     29349     29351     29353
     29350     29349     29351     29363     29351     29363     29366     29367
     29351     29363     29366     29368     29351     29363     29366     29369
     29352     29351     29363     29364     29352     29351     29363     29365
     29352     29351     29363     29366     29353     29351     29363     29364
     29353     29351     29363     29365     29353     29351     29363     29366
     29354     29357     29358     29359     29354     29357     29358     29360
     29355     29354     29357     29358     29356     29354     29357     29358
     29357     29358     29360     29361     29357     29358     29360     29362
     29357     29358     29360     29410     29358     29360     29410     29411
     29358     29360     29410     29412     29358     29360     29410     29413
     29359     29358     29360     29361     29359     29358     29360     29362
     29359     29358     29360     29410     29360     29410     29413     29414
     29360     29410     29413     29415     29360     29410     29413     29416
     29361     29360     29410     29411     29361     29360     29410     29412
     29361     29360     29410     29413     29362     29360     29410     29411
     29362     29360     29410     29412     29362     29360     29410     29413
     29363     29366     29369     29370     29363     29366     29369     29371
     29363     29366     29369     29372     29364     29363     29366     29367
     29364     29363     29366     29368     29364     29363     29366     29369
     29365     29363     29366     29367     29365     29363     29366     29368
     29365     29363     29366     29369     29366     29369     29372     29373
     29366     29369     29372     29374     29366     29369     29372     29375
     29367     29366     29369     29370     29367     29366     29369     29371
     29367     29366     29369     29372     29368     29366     29369     29370
     29368     29366     29369     29371     29368     29366     29369     29372
     29369     29372     29375     29376     29369     29372     29375     29377
     29369     29372     29375     29378     29370     29369     29372     29373
     29370     29369     29372     29374     29370     29369     29372     29375
     29371     29369     29372     29373     29371     29369     29372     29374
     29371     29369     29372     29375     29372     29375     29378     29379
     29372     29375     29378     29380     29372     29375     29378     29381
     29373     29372     29375     29376     29373     29372     29375     29377
     29373     29372     29375     29378     29374     29372     29375     29376
     29374     29372     29375     29377     29374     29372     29375     29378
     29375     29378     29381     29382     29375     29378     29381     29383
     29376     29375     29378     29379     29376     29375     29378     29380
     29376     29375     29378     29381     29377     29375     29378     29379
     29377     29375     29378     29380     29377     29375     29378     29381
     29378     29381     29383     29384     29378     29381     29383     29385
     29379     29378     29381     29382     29379     29378     29381     29383
     29380     29378     29381     29382     29380     29378     29381     29383
     29381     29383     29385     29386     29381     29383     29385     29387
     29381     29383     29385     29388     29382     29381     29383     29384
     29382     29381     29383     29385     29383     29385     29388     29389
     29383     29385     29388     29390     29383     29385     29388     29391
     29384     29383     29385     29386     29384     29383     29385     29387
     29384     29383     29385     29388     29385     29388     29391     29392
     29385     29388     29391     29393     29385     29388     29391     29394
     29386     29385     29388     29389     29386     29385     29388     29390
     29386     29385     29388     29391     29387     29385     29388     29389
     29387     29385     29388     29390     29387     29385     29388     29391
     29388     29391     29394     29395     29388     29391     29394     29396
     29388     29391     29394     29397     29389     29388     29391     29392
     29389     29388     29391     29393     29389     29388     29391     29394
     29390     29388     29391     29392     29390     29388     29391     29393
     29390     29388     29391     29394     29391     29394     29397     29398
     29391     29394     29397     29399     29391     29394     29397     29400
     29392     29391     29394     29395     29392     29391     29394     29396
     29392     29391     29394     29397     29393     29391     29394     29395
     29393     29391     29394     29396     29393     29391     29394     29397
     29394     29397     29400     29401     29394     29397     29400     29402
     29394     29397     29400     29403     29395     29394     29397     29398
     29395     29394     29397     29399     29395     29394     29397     29400
     29396     29394     29397     29398     29396     29394     29397     29399
     29396     29394     29397     29400     29397     29400     29403     29404
     29397     29400     29403     29405     29397     29400     29403     29406
     29398     29397     29400     29401     29398     29397     29400     29402
     29398     29397     29400     29403     29399     29397     29400     29401
     29399     29397     29400     29402     29399     29397     29400     29403
     29400     29403     29406     29407     29400     29403     29406     29408
     29400     29403     29406     29409     29401     29400     29403     29404
     29401     29400     29403     29405     29401     29400     29403     29406
     29402     29400     29403     29404     29402     29400     29403     29405
     29402     29400     29403     29406     29404     29403     29406     29407
     29404     29403     29406     29408     29404     29403     29406     29409
     29405     29403     29406     29407     29405     29403     29406     29408
     29405     29403     29406     29409     29410     29413     29416     29417
     29410     29413     29416     29418     29410     29413     29416     29419
     29411     29410     29413     29414     29411     29410     29413     29415
     29411     29410     29413     29416     29412     29410     29413     29414
     29412     29410     29413     29415     29412     29410     29413     29416
     29413     29416     29419     29420     29413     29416     29419     29421
     29413     29416     29419     29422     29414     29413     29416     29417
     29414     29413     29416     29418     29414     29413     29416     29419
     29415     29413     29416     29417     29415     29413     29416     29418
     29415     29413     29416     29419     29416     29419     29422     29423
     29416     29419     29422     29424     29416     29419     29422     29425
     29417     29416     29419     29420     29417     29416     29419     29421
     29417     29416     29419     29422     29418     29416     29419     29420
     29418     29416     29419     29421     29418     29416     29419     29422
     29419     29422     29425     29426     29419     29422     29425     29427
     29419     29422     29425     29428     29420     29419     29422     29423
     29420     29419     29422     29424     29420     29419     29422     29425
     29421     29419     29422     29423     29421     29419     29422     29424
     29421     29419     29422     29425     29422     29425     29428     29429
     29422     29425     29428     29430     29422     29425     29428     29431
     29423     29422     29425     29426     29423     29422     29425     29427
     29423     29422     29425     29428     29424     29422     29425     29426
     29424     29422     29425     29427     29424     29422     29425     29428
     29425     29428     29431     29432     29425     29428     29431     29433
     29425     29428     29431     29434     29426     29425     29428     29429
     29426     29425     29428     29430     29426     29425     29428     29431
     29427     29425     29428     29429     29427     29425     29428     29430
     29427     29425     29428     29431     29428     29431     29434     29435
     29428     29431     29434     29436     29428     29431     29434     29437
     29429     29428     29431     29432     29429     29428     29431     29433
     29429     29428     29431     29434     29430     29428     29431     29432
     29430     29428     29431     29433     29430     29428     29431     29434
     29431     29434     29437     29438     29431     29434     29437     29439
     29431     29434     29437     29440     29432     29431     29434     29435
     29432     29431     29434     29436     29432     29431     29434     29437
     29433     29431     29434     29435     29433     29431     29434     29436
     29433     29431     29434     29437     29434     29437     29440     29441
     29434     29437     29440     29442     29434     29437     29440     29443
     29435     29434     29437     29438     29435     29434     29437     29439
     29435     29434     29437     29440     29436     29434     29437     29438
     29436     29434     29437     29439     29436     29434     29437     29440
     29437     29440     29443     29444     29437     29440     29443     29445
     29437     29440     29443     29446     29438     29437     29440     29441
     29438     29437     29440     29442     29438     29437     29440     29443
     29439     29437     29440     29441     29439     29437     29440     29442
     29439     29437     29440     29443     29440     29443     29446     29447
     29440     29443     29446     29448     29440     29443     29446     29449
     29441     29440     29443     29444     29441     29440     29443     29445
     29441     29440     29443     29446     29442     29440     29443     29444
     29442     29440     29443     29445     29442     29440     29443     29446
     29443     29446     29449     29450     29443     29446     29449     29451
     29443     29446     29449     29452     29444     29443     29446     29447
     29444     29443     29446     29448     29444     29443     29446     29449
     29445     29443     29446     29447     29445     29443     29446     29448
     29445     29443     29446     29449     29447     29446     29449     29450
     29447     29446     29449     29451     29447     29446     29449     29452
     29448     29446     29449     29450     29448     29446     29449     29451
     29448     29446     29449     29452     29453     29454     29469     29470
     29453     29454     29469     29471     29453     29454     29469     29475
     29454     29453     29457     29458     29454     29453     29457     29459
     29454     29453     29457     29460     29454     29453     29461     29462
     29454     29453     29461     29463     29454     29453     29461     29464
     29454     29453     29465     29466     29454     29453     29465     29467
     29454     29453     29465     29468     29454     29469     29475     29472
     29455     29454     29453     29457     29455     29454     29453     29461
     29455     29454     29453     29465     29455     29454     29469     29470
     29455     29454     29469     29471     29455     29454     29469     29475
     29456     29454     29453     29457     29456     29454     29453     29461
     29456     29454     29453     29465     29456     29454     29469     29470
     29456     29454     29469     29471     29456     29454     29469     29475
     29457     29453     29454     29469     29457     29453     29461     29462
     29457     29453     29461     29463     29457     29453     29461     29464
     29457     29453     29465     29466     29457     29453     29465     29467
     29457     29453     29465     29468     29458     29457     29453     29461
     29458     29457     29453     29465     29459     29457     29453     29461
     29459     29457     29453     29465     29460     29457     29453     29461
     29460     29457     29453     29465     29461     29453     29454     29469
     29461     29453     29465     29466     29461     29453     29465     29467
     29461     29453     29465     29468     29462     29461     29453     29465
     29463     29461     29453     29465     29464     29461     29453     29465
     29465     29453     29454     29469     29469     29475     29472     29473
     29469     29475     29472     29474     29469     29475     29472     29476
     29470     29469     29475     29472     29471     29469     29475     29472
     29472     29476     29477     29478     29472     29476     29477     29479
     29472     29476     29477     29480     29473     29472     29476     29477
     29474     29472     29476     29477     29475     29472     29476     29477
     29476     29477     29480     29481     29476     29477     29480     29482
     29476     29477     29480     29488     29477     29480     29482     29483
     29477     29480     29488     29489     29477     29480     29488     29490
     29477     29480     29488     29491     29478     29477     29480     29481
     29478     29477     29480     29482     29478     29477     29480     29488
     29479     29477     29480     29481     29479     29477     29480     29482
     29479     29477     29480     29488     29480     29482     29483     29484
     29480     29482     29483     29485     29480     29488     29491     29492
     29481     29480     29482     29483     29481     29480     29488     29489
     29481     29480     29488     29490     29481     29480     29488     29491
     29482     29480     29488     29489     29482     29480     29488     29490
     29482     29480     29488     29491     29482     29483     29485     29486
     29482     29483     29485     29487     29482     29483     29485     29497
     29483     29482     29480     29488     29483     29485     29497     29498
     29483     29485     29497     29499     29483     29485     29497     29500
     29484     29483     29485     29486     29484     29483     29485     29487
     29484     29483     29485     29497     29485     29497     29500     29501
     29485     29497     29500     29502     29485     29497     29500     29503
     29486     29485     29497     29498     29486     29485     29497     29499
     29486     29485     29497     29500     29487     29485     29497     29498
     29487     29485     29497     29499     29487     29485     29497     29500
     29488     29491     29492     29493     29488     29491     29492     29494
     29489     29488     29491     29492     29490     29488     29491     29492
     29491     29492     29494     29495     29491     29492     29494     29496
     29491     29492     29494     29544     29492     29494     29544     29545
     29492     29494     29544     29546     29492     29494     29544     29547
     29493     29492     29494     29495     29493     29492     29494     29496
     29493     29492     29494     29544     29494     29544     29547     29548
     29494     29544     29547     29549     29494     29544     29547     29550
     29495     29494     29544     29545     29495     29494     29544     29546
     29495     29494     29544     29547     29496     29494     29544     29545
     29496     29494     29544     29546     29496     29494     29544     29547
     29497     29500     29503     29504     29497     29500     29503     29505
     29497     29500     29503     29506     29498     29497     29500     29501
     29498     29497     29500     29502     29498     29497     29500     29503
     29499     29497     29500     29501     29499     29497     29500     29502
     29499     29497     29500     29503     29500     29503     29506     29507
     29500     29503     29506     29508     29500     29503     29506     29509
     29501     29500     29503     29504     29501     29500     29503     29505
     29501     29500     29503     29506     29502     29500     29503     29504
     29502     29500     29503     29505     29502     29500     29503     29506
     29503     29506     29509     29510     29503     29506     29509     29511
     29503     29506     29509     29512     29504     29503     29506     29507
     29504     29503     29506     29508     29504     29503     29506     29509
     29505     29503     29506     29507     29505     29503     29506     29508
     29505     29503     29506     29509     29506     29509     29512     29513
     29506     29509     29512     29514     29506     29509     29512     29515
     29507     29506     29509     29510     29507     29506     29509     29511
     29507     29506     29509     29512     29508     29506     29509     29510
     29508     29506     29509     29511     29508     29506     29509     29512
     29509     29512     29515     29516     29509     29512     29515     29517
     29510     29509     29512     29513     29510     29509     29512     29514
     29510     29509     29512     29515     29511     29509     29512     29513
     29511     29509     29512     29514     29511     29509     29512     29515
     29512     29515     29517     29518     29512     29515     29517     29519
     29513     29512     29515     29516     29513     29512     29515     29517
     29514     29512     29515     29516     29514     29512     29515     29517
     29515     29517     29519     29520     29515     29517     29519     29521
     29515     29517     29519     29522     29516     29515     29517     29518
     29516     29515     29517     29519     29517     29519     29522     29523
     29517     29519     29522     29524     29517     29519     29522     29525
     29518     29517     29519     29520     29518     29517     29519     29521
     29518     29517     29519     29522     29519     29522     29525     29526
     29519     29522     29525     29527     29519     29522     29525     29528
     29520     29519     29522     29523     29520     29519     29522     29524
     29520     29519     29522     29525     29521     29519     29522     29523
     29521     29519     29522     29524     29521     29519     29522     29525
     29522     29525     29528     29529     29522     29525     29528     29530
     29522     29525     29528     29531     29523     29522     29525     29526
     29523     29522     29525     29527     29523     29522     29525     29528
     29524     29522     29525     29526     29524     29522     29525     29527
     29524     29522     29525     29528     29525     29528     29531     29532
     29525     29528     29531     29533     29525     29528     29531     29534
     29526     29525     29528     29529     29526     29525     29528     29530
     29526     29525     29528     29531     29527     29525     29528     29529
     29527     29525     29528     29530     29527     29525     29528     29531
     29528     29531     29534     29535     29528     29531     29534     29536
     29528     29531     29534     29537     29529     29528     29531     29532
     29529     29528     29531     29533     29529     29528     29531     29534
     29530     29528     29531     29532     29530     29528     29531     29533
     29530     29528     29531     29534     29531     29534     29537     29538
     29531     29534     29537     29539     29531     29534     29537     29540
     29532     29531     29534     29535     29532     29531     29534     29536
     29532     29531     29534     29537     29533     29531     29534     29535
     29533     29531     29534     29536     29533     29531     29534     29537
     29534     29537     29540     29541     29534     29537     29540     29542
     29534     29537     29540     29543     29535     29534     29537     29538
     29535     29534     29537     29539     29535     29534     29537     29540
     29536     29534     29537     29538     29536     29534     29537     29539
     29536     29534     29537     29540     29538     29537     29540     29541
     29538     29537     29540     29542     29538     29537     29540     29543
     29539     29537     29540     29541     29539     29537     29540     29542
     29539     29537     29540     29543     29544     29547     29550     29551
     29544     29547     29550     29552     29544     29547     29550     29553
     29545     29544     29547     29548     29545     29544     29547     29549
     29545     29544     29547     29550     29546     29544     29547     29548
     29546     29544     29547     29549     29546     29544     29547     29550
     29547     29550     29553     29554     29547     29550     29553     29555
     29547     29550     29553     29556     29548     29547     29550     29551
     29548     29547     29550     29552     29548     29547     29550     29553
     29549     29547     29550     29551     29549     29547     29550     29552
     29549     29547     29550     29553     29550     29553     29556     29557
     29550     29553     29556     29558     29550     29553     29556     29559
     29551     29550     29553     29554     29551     29550     29553     29555
     29551     29550     29553     29556     29552     29550     29553     29554
     29552     29550     29553     29555     29552     29550     29553     29556
     29553     29556     29559     29560     29553     29556     29559     29561
     29553     29556     29559     29562     29554     29553     29556     29557
     29554     29553     29556     29558     29554     29553     29556     29559
     29555     29553     29556     29557     29555     29553     29556     29558
     29555     29553     29556     29559     29556     29559     29562     29563
     29556     29559     29562     29564     29556     29559     29562     29565
     29557     29556     29559     29560     29557     29556     29559     29561
     29557     29556     29559     29562     29558     29556     29559     29560
     29558     29556     29559     29561     29558     29556     29559     29562
     29559     29562     29565     29566     29559     29562     29565     29567
     29559     29562     29565     29568     29560     29559     29562     29563
     29560     29559     29562     29564     29560     29559     29562     29565
     29561     29559     29562     29563     29561     29559     29562     29564
     29561     29559     29562     29565     29562     29565     29568     29569
     29562     29565     29568     29570     29562     29565     29568     29571
     29563     29562     29565     29566     29563     29562     29565     29567
     29563     29562     29565     29568     29564     29562     29565     29566
     29564     29562     29565     29567     29564     29562     29565     29568
     29565     29568     29571     29572     29565     29568     29571     29573
     29565     29568     29571     29574     29566     29565     29568     29569
     29566     29565     29568     29570     29566     29565     29568     29571
     29567     29565     29568     29569     29567     29565     29568     29570
     29567     29565     29568     29571     29568     29571     29574     29575
     29568     29571     29574     29576     29568     29571     29574     29577
     29569     29568     29571     29572     29569     29568     29571     29573
     29569     29568     29571     29574     29570     29568     29571     29572
     29570     29568     29571     29573     29570     29568     29571     29574
     29571     29574     29577     29578     29571     29574     29577     29579
     29571     29574     29577     29580     29572     29571     29574     29575
     29572     29571     29574     29576     29572     29571     29574     29577
     29573     29571     29574     29575     29573     29571     29574     29576
     29573     29571     29574     29577     29574     29577     29580     29581
     29574     29577     29580     29582     29574     29577     29580     29583
     29575     29574     29577     29578     29575     29574     29577     29579
     29575     29574     29577     29580     29576     29574     29577     29578
     29576     29574     29577     29579     29576     29574     29577     29580
     29577     29580     29583     29584     29577     29580     29583     29585
     29577     29580     29583     29586     29578     29577     29580     29581
     29578     29577     29580     29582     29578     29577     29580     29583
     29579     29577     29580     29581     29579     29577     29580     29582
     29579     29577     29580     29583     29581     29580     29583     29584
     29581     29580     29583     29585     29581     29580     29583     29586
     29582     29580     29583     29584     29582     29580     29583     29585
     29582     29580     29583     29586     29587     29588     29603     29604
     29587     29588     29603     29605     29587     29588     29603     29609
     29588     29587     29591     29592     29588     29587     29591     29593
     29588     29587     29591     29594     29588     29587     29595     29596
     29588     29587     29595     29597     29588     29587     29595     29598
     29588     29587     29599     29600     29588     29587     29599     29601
     29588     29587     29599     29602     29588     29603     29609     29606
     29589     29588     29587     29591     29589     29588     29587     29595
     29589     29588     29587     29599     29589     29588     29603     29604
     29589     29588     29603     29605     29589     29588     29603     29609
     29590     29588     29587     29591     29590     29588     29587     29595
     29590     29588     29587     29599     29590     29588     29603     29604
     29590     29588     29603     29605     29590     29588     29603     29609
     29591     29587     29588     29603     29591     29587     29595     29596
     29591     29587     29595     29597     29591     29587     29595     29598
     29591     29587     29599     29600     29591     29587     29599     29601
     29591     29587     29599     29602     29592     29591     29587     29595
     29592     29591     29587     29599     29593     29591     29587     29595
     29593     29591     29587     29599     29594     29591     29587     29595
     29594     29591     29587     29599     29595     29587     29588     29603
     29595     29587     29599     29600     29595     29587     29599     29601
     29595     29587     29599     29602     29596     29595     29587     29599
     29597     29595     29587     29599     29598     29595     29587     29599
     29599     29587     29588     29603     29603     29609     29606     29607
     29603     29609     29606     29608     29603     29609     29606     29610
     29604     29603     29609     29606     29605     29603     29609     29606
     29606     29610     29611     29612     29606     29610     29611     29613
     29606     29610     29611     29614     29607     29606     29610     29611
     29608     29606     29610     29611     29609     29606     29610     29611
     29610     29611     29614     29615     29610     29611     29614     29616
     29610     29611     29614     29622     29611     29614     29616     29617
     29611     29614     29622     29623     29611     29614     29622     29624
     29611     29614     29622     29625     29612     29611     29614     29615
     29612     29611     29614     29616     29612     29611     29614     29622
     29613     29611     29614     29615     29613     29611     29614     29616
     29613     29611     29614     29622     29614     29616     29617     29618
     29614     29616     29617     29619     29614     29622     29625     29626
     29615     29614     29616     29617     29615     29614     29622     29623
     29615     29614     29622     29624     29615     29614     29622     29625
     29616     29614     29622     29623     29616     29614     29622     29624
     29616     29614     29622     29625     29616     29617     29619     29620
     29616     29617     29619     29621     29616     29617     29619     29631
     29617     29616     29614     29622     29617     29619     29631     29632
     29617     29619     29631     29633     29617     29619     29631     29634
     29618     29617     29619     29620     29618     29617     29619     29621
     29618     29617     29619     29631     29619     29631     29634     29635
     29619     29631     29634     29636     29619     29631     29634     29637
     29620     29619     29631     29632     29620     29619     29631     29633
     29620     29619     29631     29634     29621     29619     29631     29632
     29621     29619     29631     29633     29621     29619     29631     29634
     29622     29625     29626     29627     29622     29625     29626     29628
     29623     29622     29625     29626     29624     29622     29625     29626
     29625     29626     29628     29629     29625     29626     29628     29630
     29625     29626     29628     29678     29626     29628     29678     29679
     29626     29628     29678     29680     29626     29628     29678     29681
     29627     29626     29628     29629     29627     29626     29628     29630
     29627     29626     29628     29678     29628     29678     29681     29682
     29628     29678     29681     29683     29628     29678     29681     29684
     29629     29628     29678     29679     29629     29628     29678     29680
     29629     29628     29678     29681     29630     29628     29678     29679
     29630     29628     29678     29680     29630     29628     29678     29681
     29631     29634     29637     29638     29631     29634     29637     29639
     29631     29634     29637     29640     29632     29631     29634     29635
     29632     29631     29634     29636     29632     29631     29634     29637
     29633     29631     29634     29635     29633     29631     29634     29636
     29633     29631     29634     29637     29634     29637     29640     29641
     29634     29637     29640     29642     29634     29637     29640     29643
     29635     29634     29637     29638     29635     29634     29637     29639
     29635     29634     29637     29640     29636     29634     29637     29638
     29636     29634     29637     29639     29636     29634     29637     29640
     29637     29640     29643     29644     29637     29640     29643     29645
     29637     29640     29643     29646     29638     29637     29640     29641
     29638     29637     29640     29642     29638     29637     29640     29643
     29639     29637     29640     29641     29639     29637     29640     29642
     29639     29637     29640     29643     29640     29643     29646     29647
     29640     29643     29646     29648     29640     29643     29646     29649
     29641     29640     29643     29644     29641     29640     29643     29645
     29641     29640     29643     29646     29642     29640     29643     29644
     29642     29640     29643     29645     29642     29640     29643     29646
     29643     29646     29649     29650     29643     29646     29649     29651
     29644     29643     29646     29647     29644     29643     29646     29648
     29644     29643     29646     29649     29645     29643     29646     29647
     29645     29643     29646     29648     29645     29643     29646     29649
     29646     29649     29651     29652     29646     29649     29651     29653
     29647     29646     29649     29650     29647     29646     29649     29651
     29648     29646     29649     29650     29648     29646     29649     29651
     29649     29651     29653     29654     29649     29651     29653     29655
     29649     29651     29653     29656     29650     29649     29651     29652
     29650     29649     29651     29653     29651     29653     29656     29657
     29651     29653     29656     29658     29651     29653     29656     29659
     29652     29651     29653     29654     29652     29651     29653     29655
     29652     29651     29653     29656     29653     29656     29659     29660
     29653     29656     29659     29661     29653     29656     29659     29662
     29654     29653     29656     29657     29654     29653     29656     29658
     29654     29653     29656     29659     29655     29653     29656     29657
     29655     29653     29656     29658     29655     29653     29656     29659
     29656     29659     29662     29663     29656     29659     29662     29664
     29656     29659     29662     29665     29657     29656     29659     29660
     29657     29656     29659     29661     29657     29656     29659     29662
     29658     29656     29659     29660     29658     29656     29659     29661
     29658     29656     29659     29662     29659     29662     29665     29666
     29659     29662     29665     29667     29659     29662     29665     29668
     29660     29659     29662     29663     29660     29659     29662     29664
     29660     29659     29662     29665     29661     29659     29662     29663
     29661     29659     29662     29664     29661     29659     29662     29665
     29662     29665     29668     29669     29662     29665     29668     29670
     29662     29665     29668     29671     29663     29662     29665     29666
     29663     29662     29665     29667     29663     29662     29665     29668
     29664     29662     29665     29666     29664     29662     29665     29667
     29664     29662     29665     29668     29665     29668     29671     29672
     29665     29668     29671     29673     29665     29668     29671     29674
     29666     29665     29668     29669     29666     29665     29668     29670
     29666     29665     29668     29671     29667     29665     29668     29669
     29667     29665     29668     29670     29667     29665     29668     29671
     29668     29671     29674     29675     29668     29671     29674     29676
     29668     29671     29674     29677     29669     29668     29671     29672
     29669     29668     29671     29673     29669     29668     29671     29674
     29670     29668     29671     29672     29670     29668     29671     29673
     29670     29668     29671     29674     29672     29671     29674     29675
     29672     29671     29674     29676     29672     29671     29674     29677
     29673     29671     29674     29675     29673     29671     29674     29676
     29673     29671     29674     29677     29678     29681     29684     29685
     29678     29681     29684     29686     29678     29681     29684     29687
     29679     29678     29681     29682     29679     29678     29681     29683
     29679     29678     29681     29684     29680     29678     29681     29682
     29680     29678     29681     29683     29680     29678     29681     29684
     29681     29684     29687     29688     29681     29684     29687     29689
     29681     29684     29687     29690     29682     29681     29684     29685
     29682     29681     29684     29686     29682     29681     29684     29687
     29683     29681     29684     29685     29683     29681     29684     29686
     29683     29681     29684     29687     29684     29687     29690     29691
     29684     29687     29690     29692     29684     29687     29690     29693
     29685     29684     29687     29688     29685     29684     29687     29689
     29685     29684     29687     29690     29686     29684     29687     29688
     29686     29684     29687     29689     29686     29684     29687     29690
     29687     29690     29693     29694     29687     29690     29693     29695
     29687     29690     29693     29696     29688     29687     29690     29691
     29688     29687     29690     29692     29688     29687     29690     29693
     29689     29687     29690     29691     29689     29687     29690     29692
     29689     29687     29690     29693     29690     29693     29696     29697
     29690     29693     29696     29698     29690     29693     29696     29699
     29691     29690     29693     29694     29691     29690     29693     29695
     29691     29690     29693     29696     29692     29690     29693     29694
     29692     29690     29693     29695     29692     29690     29693     29696
     29693     29696     29699     29700     29693     29696     29699     29701
     29693     29696     29699     29702     29694     29693     29696     29697
     29694     29693     29696     29698     29694     29693     29696     29699
     29695     29693     29696     29697     29695     29693     29696     29698
     29695     29693     29696     29699     29696     29699     29702     29703
     29696     29699     29702     29704     29696     29699     29702     29705
     29697     29696     29699     29700     29697     29696     29699     29701
     29697     29696     29699     29702     29698     29696     29699     29700
     29698     29696     29699     29701     29698     29696     29699     29702
     29699     29702     29705     29706     29699     29702     29705     29707
     29699     29702     29705     29708     29700     29699     29702     29703
     29700     29699     29702     29704     29700     29699     29702     29705
     29701     29699     29702     29703     29701     29699     29702     29704
     29701     29699     29702     29705     29702     29705     29708     29709
     29702     29705     29708     29710     29702     29705     29708     29711
     29703     29702     29705     29706     29703     29702     29705     29707
     29703     29702     29705     29708     29704     29702     29705     29706
     29704     29702     29705     29707     29704     29702     29705     29708
     29705     29708     29711     29712     29705     29708     29711     29713
     29705     29708     29711     29714     29706     29705     29708     29709
     29706     29705     29708     29710     29706     29705     29708     29711
     29707     29705     29708     29709     29707     29705     29708     29710
     29707     29705     29708     29711     29708     29711     29714     29715
     29708     29711     29714     29716     29708     29711     29714     29717
     29709     29708     29711     29712     29709     29708     29711     29713
     29709     29708     29711     29714     29710     29708     29711     29712
     29710     29708     29711     29713     29710     29708     29711     29714
     29711     29714     29717     29718     29711     29714     29717     29719
     29711     29714     29717     29720     29712     29711     29714     29715
     29712     29711     29714     29716     29712     29711     29714     29717
     29713     29711     29714     29715     29713     29711     29714     29716
     29713     29711     29714     29717     29715     29714     29717     29718
     29715     29714     29717     29719     29715     29714     29717     29720
     29716     29714     29717     29718     29716     29714     29717     29719
     29716     29714     29717     29720     29721     29722     29737     29738
     29721     29722     29737     29739     29721     29722     29737     29743
     29722     29721     29725     29726     29722     29721     29725     29727
     29722     29721     29725     29728     29722     29721     29729     29730
     29722     29721     29729     29731     29722     29721     29729     29732
     29722     29721     29733     29734     29722     29721     29733     29735
     29722     29721     29733     29736     29722     29737     29743     29740
     29723     29722     29721     29725     29723     29722     29721     29729
     29723     29722     29721     29733     29723     29722     29737     29738
     29723     29722     29737     29739     29723     29722     29737     29743
     29724     29722     29721     29725     29724     29722     29721     29729
     29724     29722     29721     29733     29724     29722     29737     29738
     29724     29722     29737     29739     29724     29722     29737     29743
     29725     29721     29722     29737     29725     29721     29729     29730
     29725     29721     29729     29731     29725     29721     29729     29732
     29725     29721     29733     29734     29725     29721     29733     29735
     29725     29721     29733     29736     29726     29725     29721     29729
     29726     29725     29721     29733     29727     29725     29721     29729
     29727     29725     29721     29733     29728     29725     29721     29729
     29728     29725     29721     29733     29729     29721     29722     29737
     29729     29721     29733     29734     29729     29721     29733     29735
     29729     29721     29733     29736     29730     29729     29721     29733
     29731     29729     29721     29733     29732     29729     29721     29733
     29733     29721     29722     29737     29737     29743     29740     29741
     29737     29743     29740     29742     29737     29743     29740     29744
     29738     29737     29743     29740     29739     29737     29743     29740
     29740     29744     29745     29746     29740     29744     29745     29747
     29740     29744     29745     29748     29741     29740     29744     29745
     29742     29740     29744     29745     29743     29740     29744     29745
     29744     29745     29748     29749     29744     29745     29748     29750
     29744     29745     29748     29756     29745     29748     29750     29751
     29745     29748     29756     29757     29745     29748     29756     29758
     29745     29748     29756     29759     29746     29745     29748     29749
     29746     29745     29748     29750     29746     29745     29748     29756
     29747     29745     29748     29749     29747     29745     29748     29750
     29747     29745     29748     29756     29748     29750     29751     29752
     29748     29750     29751     29753     29748     29756     29759     29760
     29749     29748     29750     29751     29749     29748     29756     29757
     29749     29748     29756     29758     29749     29748     29756     29759
     29750     29748     29756     29757     29750     29748     29756     29758
     29750     29748     29756     29759     29750     29751     29753     29754
     29750     29751     29753     29755     29750     29751     29753     29765
     29751     29750     29748     29756     29751     29753     29765     29766
     29751     29753     29765     29767     29751     29753     29765     29768
     29752     29751     29753     29754     29752     29751     29753     29755
     29752     29751     29753     29765     29753     29765     29768     29769
     29753     29765     29768     29770     29753     29765     29768     29771
     29754     29753     29765     29766     29754     29753     29765     29767
     29754     29753     29765     29768     29755     29753     29765     29766
     29755     29753     29765     29767     29755     29753     29765     29768
     29756     29759     29760     29761     29756     29759     29760     29762
     29757     29756     29759     29760     29758     29756     29759     29760
     29759     29760     29762     29763     29759     29760     29762     29764
     29759     29760     29762     29812     29760     29762     29812     29813
     29760     29762     29812     29814     29760     29762     29812     29815
     29761     29760     29762     29763     29761     29760     29762     29764
     29761     29760     29762     29812     29762     29812     29815     29816
     29762     29812     29815     29817     29762     29812     29815     29818
     29763     29762     29812     29813     29763     29762     29812     29814
     29763     29762     29812     29815     29764     29762     29812     29813
     29764     29762     29812     29814     29764     29762     29812     29815
     29765     29768     29771     29772     29765     29768     29771     29773
     29765     29768     29771     29774     29766     29765     29768     29769
     29766     29765     29768     29770     29766     29765     29768     29771
     29767     29765     29768     29769     29767     29765     29768     29770
     29767     29765     29768     29771     29768     29771     29774     29775
     29768     29771     29774     29776     29768     29771     29774     29777
     29769     29768     29771     29772     29769     29768     29771     29773
     29769     29768     29771     29774     29770     29768     29771     29772
     29770     29768     29771     29773     29770     29768     29771     29774
     29771     29774     29777     29778     29771     29774     29777     29779
     29771     29774     29777     29780     29772     29771     29774     29775
     29772     29771     29774     29776     29772     29771     29774     29777
     29773     29771     29774     29775     29773     29771     29774     29776
     29773     29771     29774     29777     29774     29777     29780     29781
     29774     29777     29780     29782     29774     29777     29780     29783
     29775     29774     29777     29778     29775     29774     29777     29779
     29775     29774     29777     29780     29776     29774     29777     29778
     29776     29774     29777     29779     29776     29774     29777     29780
     29777     29780     29783     29784     29777     29780     29783     29785
     29778     29777     29780     29781     29778     29777     29780     29782
     29778     29777     29780     29783     29779     29777     29780     29781
     29779     29777     29780     29782     29779     29777     29780     29783
     29780     29783     29785     29786     29780     29783     29785     29787
     29781     29780     29783     29784     29781     29780     29783     29785
     29782     29780     29783     29784     29782     29780     29783     29785
     29783     29785     29787     29788     29783     29785     29787     29789
     29783     29785     29787     29790     29784     29783     29785     29786
     29784     29783     29785     29787     29785     29787     29790     29791
     29785     29787     29790     29792     29785     29787     29790     29793
     29786     29785     29787     29788     29786     29785     29787     29789
     29786     29785     29787     29790     29787     29790     29793     29794
     29787     29790     29793     29795     29787     29790     29793     29796
     29788     29787     29790     29791     29788     29787     29790     29792
     29788     29787     29790     29793     29789     29787     29790     29791
     29789     29787     29790     29792     29789     29787     29790     29793
     29790     29793     29796     29797     29790     29793     29796     29798
     29790     29793     29796     29799     29791     29790     29793     29794
     29791     29790     29793     29795     29791     29790     29793     29796
     29792     29790     29793     29794     29792     29790     29793     29795
     29792     29790     29793     29796     29793     29796     29799     29800
     29793     29796     29799     29801     29793     29796     29799     29802
     29794     29793     29796     29797     29794     29793     29796     29798
     29794     29793     29796     29799     29795     29793     29796     29797
     29795     29793     29796     29798     29795     29793     29796     29799
     29796     29799     29802     29803     29796     29799     29802     29804
     29796     29799     29802     29805     29797     29796     29799     29800
     29797     29796     29799     29801     29797     29796     29799     29802
     29798     29796     29799     29800     29798     29796     29799     29801
     29798     29796     29799     29802     29799     29802     29805     29806
     29799     29802     29805     29807     29799     29802     29805     29808
     29800     29799     29802     29803     29800     29799     29802     29804
     29800     29799     29802     29805     29801     29799     29802     29803
     29801     29799     29802     29804     29801     29799     29802     29805
     29802     29805     29808     29809     29802     29805     29808     29810
     29802     29805     29808     29811     29803     29802     29805     29806
     29803     29802     29805     29807     29803     29802     29805     29808
     29804     29802     29805     29806     29804     29802     29805     29807
     29804     29802     29805     29808     29806     29805     29808     29809
     29806     29805     29808     29810     29806     29805     29808     29811
     29807     29805     29808     29809     29807     29805     29808     29810
     29807     29805     29808     29811     29812     29815     29818     29819
     29812     29815     29818     29820     29812     29815     29818     29821
     29813     29812     29815     29816     29813     29812     29815     29817
     29813     29812     29815     29818     29814     29812     29815     29816
     29814     29812     29815     29817     29814     29812     29815     29818
     29815     29818     29821     29822     29815     29818     29821     29823
     29815     29818     29821     29824     29816     29815     29818     29819
     29816     29815     29818     29820     29816     29815     29818     29821
     29817     29815     29818     29819     29817     29815     29818     29820
     29817     29815     29818     29821     29818     29821     29824     29825
     29818     29821     29824     29826     29818     29821     29824     29827
     29819     29818     29821     29822     29819     29818     29821     29823
     29819     29818     29821     29824     29820     29818     29821     29822
     29820     29818     29821     29823     29820     29818     29821     29824
     29821     29824     29827     29828     29821     29824     29827     29829
     29821     29824     29827     29830     29822     29821     29824     29825
     29822     29821     29824     29826     29822     29821     29824     29827
     29823     29821     29824     29825     29823     29821     29824     29826
     29823     29821     29824     29827     29824     29827     29830     29831
     29824     29827     29830     29832     29824     29827     29830     29833
     29825     29824     29827     29828     29825     29824     29827     29829
     29825     29824     29827     29830     29826     29824     29827     29828
     29826     29824     29827     29829     29826     29824     29827     29830
     29827     29830     29833     29834     29827     29830     29833     29835
     29827     29830     29833     29836     29828     29827     29830     29831
     29828     29827     29830     29832     29828     29827     29830     29833
     29829     29827     29830     29831     29829     29827     29830     29832
     29829     29827     29830     29833     29830     29833     29836     29837
     29830     29833     29836     29838     29830     29833     29836     29839
     29831     29830     29833     29834     29831     29830     29833     29835
     29831     29830     29833     29836     29832     29830     29833     29834
     29832     29830     29833     29835     29832     29830     29833     29836
     29833     29836     29839     29840     29833     29836     29839     29841
     29833     29836     29839     29842     29834     29833     29836     29837
     29834     29833     29836     29838     29834     29833     29836     29839
     29835     29833     29836     29837     29835     29833     29836     29838
     29835     29833     29836     29839     29836     29839     29842     29843
     29836     29839     29842     29844     29836     29839     29842     29845
     29837     29836     29839     29840     29837     29836     29839     29841
     29837     29836     29839     29842     29838     29836     29839     29840
     29838     29836     29839     29841     29838     29836     29839     29842
     29839     29842     29845     29846     29839     29842     29845     29847
     29839     29842     29845     29848     29840     29839     29842     29843
     29840     29839     29842     29844     29840     29839     29842     29845
     29841     29839     29842     29843     29841     29839     29842     29844
     29841     29839     29842     29845     29842     29845     29848     29849
     29842     29845     29848     29850     29842     29845     29848     29851
     29843     29842     29845     29846     29843     29842     29845     29847
     29843     29842     29845     29848     29844     29842     29845     29846
     29844     29842     29845     29847     29844     29842     29845     29848
     29845     29848     29851     29852     29845     29848     29851     29853
     29845     29848     29851     29854     29846     29845     29848     29849
     29846     29845     29848     29850     29846     29845     29848     29851
     29847     29845     29848     29849     29847     29845     29848     29850
     29847     29845     29848     29851     29849     29848     29851     29852
     29849     29848     29851     29853     29849     29848     29851     29854
     29850     29848     29851     29852     29850     29848     29851     29853
     29850     29848     29851     29854     29855     29856     29871     29872
     29855     29856     29871     29873     29855     29856     29871     29877
     29856     29855     29859     29860     29856     29855     29859     29861
     29856     29855     29859     29862     29856     29855     29863     29864
     29856     29855     29863     29865     29856     29855     29863     29866
     29856     29855     29867     29868     29856     29855     29867     29869
     29856     29855     29867     29870     29856     29871     29877     29874
     29857     29856     29855     29859     29857     29856     29855     29863
     29857     29856     29855     29867     29857     29856     29871     29872
     29857     29856     29871     29873     29857     29856     29871     29877
     29858     29856     29855     29859     29858     29856     29855     29863
     29858     29856     29855     29867     29858     29856     29871     29872
     29858     29856     29871     29873     29858     29856     29871     29877
     29859     29855     29856     29871     29859     29855     29863     29864
     29859     29855     29863     29865     29859     29855     29863     29866
     29859     29855     29867     29868     29859     29855     29867     29869
     29859     29855     29867     29870     29860     29859     29855     29863
     29860     29859     29855     29867     29861     29859     29855     29863
     29861     29859     29855     29867     29862     29859     29855     29863
     29862     29859     29855     29867     29863     29855     29856     29871
     29863     29855     29867     29868     29863     29855     29867     29869
     29863     29855     29867     29870     29864     29863     29855     29867
     29865     29863     29855     29867     29866     29863     29855     29867
     29867     29855     29856     29871     29871     29877     29874     29875
     29871     29877     29874     29876     29871     29877     29874     29878
     29872     29871     29877     29874     29873     29871     29877     29874
     29874     29878     29879     29880     29874     29878     29879     29881
     29874     29878     29879     29882     29875     29874     29878     29879
     29876     29874     29878     29879     29877     29874     29878     29879
     29878     29879     29882     29883     29878     29879     29882     29884
     29878     29879     29882     29890     29879     29882     29884     29885
     29879     29882     29890     29891     29879     29882     29890     29892
     29879     29882     29890     29893     29880     29879     29882     29883
     29880     29879     29882     29884     29880     29879     29882     29890
     29881     29879     29882     29883     29881     29879     29882     29884
     29881     29879     29882     29890     29882     29884     29885     29886
     29882     29884     29885     29887     29882     29890     29893     29894
     29883     29882     29884     29885     29883     29882     29890     29891
     29883     29882     29890     29892     29883     29882     29890     29893
     29884     29882     29890     29891     29884     29882     29890     29892
     29884     29882     29890     29893     29884     29885     29887     29888
     29884     29885     29887     29889     29884     29885     29887     29899
     29885     29884     29882     29890     29885     29887     29899     29900
     29885     29887     29899     29901     29885     29887     29899     29902
     29886     29885     29887     29888     29886     29885     29887     29889
     29886     29885     29887     29899     29887     29899     29902     29903
     29887     29899     29902     29904     29887     29899     29902     29905
     29888     29887     29899     29900     29888     29887     29899     29901
     29888     29887     29899     29902     29889     29887     29899     29900
     29889     29887     29899     29901     29889     29887     29899     29902
     29890     29893     29894     29895     29890     29893     29894     29896
     29891     29890     29893     29894     29892     29890     29893     29894
     29893     29894     29896     29897     29893     29894     29896     29898
     29893     29894     29896     29946     29894     29896     29946     29947
     29894     29896     29946     29948     29894     29896     29946     29949
     29895     29894     29896     29897     29895     29894     29896     29898
     29895     29894     29896     29946     29896     29946     29949     29950
     29896     29946     29949     29951     29896     29946     29949     29952
     29897     29896     29946     29947     29897     29896     29946     29948
     29897     29896     29946     29949     29898     29896     29946     29947
     29898     29896     29946     29948     29898     29896     29946     29949
     29899     29902     29905     29906     29899     29902     29905     29907
     29899     29902     29905     29908     29900     29899     29902     29903
     29900     29899     29902     29904     29900     29899     29902     29905
     29901     29899     29902     29903     29901     29899     29902     29904
     29901     29899     29902     29905     29902     29905     29908     29909
     29902     29905     29908     29910     29902     29905     29908     29911
     29903     29902     29905     29906     29903     29902     29905     29907
     29903     29902     29905     29908     29904     29902     29905     29906
     29904     29902     29905     29907     29904     29902     29905     29908
     29905     29908     29911     29912     29905     29908     29911     29913
     29905     29908     29911     29914     29906     29905     29908     29909
     29906     29905     29908     29910     29906     29905     29908     29911
     29907     29905     29908     29909     29907     29905     29908     29910
     29907     29905     29908     29911     29908     29911     29914     29915
     29908     29911     29914     29916     29908     29911     29914     29917
     29909     29908     29911     29912     29909     29908     29911     29913
     29909     29908     29911     29914     29910     29908     29911     29912
     29910     29908     29911     29913     29910     29908     29911     29914
     29911     29914     29917     29918     29911     29914     29917     29919
     29912     29911     29914     29915     29912     29911     29914     29916
     29912     29911     29914     29917     29913     29911     29914     29915
     29913     29911     29914     29916     29913     29911     29914     29917
     29914     29917     29919     29920     29914     29917     29919     29921
     29915     29914     29917     29918     29915     29914     29917     29919
     29916     29914     29917     29918     29916     29914     29917     29919
     29917     29919     29921     29922     29917     29919     29921     29923
     29917     29919     29921     29924     29918     29917     29919     29920
     29918     29917     29919     29921     29919     29921     29924     29925
     29919     29921     29924     29926     29919     29921     29924     29927
     29920     29919     29921     29922     29920     29919     29921     29923
     29920     29919     29921     29924     29921     29924     29927     29928
     29921     29924     29927     29929     29921     29924     29927     29930
     29922     29921     29924     29925     29922     29921     29924     29926
     29922     29921     29924     29927     29923     29921     29924     29925
     29923     29921     29924     29926     29923     29921     29924     29927
     29924     29927     29930     29931     29924     29927     29930     29932
     29924     29927     29930     29933     29925     29924     29927     29928
     29925     29924     29927     29929     29925     29924     29927     29930
     29926     29924     29927     29928     29926     29924     29927     29929
     29926     29924     29927     29930     29927     29930     29933     29934
     29927     29930     29933     29935     29927     29930     29933     29936
     29928     29927     29930     29931     29928     29927     29930     29932
     29928     29927     29930     29933     29929     29927     29930     29931
     29929     29927     29930     29932     29929     29927     29930     29933
     29930     29933     29936     29937     29930     29933     29936     29938
     29930     29933     29936     29939     29931     29930     29933     29934
     29931     29930     29933     29935     29931     29930     29933     29936
     29932     29930     29933     29934     29932     29930     29933     29935
     29932     29930     29933     29936     29933     29936     29939     29940
     29933     29936     29939     29941     29933     29936     29939     29942
     29934     29933     29936     29937     29934     29933     29936     29938
     29934     29933     29936     29939     29935     29933     29936     29937
     29935     29933     29936     29938     29935     29933     29936     29939
     29936     29939     29942     29943     29936     29939     29942     29944
     29936     29939     29942     29945     29937     29936     29939     29940
     29937     29936     29939     29941     29937     29936     29939     29942
     29938     29936     29939     29940     29938     29936     29939     29941
     29938     29936     29939     29942     29940     29939     29942     29943
     29940     29939     29942     29944     29940     29939     29942     29945
     29941     29939     29942     29943     29941     29939     29942     29944
     29941     29939     29942     29945     29946     29949     29952     29953
     29946     29949     29952     29954     29946     29949     29952     29955
     29947     29946     29949     29950     29947     29946     29949     29951
     29947     29946     29949     29952     29948     29946     29949     29950
     29948     29946     29949     29951     29948     29946     29949     29952
     29949     29952     29955     29956     29949     29952     29955     29957
     29949     29952     29955     29958     29950     29949     29952     29953
     29950     29949     29952     29954     29950     29949     29952     29955
     29951     29949     29952     29953     29951     29949     29952     29954
     29951     29949     29952     29955     29952     29955     29958     29959
     29952     29955     29958     29960     29952     29955     29958     29961
     29953     29952     29955     29956     29953     29952     29955     29957
     29953     29952     29955     29958     29954     29952     29955     29956
     29954     29952     29955     29957     29954     29952     29955     29958
     29955     29958     29961     29962     29955     29958     29961     29963
     29955     29958     29961     29964     29956     29955     29958     29959
     29956     29955     29958     29960     29956     29955     29958     29961
     29957     29955     29958     29959     29957     29955     29958     29960
     29957     29955     29958     29961     29958     29961     29964     29965
     29958     29961     29964     29966     29958     29961     29964     29967
     29959     29958     29961     29962     29959     29958     29961     29963
     29959     29958     29961     29964     29960     29958     29961     29962
     29960     29958     29961     29963     29960     29958     29961     29964
     29961     29964     29967     29968     29961     29964     29967     29969
     29961     29964     29967     29970     29962     29961     29964     29965
     29962     29961     29964     29966     29962     29961     29964     29967
     29963     29961     29964     29965     29963     29961     29964     29966
     29963     29961     29964     29967     29964     29967     29970     29971
     29964     29967     29970     29972     29964     29967     29970     29973
     29965     29964     29967     29968     29965     29964     29967     29969
     29965     29964     29967     29970     29966     29964     29967     29968
     29966     29964     29967     29969     29966     29964     29967     29970
     29967     29970     29973     29974     29967     29970     29973     29975
     29967     29970     29973     29976     29968     29967     29970     29971
     29968     29967     29970     29972     29968     29967     29970     29973
     29969     29967     29970     29971     29969     29967     29970     29972
     29969     29967     29970     29973     29970     29973     29976     29977
     29970     29973     29976     29978     29970     29973     29976     29979
     29971     29970     29973     29974     29971     29970     29973     29975
     29971     29970     29973     29976     29972     29970     29973     29974
     29972     29970     29973     29975     29972     29970     29973     29976
     29973     29976     29979     29980     29973     29976     29979     29981
     29973     29976     29979     29982     29974     29973     29976     29977
     29974     29973     29976     29978     29974     29973     29976     29979
     29975     29973     29976     29977     29975     29973     29976     29978
     29975     29973     29976     29979     29976     29979     29982     29983
     29976     29979     29982     29984     29976     29979     29982     29985
     29977     29976     29979     29980     29977     29976     29979     29981
     29977     29976     29979     29982     29978     29976     29979     29980
     29978     29976     29979     29981     29978     29976     29979     29982
     29979     29982     29985     29986     29979     29982     29985     29987
     29979     29982     29985     29988     29980     29979     29982     29983
     29980     29979     29982     29984     29980     29979     29982     29985
     29981     29979     29982     29983     29981     29979     29982     29984
     29981     29979     29982     29985     29983     29982     29985     29986
     29983     29982     29985     29987     29983     29982     29985     29988
     29984     29982     29985     29986     29984     29982     29985     29987
     29984     29982     29985     29988     29989     29990     30005     30006
     29989     29990     30005     30007     29989     29990     30005     30011
     29990     29989     29993     29994     29990     29989     29993     29995
     29990     29989     29993     29996     29990     29989     29997     29998
     29990     29989     29997     29999     29990     29989     29997     30000
     29990     29989     30001     30002     29990     29989     30001     30003
     29990     29989     30001     30004     29990     30005     30011     30008
     29991     29990     29989     29993     29991     29990     29989     29997
     29991     29990     29989     30001     29991     29990     30005     30006
     29991     29990     30005     30007     29991     29990     30005     30011
     29992     29990     29989     29993     29992     29990     29989     29997
     29992     29990     29989     30001     29992     29990     30005     30006
     29992     29990     30005     30007     29992     29990     30005     30011
     29993     29989     29990     30005     29993     29989     29997     29998
     29993     29989     29997     29999     29993     29989     29997     30000
     29993     29989     30001     30002     29993     29989     30001     30003
     29993     29989     30001     30004     29994     29993     29989     29997
     29994     29993     29989     30001     29995     29993     29989     29997
     29995     29993     29989     30001     29996     29993     29989     29997
     29996     29993     29989     30001     29997     29989     29990     30005
     29997     29989     30001     30002     29997     29989     30001     30003
     29997     29989     30001     30004     29998     29997     29989     30001
     29999     29997     29989     30001     30000     29997     29989     30001
     30001     29989     29990     30005     30005     30011     30008     30009
     30005     30011     30008     30010     30005     30011     30008     30012
     30006     30005     30011     30008     30007     30005     30011     30008
     30008     30012     30013     30014     30008     30012     30013     30015
     30008     30012     30013     30016     30009     30008     30012     30013
     30010     30008     30012     30013     30011     30008     30012     30013
     30012     30013     30016     30017     30012     30013     30016     30018
     30012     30013     30016     30024     30013     30016     30018     30019
     30013     30016     30024     30025     30013     30016     30024     30026
     30013     30016     30024     30027     30014     30013     30016     30017
     30014     30013     30016     30018     30014     30013     30016     30024
     30015     30013     30016     30017     30015     30013     30016     30018
     30015     30013     30016     30024     30016     30018     30019     30020
     30016     30018     30019     30021     30016     30024     30027     30028
     30017     30016     30018     30019     30017     30016     30024     30025
     30017     30016     30024     30026     30017     30016     30024     30027
     30018     30016     30024     30025     30018     30016     30024     30026
     30018     30016     30024     30027     30018     30019     30021     30022
     30018     30019     30021     30023     30018     30019     30021     30033
     30019     30018     30016     30024     30019     30021     30033     30034
     30019     30021     30033     30035     30019     30021     30033     30036
     30020     30019     30021     30022     30020     30019     30021     30023
     30020     30019     30021     30033     30021     30033     30036     30037
     30021     30033     30036     30038     30021     30033     30036     30039
     30022     30021     30033     30034     30022     30021     30033     30035
     30022     30021     30033     30036     30023     30021     30033     30034
     30023     30021     30033     30035     30023     30021     30033     30036
     30024     30027     30028     30029     30024     30027     30028     30030
     30025     30024     30027     30028     30026     30024     30027     30028
     30027     30028     30030     30031     30027     30028     30030     30032
     30027     30028     30030     30080     30028     30030     30080     30081
     30028     30030     30080     30082     30028     30030     30080     30083
     30029     30028     30030     30031     30029     30028     30030     30032
     30029     30028     30030     30080     30030     30080     30083     30084
     30030     30080     30083     30085     30030     30080     30083     30086
     30031     30030     30080     30081     30031     30030     30080     30082
     30031     30030     30080     30083     30032     30030     30080     30081
     30032     30030     30080     30082     30032     30030     30080     30083
     30033     30036     30039     30040     30033     30036     30039     30041
     30033     30036     30039     30042     30034     30033     30036     30037
     30034     30033     30036     30038     30034     30033     30036     30039
     30035     30033     30036     30037     30035     30033     30036     30038
     30035     30033     30036     30039     30036     30039     30042     30043
     30036     30039     30042     30044     30036     30039     30042     30045
     30037     30036     30039     30040     30037     30036     30039     30041
     30037     30036     30039     30042     30038     30036     30039     30040
     30038     30036     30039     30041     30038     30036     30039     30042
     30039     30042     30045     30046     30039     30042     30045     30047
     30039     30042     30045     30048     30040     30039     30042     30043
     30040     30039     30042     30044     30040     30039     30042     30045
     30041     30039     30042     30043     30041     30039     30042     30044
     30041     30039     30042     30045     30042     30045     30048     30049
     30042     30045     30048     30050     30042     30045     30048     30051
     30043     30042     30045     30046     30043     30042     30045     30047
     30043     30042     30045     30048     30044     30042     30045     30046
     30044     30042     30045     30047     30044     30042     30045     30048
     30045     30048     30051     30052     30045     30048     30051     30053
     30046     30045     30048     30049     30046     30045     30048     30050
     30046     30045     30048     30051     30047     30045     30048     30049
     30047     30045     30048     30050     30047     30045     30048     30051
     30048     30051     30053     30054     30048     30051     30053     30055
     30049     30048     30051     30052     30049     30048     30051     30053
     30050     30048     30051     30052     30050     30048     30051     30053
     30051     30053     30055     30056     30051     30053     30055     30057
     30051     30053     30055     30058     30052     30051     30053     30054
     30052     30051     30053     30055     30053     30055     30058     30059
     30053     30055     30058     30060     30053     30055     30058     30061
     30054     30053     30055     30056     30054     30053     30055     30057
     30054     30053     30055     30058     30055     30058     30061     30062
     30055     30058     30061     30063     30055     30058     30061     30064
     30056     30055     30058     30059     30056     30055     30058     30060
     30056     30055     30058     30061     30057     30055     30058     30059
     30057     30055     30058     30060     30057     30055     30058     30061
     30058     30061     30064     30065     30058     30061     30064     30066
     30058     30061     30064     30067     30059     30058     30061     30062
     30059     30058     30061     30063     30059     30058     30061     30064
     30060     30058     30061     30062     30060     30058     30061     30063
     30060     30058     30061     30064     30061     30064     30067     30068
     30061     30064     30067     30069     30061     30064     30067     30070
     30062     30061     30064     30065     30062     30061     30064     30066
     30062     30061     30064     30067     30063     30061     30064     30065
     30063     30061     30064     30066     30063     30061     30064     30067
     30064     30067     30070     30071     30064     30067     30070     30072
     30064     30067     30070     30073     30065     30064     30067     30068
     30065     30064     30067     30069     30065     30064     30067     30070
     30066     30064     30067     30068     30066     30064     30067     30069
     30066     30064     30067     30070     30067     30070     30073     30074
     30067     30070     30073     30075     30067     30070     30073     30076
     30068     30067     30070     30071     30068     30067     30070     30072
     30068     30067     30070     30073     30069     30067     30070     30071
     30069     30067     30070     30072     30069     30067     30070     30073
     30070     30073     30076     30077     30070     30073     30076     30078
     30070     30073     30076     30079     30071     30070     30073     30074
     30071     30070     30073     30075     30071     30070     30073     30076
     30072     30070     30073     30074     30072     30070     30073     30075
     30072     30070     30073     30076     30074     30073     30076     30077
     30074     30073     30076     30078     30074     30073     30076     30079
     30075     30073     30076     30077     30075     30073     30076     30078
     30075     30073     30076     30079     30080     30083     30086     30087
     30080     30083     30086     30088     30080     30083     30086     30089
     30081     30080     30083     30084     30081     30080     30083     30085
     30081     30080     30083     30086     30082     30080     30083     30084
     30082     30080     30083     30085     30082     30080     30083     30086
     30083     30086     30089     30090     30083     30086     30089     30091
     30083     30086     30089     30092     30084     30083     30086     30087
     30084     30083     30086     30088     30084     30083     30086     30089
     30085     30083     30086     30087     30085     30083     30086     30088
     30085     30083     30086     30089     30086     30089     30092     30093
     30086     30089     30092     30094     30086     30089     30092     30095
     30087     30086     30089     30090     30087     30086     30089     30091
     30087     30086     30089     30092     30088     30086     30089     30090
     30088     30086     30089     30091     30088     30086     30089     30092
     30089     30092     30095     30096     30089     30092     30095     30097
     30089     30092     30095     30098     30090     30089     30092     30093
     30090     30089     30092     30094     30090     30089     30092     30095
     30091     30089     30092     30093     30091     30089     30092     30094
     30091     30089     30092     30095     30092     30095     30098     30099
     30092     30095     30098     30100     30092     30095     30098     30101
     30093     30092     30095     30096     30093     30092     30095     30097
     30093     30092     30095     30098     30094     30092     30095     30096
     30094     30092     30095     30097     30094     30092     30095     30098
     30095     30098     30101     30102     30095     30098     30101     30103
     30095     30098     30101     30104     30096     30095     30098     30099
     30096     30095     30098     30100     30096     30095     30098     30101
     30097     30095     30098     30099     30097     30095     30098     30100
     30097     30095     30098     30101     30098     30101     30104     30105
     30098     30101     30104     30106     30098     30101     30104     30107
     30099     30098     30101     30102     30099     30098     30101     30103
     30099     30098     30101     30104     30100     30098     30101     30102
     30100     30098     30101     30103     30100     30098     30101     30104
     30101     30104     30107     30108     30101     30104     30107     30109
     30101     30104     30107     30110     30102     30101     30104     30105
     30102     30101     30104     30106     30102     30101     30104     30107
     30103     30101     30104     30105     30103     30101     30104     30106
     30103     30101     30104     30107     30104     30107     30110     30111
     30104     30107     30110     30112     30104     30107     30110     30113
     30105     30104     30107     30108     30105     30104     30107     30109
     30105     30104     30107     30110     30106     30104     30107     30108
     30106     30104     30107     30109     30106     30104     30107     30110
     30107     30110     30113     30114     30107     30110     30113     30115
     30107     30110     30113     30116     30108     30107     30110     30111
     30108     30107     30110     30112     30108     30107     30110     30113
     30109     30107     30110     30111     30109     30107     30110     30112
     30109     30107     30110     30113     30110     30113     30116     30117
     30110     30113     30116     30118     30110     30113     30116     30119
     30111     30110     30113     30114     30111     30110     30113     30115
     30111     30110     30113     30116     30112     30110     30113     30114
     30112     30110     30113     30115     30112     30110     30113     30116
     30113     30116     30119     30120     30113     30116     30119     30121
     30113     30116     30119     30122     30114     30113     30116     30117
     30114     30113     30116     30118     30114     30113     30116     30119
     30115     30113     30116     30117     30115     30113     30116     30118
     30115     30113     30116     30119     30117     30116     30119     30120
     30117     30116     30119     30121     30117     30116     30119     30122
     30118     30116     30119     30120     30118     30116     30119     30121
     30118     30116     30119     30122     30123     30124     30139     30140
     30123     30124     30139     30141     30123     30124     30139     30145
     30124     30123     30127     30128     30124     30123     30127     30129
     30124     30123     30127     30130     30124     30123     30131     30132
     30124     30123     30131     30133     30124     30123     30131     30134
     30124     30123     30135     30136     30124     30123     30135     30137
     30124     30123     30135     30138     30124     30139     30145     30142
     30125     30124     30123     30127     30125     30124     30123     30131
     30125     30124     30123     30135     30125     30124     30139     30140
     30125     30124     30139     30141     30125     30124     30139     30145
     30126     30124     30123     30127     30126     30124     30123     30131
     30126     30124     30123     30135     30126     30124     30139     30140
     30126     30124     30139     30141     30126     30124     30139     30145
     30127     30123     30124     30139     30127     30123     30131     30132
     30127     30123     30131     30133     30127     30123     30131     30134
     30127     30123     30135     30136     30127     30123     30135     30137
     30127     30123     30135     30138     30128     30127     30123     30131
     30128     30127     30123     30135     30129     30127     30123     30131
     30129     30127     30123     30135     30130     30127     30123     30131
     30130     30127     30123     30135     30131     30123     30124     30139
     30131     30123     30135     30136     30131     30123     30135     30137
     30131     30123     30135     30138     30132     30131     30123     30135
     30133     30131     30123     30135     30134     30131     30123     30135
     30135     30123     30124     30139     30139     30145     30142     30143
     30139     30145     30142     30144     30139     30145     30142     30146
     30140     30139     30145     30142     30141     30139     30145     30142
     30142     30146     30147     30148     30142     30146     30147     30149
     30142     30146     30147     30150     30143     30142     30146     30147
     30144     30142     30146     30147     30145     30142     30146     30147
     30146     30147     30150     30151     30146     30147     30150     30152
     30146     30147     30150     30158     30147     30150     30152     30153
     30147     30150     30158     30159     30147     30150     30158     30160
     30147     30150     30158     30161     30148     30147     30150     30151
     30148     30147     30150     30152     30148     30147     30150     30158
     30149     30147     30150     30151     30149     30147     30150     30152
     30149     30147     30150     30158     30150     30152     30153     30154
     30150     30152     30153     30155     30150     30158     30161     30162
     30151     30150     30152     30153     30151     30150     30158     30159
     30151     30150     30158     30160     30151     30150     30158     30161
     30152     30150     30158     30159     30152     30150     30158     30160
     30152     30150     30158     30161     30152     30153     30155     30156
     30152     30153     30155     30157     30152     30153     30155     30167
     30153     30152     30150     30158     30153     30155     30167     30168
     30153     30155     30167     30169     30153     30155     30167     30170
     30154     30153     30155     30156     30154     30153     30155     30157
     30154     30153     30155     30167     30155     30167     30170     30171
     30155     30167     30170     30172     30155     30167     30170     30173
     30156     30155     30167     30168     30156     30155     30167     30169
     30156     30155     30167     30170     30157     30155     30167     30168
     30157     30155     30167     30169     30157     30155     30167     30170
     30158     30161     30162     30163     30158     30161     30162     30164
     30159     30158     30161     30162     30160     30158     30161     30162
     30161     30162     30164     30165     30161     30162     30164     30166
     30161     30162     30164     30214     30162     30164     30214     30215
     30162     30164     30214     30216     30162     30164     30214     30217
     30163     30162     30164     30165     30163     30162     30164     30166
     30163     30162     30164     30214     30164     30214     30217     30218
     30164     30214     30217     30219     30164     30214     30217     30220
     30165     30164     30214     30215     30165     30164     30214     30216
     30165     30164     30214     30217     30166     30164     30214     30215
     30166     30164     30214     30216     30166     30164     30214     30217
     30167     30170     30173     30174     30167     30170     30173     30175
     30167     30170     30173     30176     30168     30167     30170     30171
     30168     30167     30170     30172     30168     30167     30170     30173
     30169     30167     30170     30171     30169     30167     30170     30172
     30169     30167     30170     30173     30170     30173     30176     30177
     30170     30173     30176     30178     30170     30173     30176     30179
     30171     30170     30173     30174     30171     30170     30173     30175
     30171     30170     30173     30176     30172     30170     30173     30174
     30172     30170     30173     30175     30172     30170     30173     30176
     30173     30176     30179     30180     30173     30176     30179     30181
     30173     30176     30179     30182     30174     30173     30176     30177
     30174     30173     30176     30178     30174     30173     30176     30179
     30175     30173     30176     30177     30175     30173     30176     30178
     30175     30173     30176     30179     30176     30179     30182     30183
     30176     30179     30182     30184     30176     30179     30182     30185
     30177     30176     30179     30180     30177     30176     30179     30181
     30177     30176     30179     30182     30178     30176     30179     30180
     30178     30176     30179     30181     30178     30176     30179     30182
     30179     30182     30185     30186     30179     30182     30185     30187
     30180     30179     30182     30183     30180     30179     30182     30184
     30180     30179     30182     30185     30181     30179     30182     30183
     30181     30179     30182     30184     30181     30179     30182     30185
     30182     30185     30187     30188     30182     30185     30187     30189
     30183     30182     30185     30186     30183     30182     30185     30187
     30184     30182     30185     30186     30184     30182     30185     30187
     30185     30187     30189     30190     30185     30187     30189     30191
     30185     30187     30189     30192     30186     30185     30187     30188
     30186     30185     30187     30189     30187     30189     30192     30193
     30187     30189     30192     30194     30187     30189     30192     30195
     30188     30187     30189     30190     30188     30187     30189     30191
     30188     30187     30189     30192     30189     30192     30195     30196
     30189     30192     30195     30197     30189     30192     30195     30198
     30190     30189     30192     30193     30190     30189     30192     30194
     30190     30189     30192     30195     30191     30189     30192     30193
     30191     30189     30192     30194     30191     30189     30192     30195
     30192     30195     30198     30199     30192     30195     30198     30200
     30192     30195     30198     30201     30193     30192     30195     30196
     30193     30192     30195     30197     30193     30192     30195     30198
     30194     30192     30195     30196     30194     30192     30195     30197
     30194     30192     30195     30198     30195     30198     30201     30202
     30195     30198     30201     30203     30195     30198     30201     30204
     30196     30195     30198     30199     30196     30195     30198     30200
     30196     30195     30198     30201     30197     30195     30198     30199
     30197     30195     30198     30200     30197     30195     30198     30201
     30198     30201     30204     30205     30198     30201     30204     30206
     30198     30201     30204     30207     30199     30198     30201     30202
     30199     30198     30201     30203     30199     30198     30201     30204
     30200     30198     30201     30202     30200     30198     30201     30203
     30200     30198     30201     30204     30201     30204     30207     30208
     30201     30204     30207     30209     30201     30204     30207     30210
     30202     30201     30204     30205     30202     30201     30204     30206
     30202     30201     30204     30207     30203     30201     30204     30205
     30203     30201     30204     30206     30203     30201     30204     30207
     30204     30207     30210     30211     30204     30207     30210     30212
     30204     30207     30210     30213     30205     30204     30207     30208
     30205     30204     30207     30209     30205     30204     30207     30210
     30206     30204     30207     30208     30206     30204     30207     30209
     30206     30204     30207     30210     30208     30207     30210     30211
     30208     30207     30210     30212     30208     30207     30210     30213
     30209     30207     30210     30211     30209     30207     30210     30212
     30209     30207     30210     30213     30214     30217     30220     30221
     30214     30217     30220     30222     30214     30217     30220     30223
     30215     30214     30217     30218     30215     30214     30217     30219
     30215     30214     30217     30220     30216     30214     30217     30218
     30216     30214     30217     30219     30216     30214     30217     30220
     30217     30220     30223     30224     30217     30220     30223     30225
     30217     30220     30223     30226     30218     30217     30220     30221
     30218     30217     30220     30222     30218     30217     30220     30223
     30219     30217     30220     30221     30219     30217     30220     30222
     30219     30217     30220     30223     30220     30223     30226     30227
     30220     30223     30226     30228     30220     30223     30226     30229
     30221     30220     30223     30224     30221     30220     30223     30225
     30221     30220     30223     30226     30222     30220     30223     30224
     30222     30220     30223     30225     30222     30220     30223     30226
     30223     30226     30229     30230     30223     30226     30229     30231
     30223     30226     30229     30232     30224     30223     30226     30227
     30224     30223     30226     30228     30224     30223     30226     30229
     30225     30223     30226     30227     30225     30223     30226     30228
     30225     30223     30226     30229     30226     30229     30232     30233
     30226     30229     30232     30234     30226     30229     30232     30235
     30227     30226     30229     30230     30227     30226     30229     30231
     30227     30226     30229     30232     30228     30226     30229     30230
     30228     30226     30229     30231     30228     30226     30229     30232
     30229     30232     30235     30236     30229     30232     30235     30237
     30229     30232     30235     30238     30230     30229     30232     30233
     30230     30229     30232     30234     30230     30229     30232     30235
     30231     30229     30232     30233     30231     30229     30232     30234
     30231     30229     30232     30235     30232     30235     30238     30239
     30232     30235     30238     30240     30232     30235     30238     30241
     30233     30232     30235     30236     30233     30232     30235     30237
     30233     30232     30235     30238     30234     30232     30235     30236
     30234     30232     30235     30237     30234     30232     30235     30238
     30235     30238     30241     30242     30235     30238     30241     30243
     30235     30238     30241     30244     30236     30235     30238     30239
     30236     30235     30238     30240     30236     30235     30238     30241
     30237     30235     30238     30239     30237     30235     30238     30240
     30237     30235     30238     30241     30238     30241     30244     30245
     30238     30241     30244     30246     30238     30241     30244     30247
     30239     30238     30241     30242     30239     30238     30241     30243
     30239     30238     30241     30244     30240     30238     30241     30242
     30240     30238     30241     30243     30240     30238     30241     30244
     30241     30244     30247     30248     30241     30244     30247     30249
     30241     30244     30247     30250     30242     30241     30244     30245
     30242     30241     30244     30246     30242     30241     30244     30247
     30243     30241     30244     30245     30243     30241     30244     30246
     30243     30241     30244     30247     30244     30247     30250     30251
     30244     30247     30250     30252     30244     30247     30250     30253
     30245     30244     30247     30248     30245     30244     30247     30249
     30245     30244     30247     30250     30246     30244     30247     30248
     30246     30244     30247     30249     30246     30244     30247     30250
     30247     30250     30253     30254     30247     30250     30253     30255
     30247     30250     30253     30256     30248     30247     30250     30251
     30248     30247     30250     30252     30248     30247     30250     30253
     30249     30247     30250     30251     30249     30247     30250     30252
     30249     30247     30250     30253     30251     30250     30253     30254
     30251     30250     30253     30255     30251     30250     30253     30256
     30252     30250     30253     30254     30252     30250     30253     30255
     30252     30250     30253     30256     30257     30258     30273     30274
     30257     30258     30273     30275     30257     30258     30273     30279
     30258     30257     30261     30262     30258     30257     30261     30263
     30258     30257     30261     30264     30258     30257     30265     30266
     30258     30257     30265     30267     30258     30257     30265     30268
     30258     30257     30269     30270     30258     30257     30269     30271
     30258     30257     30269     30272     30258     30273     30279     30276
     30259     30258     30257     30261     30259     30258     30257     30265
     30259     30258     30257     30269     30259     30258     30273     30274
     30259     30258     30273     30275     30259     30258     30273     30279
     30260     30258     30257     30261     30260     30258     30257     30265
     30260     30258     30257     30269     30260     30258     30273     30274
     30260     30258     30273     30275     30260     30258     30273     30279
     30261     30257     30258     30273     30261     30257     30265     30266
     30261     30257     30265     30267     30261     30257     30265     30268
     30261     30257     30269     30270     30261     30257     30269     30271
     30261     30257     30269     30272     30262     30261     30257     30265
     30262     30261     30257     30269     30263     30261     30257     30265
     30263     30261     30257     30269     30264     30261     30257     30265
     30264     30261     30257     30269     30265     30257     30258     30273
     30265     30257     30269     30270     30265     30257     30269     30271
     30265     30257     30269     30272     30266     30265     30257     30269
     30267     30265     30257     30269     30268     30265     30257     30269
     30269     30257     30258     30273     30273     30279     30276     30277
     30273     30279     30276     30278     30273     30279     30276     30280
     30274     30273     30279     30276     30275     30273     30279     30276
     30276     30280     30281     30282     30276     30280     30281     30283
     30276     30280     30281     30284     30277     30276     30280     30281
     30278     30276     30280     30281     30279     30276     30280     30281
     30280     30281     30284     30285     30280     30281     30284     30286
     30280     30281     30284     30292     30281     30284     30286     30287
     30281     30284     30292     30293     30281     30284     30292     30294
     30281     30284     30292     30295     30282     30281     30284     30285
     30282     30281     30284     30286     30282     30281     30284     30292
     30283     30281     30284     30285     30283     30281     30284     30286
     30283     30281     30284     30292     30284     30286     30287     30288
     30284     30286     30287     30289     30284     30292     30295     30296
     30285     30284     30286     30287     30285     30284     30292     30293
     30285     30284     30292     30294     30285     30284     30292     30295
     30286     30284     30292     30293     30286     30284     30292     30294
     30286     30284     30292     30295     30286     30287     30289     30290
     30286     30287     30289     30291     30286     30287     30289     30301
     30287     30286     30284     30292     30287     30289     30301     30302
     30287     30289     30301     30303     30287     30289     30301     30304
     30288     30287     30289     30290     30288     30287     30289     30291
     30288     30287     30289     30301     30289     30301     30304     30305
     30289     30301     30304     30306     30289     30301     30304     30307
     30290     30289     30301     30302     30290     30289     30301     30303
     30290     30289     30301     30304     30291     30289     30301     30302
     30291     30289     30301     30303     30291     30289     30301     30304
     30292     30295     30296     30297     30292     30295     30296     30298
     30293     30292     30295     30296     30294     30292     30295     30296
     30295     30296     30298     30299     30295     30296     30298     30300
     30295     30296     30298     30348     30296     30298     30348     30349
     30296     30298     30348     30350     30296     30298     30348     30351
     30297     30296     30298     30299     30297     30296     30298     30300
     30297     30296     30298     30348     30298     30348     30351     30352
     30298     30348     30351     30353     30298     30348     30351     30354
     30299     30298     30348     30349     30299     30298     30348     30350
     30299     30298     30348     30351     30300     30298     30348     30349
     30300     30298     30348     30350     30300     30298     30348     30351
     30301     30304     30307     30308     30301     30304     30307     30309
     30301     30304     30307     30310     30302     30301     30304     30305
     30302     30301     30304     30306     30302     30301     30304     30307
     30303     30301     30304     30305     30303     30301     30304     30306
     30303     30301     30304     30307     30304     30307     30310     30311
     30304     30307     30310     30312     30304     30307     30310     30313
     30305     30304     30307     30308     30305     30304     30307     30309
     30305     30304     30307     30310     30306     30304     30307     30308
     30306     30304     30307     30309     30306     30304     30307     30310
     30307     30310     30313     30314     30307     30310     30313     30315
     30307     30310     30313     30316     30308     30307     30310     30311
     30308     30307     30310     30312     30308     30307     30310     30313
     30309     30307     30310     30311     30309     30307     30310     30312
     30309     30307     30310     30313     30310     30313     30316     30317
     30310     30313     30316     30318     30310     30313     30316     30319
     30311     30310     30313     30314     30311     30310     30313     30315
     30311     30310     30313     30316     30312     30310     30313     30314
     30312     30310     30313     30315     30312     30310     30313     30316
     30313     30316     30319     30320     30313     30316     30319     30321
     30314     30313     30316     30317     30314     30313     30316     30318
     30314     30313     30316     30319     30315     30313     30316     30317
     30315     30313     30316     30318     30315     30313     30316     30319
     30316     30319     30321     30322     30316     30319     30321     30323
     30317     30316     30319     30320     30317     30316     30319     30321
     30318     30316     30319     30320     30318     30316     30319     30321
     30319     30321     30323     30324     30319     30321     30323     30325
     30319     30321     30323     30326     30320     30319     30321     30322
     30320     30319     30321     30323     30321     30323     30326     30327
     30321     30323     30326     30328     30321     30323     30326     30329
     30322     30321     30323     30324     30322     30321     30323     30325
     30322     30321     30323     30326     30323     30326     30329     30330
     30323     30326     30329     30331     30323     30326     30329     30332
     30324     30323     30326     30327     30324     30323     30326     30328
     30324     30323     30326     30329     30325     30323     30326     30327
     30325     30323     30326     30328     30325     30323     30326     30329
     30326     30329     30332     30333     30326     30329     30332     30334
     30326     30329     30332     30335     30327     30326     30329     30330
     30327     30326     30329     30331     30327     30326     30329     30332
     30328     30326     30329     30330     30328     30326     30329     30331
     30328     30326     30329     30332     30329     30332     30335     30336
     30329     30332     30335     30337     30329     30332     30335     30338
     30330     30329     30332     30333     30330     30329     30332     30334
     30330     30329     30332     30335     30331     30329     30332     30333
     30331     30329     30332     30334     30331     30329     30332     30335
     30332     30335     30338     30339     30332     30335     30338     30340
     30332     30335     30338     30341     30333     30332     30335     30336
     30333     30332     30335     30337     30333     30332     30335     30338
     30334     30332     30335     30336     30334     30332     30335     30337
     30334     30332     30335     30338     30335     30338     30341     30342
     30335     30338     30341     30343     30335     30338     30341     30344
     30336     30335     30338     30339     30336     30335     30338     30340
     30336     30335     30338     30341     30337     30335     30338     30339
     30337     30335     30338     30340     30337     30335     30338     30341
     30338     30341     30344     30345     30338     30341     30344     30346
     30338     30341     30344     30347     30339     30338     30341     30342
     30339     30338     30341     30343     30339     30338     30341     30344
     30340     30338     30341     30342     30340     30338     30341     30343
     30340     30338     30341     30344     30342     30341     30344     30345
     30342     30341     30344     30346     30342     30341     30344     30347
     30343     30341     30344     30345     30343     30341     30344     30346
     30343     30341     30344     30347     30348     30351     30354     30355
     30348     30351     30354     30356     30348     30351     30354     30357
     30349     30348     30351     30352     30349     30348     30351     30353
     30349     30348     30351     30354     30350     30348     30351     30352
     30350     30348     30351     30353     30350     30348     30351     30354
     30351     30354     30357     30358     30351     30354     30357     30359
     30351     30354     30357     30360     30352     30351     30354     30355
     30352     30351     30354     30356     30352     30351     30354     30357
     30353     30351     30354     30355     30353     30351     30354     30356
     30353     30351     30354     30357     30354     30357     30360     30361
     30354     30357     30360     30362     30354     30357     30360     30363
     30355     30354     30357     30358     30355     30354     30357     30359
     30355     30354     30357     30360     30356     30354     30357     30358
     30356     30354     30357     30359     30356     30354     30357     30360
     30357     30360     30363     30364     30357     30360     30363     30365
     30357     30360     30363     30366     30358     30357     30360     30361
     30358     30357     30360     30362     30358     30357     30360     30363
     30359     30357     30360     30361     30359     30357     30360     30362
     30359     30357     30360     30363     30360     30363     30366     30367
     30360     30363     30366     30368     30360     30363     30366     30369
     30361     30360     30363     30364     30361     30360     30363     30365
     30361     30360     30363     30366     30362     30360     30363     30364
     30362     30360     30363     30365     30362     30360     30363     30366
     30363     30366     30369     30370     30363     30366     30369     30371
     30363     30366     30369     30372     30364     30363     30366     30367
     30364     30363     30366     30368     30364     30363     30366     30369
     30365     30363     30366     30367     30365     30363     30366     30368
     30365     30363     30366     30369     30366     30369     30372     30373
     30366     30369     30372     30374     30366     30369     30372     30375
     30367     30366     30369     30370     30367     30366     30369     30371
     30367     30366     30369     30372     30368     30366     30369     30370
     30368     30366     30369     30371     30368     30366     30369     30372
     30369     30372     30375     30376     30369     30372     30375     30377
     30369     30372     30375     30378     30370     30369     30372     30373
     30370     30369     30372     30374     30370     30369     30372     30375
     30371     30369     30372     30373     30371     30369     30372     30374
     30371     30369     30372     30375     30372     30375     30378     30379
     30372     30375     30378     30380     30372     30375     30378     30381
     30373     30372     30375     30376     30373     30372     30375     30377
     30373     30372     30375     30378     30374     30372     30375     30376
     30374     30372     30375     30377     30374     30372     30375     30378
     30375     30378     30381     30382     30375     30378     30381     30383
     30375     30378     30381     30384     30376     30375     30378     30379
     30376     30375     30378     30380     30376     30375     30378     30381
     30377     30375     30378     30379     30377     30375     30378     30380
     30377     30375     30378     30381     30378     30381     30384     30385
     30378     30381     30384     30386     30378     30381     30384     30387
     30379     30378     30381     30382     30379     30378     30381     30383
     30379     30378     30381     30384     30380     30378     30381     30382
     30380     30378     30381     30383     30380     30378     30381     30384
     30381     30384     30387     30388     30381     30384     30387     30389
     30381     30384     30387     30390     30382     30381     30384     30385
     30382     30381     30384     30386     30382     30381     30384     30387
     30383     30381     30384     30385     30383     30381     30384     30386
     30383     30381     30384     30387     30385     30384     30387     30388
     30385     30384     30387     30389     30385     30384     30387     30390
     30386     30384     30387     30388     30386     30384     30387     30389
     30386     30384     30387     30390     30391     30392     30407     30408
     30391     30392     30407     30409     30391     30392     30407     30413
     30392     30391     30395     30396     30392     30391     30395     30397
     30392     30391     30395     30398     30392     30391     30399     30400
     30392     30391     30399     30401     30392     30391     30399     30402
     30392     30391     30403     30404     30392     30391     30403     30405
     30392     30391     30403     30406     30392     30407     30413     30410
     30393     30392     30391     30395     30393     30392     30391     30399
     30393     30392     30391     30403     30393     30392     30407     30408
     30393     30392     30407     30409     30393     30392     30407     30413
     30394     30392     30391     30395     30394     30392     30391     30399
     30394     30392     30391     30403     30394     30392     30407     30408
     30394     30392     30407     30409     30394     30392     30407     30413
     30395     30391     30392     30407     30395     30391     30399     30400
     30395     30391     30399     30401     30395     30391     30399     30402
     30395     30391     30403     30404     30395     30391     30403     30405
     30395     30391     30403     30406     30396     30395     30391     30399
     30396     30395     30391     30403     30397     30395     30391     30399
     30397     30395     30391     30403     30398     30395     30391     30399
     30398     30395     30391     30403     30399     30391     30392     30407
     30399     30391     30403     30404     30399     30391     30403     30405
     30399     30391     30403     30406     30400     30399     30391     30403
     30401     30399     30391     30403     30402     30399     30391     30403
     30403     30391     30392     30407     30407     30413     30410     30411
     30407     30413     30410     30412     30407     30413     30410     30414
     30408     30407     30413     30410     30409     30407     30413     30410
     30410     30414     30415     30416     30410     30414     30415     30417
     30410     30414     30415     30418     30411     30410     30414     30415
     30412     30410     30414     30415     30413     30410     30414     30415
     30414     30415     30418     30419     30414     30415     30418     30420
     30414     30415     30418     30426     30415     30418     30420     30421
     30415     30418     30426     30427     30415     30418     30426     30428
     30415     30418     30426     30429     30416     30415     30418     30419
     30416     30415     30418     30420     30416     30415     30418     30426
     30417     30415     30418     30419     30417     30415     30418     30420
     30417     30415     30418     30426     30418     30420     30421     30422
     30418     30420     30421     30423     30418     30426     30429     30430
     30419     30418     30420     30421     30419     30418     30426     30427
     30419     30418     30426     30428     30419     30418     30426     30429
     30420     30418     30426     30427     30420     30418     30426     30428
     30420     30418     30426     30429     30420     30421     30423     30424
     30420     30421     30423     30425     30420     30421     30423     30435
     30421     30420     30418     30426     30421     30423     30435     30436
     30421     30423     30435     30437     30421     30423     30435     30438
     30422     30421     30423     30424     30422     30421     30423     30425
     30422     30421     30423     30435     30423     30435     30438     30439
     30423     30435     30438     30440     30423     30435     30438     30441
     30424     30423     30435     30436     30424     30423     30435     30437
     30424     30423     30435     30438     30425     30423     30435     30436
     30425     30423     30435     30437     30425     30423     30435     30438
     30426     30429     30430     30431     30426     30429     30430     30432
     30427     30426     30429     30430     30428     30426     30429     30430
     30429     30430     30432     30433     30429     30430     30432     30434
     30429     30430     30432     30482     30430     30432     30482     30483
     30430     30432     30482     30484     30430     30432     30482     30485
     30431     30430     30432     30433     30431     30430     30432     30434
     30431     30430     30432     30482     30432     30482     30485     30486
     30432     30482     30485     30487     30432     30482     30485     30488
     30433     30432     30482     30483     30433     30432     30482     30484
     30433     30432     30482     30485     30434     30432     30482     30483
     30434     30432     30482     30484     30434     30432     30482     30485
     30435     30438     30441     30442     30435     30438     30441     30443
     30435     30438     30441     30444     30436     30435     30438     30439
     30436     30435     30438     30440     30436     30435     30438     30441
     30437     30435     30438     30439     30437     30435     30438     30440
     30437     30435     30438     30441     30438     30441     30444     30445
     30438     30441     30444     30446     30438     30441     30444     30447
     30439     30438     30441     30442     30439     30438     30441     30443
     30439     30438     30441     30444     30440     30438     30441     30442
     30440     30438     30441     30443     30440     30438     30441     30444
     30441     30444     30447     30448     30441     30444     30447     30449
     30441     30444     30447     30450     30442     30441     30444     30445
     30442     30441     30444     30446     30442     30441     30444     30447
     30443     30441     30444     30445     30443     30441     30444     30446
     30443     30441     30444     30447     30444     30447     30450     30451
     30444     30447     30450     30452     30444     30447     30450     30453
     30445     30444     30447     30448     30445     30444     30447     30449
     30445     30444     30447     30450     30446     30444     30447     30448
     30446     30444     30447     30449     30446     30444     30447     30450
     30447     30450     30453     30454     30447     30450     30453     30455
     30448     30447     30450     30451     30448     30447     30450     30452
     30448     30447     30450     30453     30449     30447     30450     30451
     30449     30447     30450     30452     30449     30447     30450     30453
     30450     30453     30455     30456     30450     30453     30455     30457
     30451     30450     30453     30454     30451     30450     30453     30455
     30452     30450     30453     30454     30452     30450     30453     30455
     30453     30455     30457     30458     30453     30455     30457     30459
     30453     30455     30457     30460     30454     30453     30455     30456
     30454     30453     30455     30457     30455     30457     30460     30461
     30455     30457     30460     30462     30455     30457     30460     30463
     30456     30455     30457     30458     30456     30455     30457     30459
     30456     30455     30457     30460     30457     30460     30463     30464
     30457     30460     30463     30465     30457     30460     30463     30466
     30458     30457     30460     30461     30458     30457     30460     30462
     30458     30457     30460     30463     30459     30457     30460     30461
     30459     30457     30460     30462     30459     30457     30460     30463
     30460     30463     30466     30467     30460     30463     30466     30468
     30460     30463     30466     30469     30461     30460     30463     30464
     30461     30460     30463     30465     30461     30460     30463     30466
     30462     30460     30463     30464     30462     30460     30463     30465
     30462     30460     30463     30466     30463     30466     30469     30470
     30463     30466     30469     30471     30463     30466     30469     30472
     30464     30463     30466     30467     30464     30463     30466     30468
     30464     30463     30466     30469     30465     30463     30466     30467
     30465     30463     30466     30468     30465     30463     30466     30469
     30466     30469     30472     30473     30466     30469     30472     30474
     30466     30469     30472     30475     30467     30466     30469     30470
     30467     30466     30469     30471     30467     30466     30469     30472
     30468     30466     30469     30470     30468     30466     30469     30471
     30468     30466     30469     30472     30469     30472     30475     30476
     30469     30472     30475     30477     30469     30472     30475     30478
     30470     30469     30472     30473     30470     30469     30472     30474
     30470     30469     30472     30475     30471     30469     30472     30473
     30471     30469     30472     30474     30471     30469     30472     30475
     30472     30475     30478     30479     30472     30475     30478     30480
     30472     30475     30478     30481     30473     30472     30475     30476
     30473     30472     30475     30477     30473     30472     30475     30478
     30474     30472     30475     30476     30474     30472     30475     30477
     30474     30472     30475     30478     30476     30475     30478     30479
     30476     30475     30478     30480     30476     30475     30478     30481
     30477     30475     30478     30479     30477     30475     30478     30480
     30477     30475     30478     30481     30482     30485     30488     30489
     30482     30485     30488     30490     30482     30485     30488     30491
     30483     30482     30485     30486     30483     30482     30485     30487
     30483     30482     30485     30488     30484     30482     30485     30486
     30484     30482     30485     30487     30484     30482     30485     30488
     30485     30488     30491     30492     30485     30488     30491     30493
     30485     30488     30491     30494     30486     30485     30488     30489
     30486     30485     30488     30490     30486     30485     30488     30491
     30487     30485     30488     30489     30487     30485     30488     30490
     30487     30485     30488     30491     30488     30491     30494     30495
     30488     30491     30494     30496     30488     30491     30494     30497
     30489     30488     30491     30492     30489     30488     30491     30493
     30489     30488     30491     30494     30490     30488     30491     30492
     30490     30488     30491     30493     30490     30488     30491     30494
     30491     30494     30497     30498     30491     30494     30497     30499
     30491     30494     30497     30500     30492     30491     30494     30495
     30492     30491     30494     30496     30492     30491     30494     30497
     30493     30491     30494     30495     30493     30491     30494     30496
     30493     30491     30494     30497     30494     30497     30500     30501
     30494     30497     30500     30502     30494     30497     30500     30503
     30495     30494     30497     30498     30495     30494     30497     30499
     30495     30494     30497     30500     30496     30494     30497     30498
     30496     30494     30497     30499     30496     30494     30497     30500
     30497     30500     30503     30504     30497     30500     30503     30505
     30497     30500     30503     30506     30498     30497     30500     30501
     30498     30497     30500     30502     30498     30497     30500     30503
     30499     30497     30500     30501     30499     30497     30500     30502
     30499     30497     30500     30503     30500     30503     30506     30507
     30500     30503     30506     30508     30500     30503     30506     30509
     30501     30500     30503     30504     30501     30500     30503     30505
     30501     30500     30503     30506     30502     30500     30503     30504
     30502     30500     30503     30505     30502     30500     30503     30506
     30503     30506     30509     30510     30503     30506     30509     30511
     30503     30506     30509     30512     30504     30503     30506     30507
     30504     30503     30506     30508     30504     30503     30506     30509
     30505     30503     30506     30507     30505     30503     30506     30508
     30505     30503     30506     30509     30506     30509     30512     30513
     30506     30509     30512     30514     30506     30509     30512     30515
     30507     30506     30509     30510     30507     30506     30509     30511
     30507     30506     30509     30512     30508     30506     30509     30510
     30508     30506     30509     30511     30508     30506     30509     30512
     30509     30512     30515     30516     30509     30512     30515     30517
     30509     30512     30515     30518     30510     30509     30512     30513
     30510     30509     30512     30514     30510     30509     30512     30515
     30511     30509     30512     30513     30511     30509     30512     30514
     30511     30509     30512     30515     30512     30515     30518     30519
     30512     30515     30518     30520     30512     30515     30518     30521
     30513     30512     30515     30516     30513     30512     30515     30517
     30513     30512     30515     30518     30514     30512     30515     30516
     30514     30512     30515     30517     30514     30512     30515     30518
     30515     30518     30521     30522     30515     30518     30521     30523
     30515     30518     30521     30524     30516     30515     30518     30519
     30516     30515     30518     30520     30516     30515     30518     30521
     30517     30515     30518     30519     30517     30515     30518     30520
     30517     30515     30518     30521     30519     30518     30521     30522
     30519     30518     30521     30523     30519     30518     30521     30524
     30520     30518     30521     30522     30520     30518     30521     30523
     30520     30518     30521     30524     30525     30526     30541     30542
     30525     30526     30541     30543     30525     30526     30541     30547
     30526     30525     30529     30530     30526     30525     30529     30531
     30526     30525     30529     30532     30526     30525     30533     30534
     30526     30525     30533     30535     30526     30525     30533     30536
     30526     30525     30537     30538     30526     30525     30537     30539
     30526     30525     30537     30540     30526     30541     30547     30544
     30527     30526     30525     30529     30527     30526     30525     30533
     30527     30526     30525     30537     30527     30526     30541     30542
     30527     30526     30541     30543     30527     30526     30541     30547
     30528     30526     30525     30529     30528     30526     30525     30533
     30528     30526     30525     30537     30528     30526     30541     30542
     30528     30526     30541     30543     30528     30526     30541     30547
     30529     30525     30526     30541     30529     30525     30533     30534
     30529     30525     30533     30535     30529     30525     30533     30536
     30529     30525     30537     30538     30529     30525     30537     30539
     30529     30525     30537     30540     30530     30529     30525     30533
     30530     30529     30525     30537     30531     30529     30525     30533
     30531     30529     30525     30537     30532     30529     30525     30533
     30532     30529     30525     30537     30533     30525     30526     30541
     30533     30525     30537     30538     30533     30525     30537     30539
     30533     30525     30537     30540     30534     30533     30525     30537
     30535     30533     30525     30537     30536     30533     30525     30537
     30537     30525     30526     30541     30541     30547     30544     30545
     30541     30547     30544     30546     30541     30547     30544     30548
     30542     30541     30547     30544     30543     30541     30547     30544
     30544     30548     30549     30550     30544     30548     30549     30551
     30544     30548     30549     30552     30545     30544     30548     30549
     30546     30544     30548     30549     30547     30544     30548     30549
     30548     30549     30552     30553     30548     30549     30552     30554
     30548     30549     30552     30560     30549     30552     30554     30555
     30549     30552     30560     30561     30549     30552     30560     30562
     30549     30552     30560     30563     30550     30549     30552     30553
     30550     30549     30552     30554     30550     30549     30552     30560
     30551     30549     30552     30553     30551     30549     30552     30554
     30551     30549     30552     30560     30552     30554     30555     30556
     30552     30554     30555     30557     30552     30560     30563     30564
     30553     30552     30554     30555     30553     30552     30560     30561
     30553     30552     30560     30562     30553     30552     30560     30563
     30554     30552     30560     30561     30554     30552     30560     30562
     30554     30552     30560     30563     30554     30555     30557     30558
     30554     30555     30557     30559     30554     30555     30557     30569
     30555     30554     30552     30560     30555     30557     30569     30570
     30555     30557     30569     30571     30555     30557     30569     30572
     30556     30555     30557     30558     30556     30555     30557     30559
     30556     30555     30557     30569     30557     30569     30572     30573
     30557     30569     30572     30574     30557     30569     30572     30575
     30558     30557     30569     30570     30558     30557     30569     30571
     30558     30557     30569     30572     30559     30557     30569     30570
     30559     30557     30569     30571     30559     30557     30569     30572
     30560     30563     30564     30565     30560     30563     30564     30566
     30561     30560     30563     30564     30562     30560     30563     30564
     30563     30564     30566     30567     30563     30564     30566     30568
     30563     30564     30566     30616     30564     30566     30616     30617
     30564     30566     30616     30618     30564     30566     30616     30619
     30565     30564     30566     30567     30565     30564     30566     30568
     30565     30564     30566     30616     30566     30616     30619     30620
     30566     30616     30619     30621     30566     30616     30619     30622
     30567     30566     30616     30617     30567     30566     30616     30618
     30567     30566     30616     30619     30568     30566     30616     30617
     30568     30566     30616     30618     30568     30566     30616     30619
     30569     30572     30575     30576     30569     30572     30575     30577
     30569     30572     30575     30578     30570     30569     30572     30573
     30570     30569     30572     30574     30570     30569     30572     30575
     30571     30569     30572     30573     30571     30569     30572     30574
     30571     30569     30572     30575     30572     30575     30578     30579
     30572     30575     30578     30580     30572     30575     30578     30581
     30573     30572     30575     30576     30573     30572     30575     30577
     30573     30572     30575     30578     30574     30572     30575     30576
     30574     30572     30575     30577     30574     30572     30575     30578
     30575     30578     30581     30582     30575     30578     30581     30583
     30575     30578     30581     30584     30576     30575     30578     30579
     30576     30575     30578     30580     30576     30575     30578     30581
     30577     30575     30578     30579     30577     30575     30578     30580
     30577     30575     30578     30581     30578     30581     30584     30585
     30578     30581     30584     30586     30578     30581     30584     30587
     30579     30578     30581     30582     30579     30578     30581     30583
     30579     30578     30581     30584     30580     30578     30581     30582
     30580     30578     30581     30583     30580     30578     30581     30584
     30581     30584     30587     30588     30581     30584     30587     30589
     30582     30581     30584     30585     30582     30581     30584     30586
     30582     30581     30584     30587     30583     30581     30584     30585
     30583     30581     30584     30586     30583     30581     30584     30587
     30584     30587     30589     30590     30584     30587     30589     30591
     30585     30584     30587     30588     30585     30584     30587     30589
     30586     30584     30587     30588     30586     30584     30587     30589
     30587     30589     30591     30592     30587     30589     30591     30593
     30587     30589     30591     30594     30588     30587     30589     30590
     30588     30587     30589     30591     30589     30591     30594     30595
     30589     30591     30594     30596     30589     30591     30594     30597
     30590     30589     30591     30592     30590     30589     30591     30593
     30590     30589     30591     30594     30591     30594     30597     30598
     30591     30594     30597     30599     30591     30594     30597     30600
     30592     30591     30594     30595     30592     30591     30594     30596
     30592     30591     30594     30597     30593     30591     30594     30595
     30593     30591     30594     30596     30593     30591     30594     30597
     30594     30597     30600     30601     30594     30597     30600     30602
     30594     30597     30600     30603     30595     30594     30597     30598
     30595     30594     30597     30599     30595     30594     30597     30600
     30596     30594     30597     30598     30596     30594     30597     30599
     30596     30594     30597     30600     30597     30600     30603     30604
     30597     30600     30603     30605     30597     30600     30603     30606
     30598     30597     30600     30601     30598     30597     30600     30602
     30598     30597     30600     30603     30599     30597     30600     30601
     30599     30597     30600     30602     30599     30597     30600     30603
     30600     30603     30606     30607     30600     30603     30606     30608
     30600     30603     30606     30609     30601     30600     30603     30604
     30601     30600     30603     30605     30601     30600     30603     30606
     30602     30600     30603     30604     30602     30600     30603     30605
     30602     30600     30603     30606     30603     30606     30609     30610
     30603     30606     30609     30611     30603     30606     30609     30612
     30604     30603     30606     30607     30604     30603     30606     30608
     30604     30603     30606     30609     30605     30603     30606     30607
     30605     30603     30606     30608     30605     30603     30606     30609
     30606     30609     30612     30613     30606     30609     30612     30614
     30606     30609     30612     30615     30607     30606     30609     30610
     30607     30606     30609     30611     30607     30606     30609     30612
     30608     30606     30609     30610     30608     30606     30609     30611
     30608     30606     30609     30612     30610     30609     30612     30613
     30610     30609     30612     30614     30610     30609     30612     30615
     30611     30609     30612     30613     30611     30609     30612     30614
     30611     30609     30612     30615     30616     30619     30622     30623
     30616     30619     30622     30624     30616     30619     30622     30625
     30617     30616     30619     30620     30617     30616     30619     30621
     30617     30616     30619     30622     30618     30616     30619     30620
     30618     30616     30619     30621     30618     30616     30619     30622
     30619     30622     30625     30626     30619     30622     30625     30627
     30619     30622     30625     30628     30620     30619     30622     30623
     30620     30619     30622     30624     30620     30619     30622     30625
     30621     30619     30622     30623     30621     30619     30622     30624
     30621     30619     30622     30625     30622     30625     30628     30629
     30622     30625     30628     30630     30622     30625     30628     30631
     30623     30622     30625     30626     30623     30622     30625     30627
     30623     30622     30625     30628     30624     30622     30625     30626
     30624     30622     30625     30627     30624     30622     30625     30628
     30625     30628     30631     30632     30625     30628     30631     30633
     30625     30628     30631     30634     30626     30625     30628     30629
     30626     30625     30628     30630     30626     30625     30628     30631
     30627     30625     30628     30629     30627     30625     30628     30630
     30627     30625     30628     30631     30628     30631     30634     30635
     30628     30631     30634     30636     30628     30631     30634     30637
     30629     30628     30631     30632     30629     30628     30631     30633
     30629     30628     30631     30634     30630     30628     30631     30632
     30630     30628     30631     30633     30630     30628     30631     30634
     30631     30634     30637     30638     30631     30634     30637     30639
     30631     30634     30637     30640     30632     30631     30634     30635
     30632     30631     30634     30636     30632     30631     30634     30637
     30633     30631     30634     30635     30633     30631     30634     30636
     30633     30631     30634     30637     30634     30637     30640     30641
     30634     30637     30640     30642     30634     30637     30640     30643
     30635     30634     30637     30638     30635     30634     30637     30639
     30635     30634     30637     30640     30636     30634     30637     30638
     30636     30634     30637     30639     30636     30634     30637     30640
     30637     30640     30643     30644     30637     30640     30643     30645
     30637     30640     30643     30646     30638     30637     30640     30641
     30638     30637     30640     30642     30638     30637     30640     30643
     30639     30637     30640     30641     30639     30637     30640     30642
     30639     30637     30640     30643     30640     30643     30646     30647
     30640     30643     30646     30648     30640     30643     30646     30649
     30641     30640     30643     30644     30641     30640     30643     30645
     30641     30640     30643     30646     30642     30640     30643     30644
     30642     30640     30643     30645     30642     30640     30643     30646
     30643     30646     30649     30650     30643     30646     30649     30651
     30643     30646     30649     30652     30644     30643     30646     30647
     30644     30643     30646     30648     30644     30643     30646     30649
     30645     30643     30646     30647     30645     30643     30646     30648
     30645     30643     30646     30649     30646     30649     30652     30653
     30646     30649     30652     30654     30646     30649     30652     30655
     30647     30646     30649     30650     30647     30646     30649     30651
     30647     30646     30649     30652     30648     30646     30649     30650
     30648     30646     30649     30651     30648     30646     30649     30652
     30649     30652     30655     30656     30649     30652     30655     30657
     30649     30652     30655     30658     30650     30649     30652     30653
     30650     30649     30652     30654     30650     30649     30652     30655
     30651     30649     30652     30653     30651     30649     30652     30654
     30651     30649     30652     30655     30653     30652     30655     30656
     30653     30652     30655     30657     30653     30652     30655     30658
     30654     30652     30655     30656     30654     30652     30655     30657
     30654     30652     30655     30658     30659     30660     30675     30676
     30659     30660     30675     30677     30659     30660     30675     30681
     30660     30659     30663     30664     30660     30659     30663     30665
     30660     30659     30663     30666     30660     30659     30667     30668
     30660     30659     30667     30669     30660     30659     30667     30670
     30660     30659     30671     30672     30660     30659     30671     30673
     30660     30659     30671     30674     30660     30675     30681     30678
     30661     30660     30659     30663     30661     30660     30659     30667
     30661     30660     30659     30671     30661     30660     30675     30676
     30661     30660     30675     30677     30661     30660     30675     30681
     30662     30660     30659     30663     30662     30660     30659     30667
     30662     30660     30659     30671     30662     30660     30675     30676
     30662     30660     30675     30677     30662     30660     30675     30681
     30663     30659     30660     30675     30663     30659     30667     30668
     30663     30659     30667     30669     30663     30659     30667     30670
     30663     30659     30671     30672     30663     30659     30671     30673
     30663     30659     30671     30674     30664     30663     30659     30667
     30664     30663     30659     30671     30665     30663     30659     30667
     30665     30663     30659     30671     30666     30663     30659     30667
     30666     30663     30659     30671     30667     30659     30660     30675
     30667     30659     30671     30672     30667     30659     30671     30673
     30667     30659     30671     30674     30668     30667     30659     30671
     30669     30667     30659     30671     30670     30667     30659     30671
     30671     30659     30660     30675     30675     30681     30678     30679
     30675     30681     30678     30680     30675     30681     30678     30682
     30676     30675     30681     30678     30677     30675     30681     30678
     30678     30682     30683     30684     30678     30682     30683     30685
     30678     30682     30683     30686     30679     30678     30682     30683
     30680     30678     30682     30683     30681     30678     30682     30683
     30682     30683     30686     30687     30682     30683     30686     30688
     30682     30683     30686     30694     30683     30686     30688     30689
     30683     30686     30694     30695     30683     30686     30694     30696
     30683     30686     30694     30697     30684     30683     30686     30687
     30684     30683     30686     30688     30684     30683     30686     30694
     30685     30683     30686     30687     30685     30683     30686     30688
     30685     30683     30686     30694     30686     30688     30689     30690
     30686     30688     30689     30691     30686     30694     30697     30698
     30687     30686     30688     30689     30687     30686     30694     30695
     30687     30686     30694     30696     30687     30686     30694     30697
     30688     30686     30694     30695     30688     30686     30694     30696
     30688     30686     30694     30697     30688     30689     30691     30692
     30688     30689     30691     30693     30688     30689     30691     30703
     30689     30688     30686     30694     30689     30691     30703     30704
     30689     30691     30703     30705     30689     30691     30703     30706
     30690     30689     30691     30692     30690     30689     30691     30693
     30690     30689     30691     30703     30691     30703     30706     30707
     30691     30703     30706     30708     30691     30703     30706     30709
     30692     30691     30703     30704     30692     30691     30703     30705
     30692     30691     30703     30706     30693     30691     30703     30704
     30693     30691     30703     30705     30693     30691     30703     30706
     30694     30697     30698     30699     30694     30697     30698     30700
     30695     30694     30697     30698     30696     30694     30697     30698
     30697     30698     30700     30701     30697     30698     30700     30702
     30697     30698     30700     30750     30698     30700     30750     30751
     30698     30700     30750     30752     30698     30700     30750     30753
     30699     30698     30700     30701     30699     30698     30700     30702
     30699     30698     30700     30750     30700     30750     30753     30754
     30700     30750     30753     30755     30700     30750     30753     30756
     30701     30700     30750     30751     30701     30700     30750     30752
     30701     30700     30750     30753     30702     30700     30750     30751
     30702     30700     30750     30752     30702     30700     30750     30753
     30703     30706     30709     30710     30703     30706     30709     30711
     30703     30706     30709     30712     30704     30703     30706     30707
     30704     30703     30706     30708     30704     30703     30706     30709
     30705     30703     30706     30707     30705     30703     30706     30708
     30705     30703     30706     30709     30706     30709     30712     30713
     30706     30709     30712     30714     30706     30709     30712     30715
     30707     30706     30709     30710     30707     30706     30709     30711
     30707     30706     30709     30712     30708     30706     30709     30710
     30708     30706     30709     30711     30708     30706     30709     30712
     30709     30712     30715     30716     30709     30712     30715     30717
     30709     30712     30715     30718     30710     30709     30712     30713
     30710     30709     30712     30714     30710     30709     30712     30715
     30711     30709     30712     30713     30711     30709     30712     30714
     30711     30709     30712     30715     30712     30715     30718     30719
     30712     30715     30718     30720     30712     30715     30718     30721
     30713     30712     30715     30716     30713     30712     30715     30717
     30713     30712     30715     30718     30714     30712     30715     30716
     30714     30712     30715     30717     30714     30712     30715     30718
     30715     30718     30721     30722     30715     30718     30721     30723
     30716     30715     30718     30719     30716     30715     30718     30720
     30716     30715     30718     30721     30717     30715     30718     30719
     30717     30715     30718     30720     30717     30715     30718     30721
     30718     30721     30723     30724     30718     30721     30723     30725
     30719     30718     30721     30722     30719     30718     30721     30723
     30720     30718     30721     30722     30720     30718     30721     30723
     30721     30723     30725     30726     30721     30723     30725     30727
     30721     30723     30725     30728     30722     30721     30723     30724
     30722     30721     30723     30725     30723     30725     30728     30729
     30723     30725     30728     30730     30723     30725     30728     30731
     30724     30723     30725     30726     30724     30723     30725     30727
     30724     30723     30725     30728     30725     30728     30731     30732
     30725     30728     30731     30733     30725     30728     30731     30734
     30726     30725     30728     30729     30726     30725     30728     30730
     30726     30725     30728     30731     30727     30725     30728     30729
     30727     30725     30728     30730     30727     30725     30728     30731
     30728     30731     30734     30735     30728     30731     30734     30736
     30728     30731     30734     30737     30729     30728     30731     30732
     30729     30728     30731     30733     30729     30728     30731     30734
     30730     30728     30731     30732     30730     30728     30731     30733
     30730     30728     30731     30734     30731     30734     30737     30738
     30731     30734     30737     30739     30731     30734     30737     30740
     30732     30731     30734     30735     30732     30731     30734     30736
     30732     30731     30734     30737     30733     30731     30734     30735
     30733     30731     30734     30736     30733     30731     30734     30737
     30734     30737     30740     30741     30734     30737     30740     30742
     30734     30737     30740     30743     30735     30734     30737     30738
     30735     30734     30737     30739     30735     30734     30737     30740
     30736     30734     30737     30738     30736     30734     30737     30739
     30736     30734     30737     30740     30737     30740     30743     30744
     30737     30740     30743     30745     30737     30740     30743     30746
     30738     30737     30740     30741     30738     30737     30740     30742
     30738     30737     30740     30743     30739     30737     30740     30741
     30739     30737     30740     30742     30739     30737     30740     30743
     30740     30743     30746     30747     30740     30743     30746     30748
     30740     30743     30746     30749     30741     30740     30743     30744
     30741     30740     30743     30745     30741     30740     30743     30746
     30742     30740     30743     30744     30742     30740     30743     30745
     30742     30740     30743     30746     30744     30743     30746     30747
     30744     30743     30746     30748     30744     30743     30746     30749
     30745     30743     30746     30747     30745     30743     30746     30748
     30745     30743     30746     30749     30750     30753     30756     30757
     30750     30753     30756     30758     30750     30753     30756     30759
     30751     30750     30753     30754     30751     30750     30753     30755
     30751     30750     30753     30756     30752     30750     30753     30754
     30752     30750     30753     30755     30752     30750     30753     30756
     30753     30756     30759     30760     30753     30756     30759     30761
     30753     30756     30759     30762     30754     30753     30756     30757
     30754     30753     30756     30758     30754     30753     30756     30759
     30755     30753     30756     30757     30755     30753     30756     30758
     30755     30753     30756     30759     30756     30759     30762     30763
     30756     30759     30762     30764     30756     30759     30762     30765
     30757     30756     30759     30760     30757     30756     30759     30761
     30757     30756     30759     30762     30758     30756     30759     30760
     30758     30756     30759     30761     30758     30756     30759     30762
     30759     30762     30765     30766     30759     30762     30765     30767
     30759     30762     30765     30768     30760     30759     30762     30763
     30760     30759     30762     30764     30760     30759     30762     30765
     30761     30759     30762     30763     30761     30759     30762     30764
     30761     30759     30762     30765     30762     30765     30768     30769
     30762     30765     30768     30770     30762     30765     30768     30771
     30763     30762     30765     30766     30763     30762     30765     30767
     30763     30762     30765     30768     30764     30762     30765     30766
     30764     30762     30765     30767     30764     30762     30765     30768
     30765     30768     30771     30772     30765     30768     30771     30773
     30765     30768     30771     30774     30766     30765     30768     30769
     30766     30765     30768     30770     30766     30765     30768     30771
     30767     30765     30768     30769     30767     30765     30768     30770
     30767     30765     30768     30771     30768     30771     30774     30775
     30768     30771     30774     30776     30768     30771     30774     30777
     30769     30768     30771     30772     30769     30768     30771     30773
     30769     30768     30771     30774     30770     30768     30771     30772
     30770     30768     30771     30773     30770     30768     30771     30774
     30771     30774     30777     30778     30771     30774     30777     30779
     30771     30774     30777     30780     30772     30771     30774     30775
     30772     30771     30774     30776     30772     30771     30774     30777
     30773     30771     30774     30775     30773     30771     30774     30776
     30773     30771     30774     30777     30774     30777     30780     30781
     30774     30777     30780     30782     30774     30777     30780     30783
     30775     30774     30777     30778     30775     30774     30777     30779
     30775     30774     30777     30780     30776     30774     30777     30778
     30776     30774     30777     30779     30776     30774     30777     30780
     30777     30780     30783     30784     30777     30780     30783     30785
     30777     30780     30783     30786     30778     30777     30780     30781
     30778     30777     30780     30782     30778     30777     30780     30783
     30779     30777     30780     30781     30779     30777     30780     30782
     30779     30777     30780     30783     30780     30783     30786     30787
     30780     30783     30786     30788     30780     30783     30786     30789
     30781     30780     30783     30784     30781     30780     30783     30785
     30781     30780     30783     30786     30782     30780     30783     30784
     30782     30780     30783     30785     30782     30780     30783     30786
     30783     30786     30789     30790     30783     30786     30789     30791
     30783     30786     30789     30792     30784     30783     30786     30787
     30784     30783     30786     30788     30784     30783     30786     30789
     30785     30783     30786     30787     30785     30783     30786     30788
     30785     30783     30786     30789     30787     30786     30789     30790
     30787     30786     30789     30791     30787     30786     30789     30792
     30788     30786     30789     30790     30788     30786     30789     30791
     30788     30786     30789     30792     30793     30794     30809     30810
     30793     30794     30809     30811     30793     30794     30809     30815
     30794     30793     30797     30798     30794     30793     30797     30799
     30794     30793     30797     30800     30794     30793     30801     30802
     30794     30793     30801     30803     30794     30793     30801     30804
     30794     30793     30805     30806     30794     30793     30805     30807
     30794     30793     30805     30808     30794     30809     30815     30812
     30795     30794     30793     30797     30795     30794     30793     30801
     30795     30794     30793     30805     30795     30794     30809     30810
     30795     30794     30809     30811     30795     30794     30809     30815
     30796     30794     30793     30797     30796     30794     30793     30801
     30796     30794     30793     30805     30796     30794     30809     30810
     30796     30794     30809     30811     30796     30794     30809     30815
     30797     30793     30794     30809     30797     30793     30801     30802
     30797     30793     30801     30803     30797     30793     30801     30804
     30797     30793     30805     30806     30797     30793     30805     30807
     30797     30793     30805     30808     30798     30797     30793     30801
     30798     30797     30793     30805     30799     30797     30793     30801
     30799     30797     30793     30805     30800     30797     30793     30801
     30800     30797     30793     30805     30801     30793     30794     30809
     30801     30793     30805     30806     30801     30793     30805     30807
     30801     30793     30805     30808     30802     30801     30793     30805
     30803     30801     30793     30805     30804     30801     30793     30805
     30805     30793     30794     30809     30809     30815     30812     30813
     30809     30815     30812     30814     30809     30815     30812     30816
     30810     30809     30815     30812     30811     30809     30815     30812
     30812     30816     30817     30818     30812     30816     30817     30819
     30812     30816     30817     30820     30813     30812     30816     30817
     30814     30812     30816     30817     30815     30812     30816     30817
     30816     30817     30820     30821     30816     30817     30820     30822
     30816     30817     30820     30828     30817     30820     30822     30823
     30817     30820     30828     30829     30817     30820     30828     30830
     30817     30820     30828     30831     30818     30817     30820     30821
     30818     30817     30820     30822     30818     30817     30820     30828
     30819     30817     30820     30821     30819     30817     30820     30822
     30819     30817     30820     30828     30820     30822     30823     30824
     30820     30822     30823     30825     30820     30828     30831     30832
     30821     30820     30822     30823     30821     30820     30828     30829
     30821     30820     30828     30830     30821     30820     30828     30831
     30822     30820     30828     30829     30822     30820     30828     30830
     30822     30820     30828     30831     30822     30823     30825     30826
     30822     30823     30825     30827     30822     30823     30825     30837
     30823     30822     30820     30828     30823     30825     30837     30838
     30823     30825     30837     30839     30823     30825     30837     30840
     30824     30823     30825     30826     30824     30823     30825     30827
     30824     30823     30825     30837     30825     30837     30840     30841
     30825     30837     30840     30842     30825     30837     30840     30843
     30826     30825     30837     30838     30826     30825     30837     30839
     30826     30825     30837     30840     30827     30825     30837     30838
     30827     30825     30837     30839     30827     30825     30837     30840
     30828     30831     30832     30833     30828     30831     30832     30834
     30829     30828     30831     30832     30830     30828     30831     30832
     30831     30832     30834     30835     30831     30832     30834     30836
     30831     30832     30834     30884     30832     30834     30884     30885
     30832     30834     30884     30886     30832     30834     30884     30887
     30833     30832     30834     30835     30833     30832     30834     30836
     30833     30832     30834     30884     30834     30884     30887     30888
     30834     30884     30887     30889     30834     30884     30887     30890
     30835     30834     30884     30885     30835     30834     30884     30886
     30835     30834     30884     30887     30836     30834     30884     30885
     30836     30834     30884     30886     30836     30834     30884     30887
     30837     30840     30843     30844     30837     30840     30843     30845
     30837     30840     30843     30846     30838     30837     30840     30841
     30838     30837     30840     30842     30838     30837     30840     30843
     30839     30837     30840     30841     30839     30837     30840     30842
     30839     30837     30840     30843     30840     30843     30846     30847
     30840     30843     30846     30848     30840     30843     30846     30849
     30841     30840     30843     30844     30841     30840     30843     30845
     30841     30840     30843     30846     30842     30840     30843     30844
     30842     30840     30843     30845     30842     30840     30843     30846
     30843     30846     30849     30850     30843     30846     30849     30851
     30843     30846     30849     30852     30844     30843     30846     30847
     30844     30843     30846     30848     30844     30843     30846     30849
     30845     30843     30846     30847     30845     30843     30846     30848
     30845     30843     30846     30849     30846     30849     30852     30853
     30846     30849     30852     30854     30846     30849     30852     30855
     30847     30846     30849     30850     30847     30846     30849     30851
     30847     30846     30849     30852     30848     30846     30849     30850
     30848     30846     30849     30851     30848     30846     30849     30852
     30849     30852     30855     30856     30849     30852     30855     30857
     30850     30849     30852     30853     30850     30849     30852     30854
     30850     30849     30852     30855     30851     30849     30852     30853
     30851     30849     30852     30854     30851     30849     30852     30855
     30852     30855     30857     30858     30852     30855     30857     30859
     30853     30852     30855     30856     30853     30852     30855     30857
     30854     30852     30855     30856     30854     30852     30855     30857
     30855     30857     30859     30860     30855     30857     30859     30861
     30855     30857     30859     30862     30856     30855     30857     30858
     30856     30855     30857     30859     30857     30859     30862     30863
     30857     30859     30862     30864     30857     30859     30862     30865
     30858     30857     30859     30860     30858     30857     30859     30861
     30858     30857     30859     30862     30859     30862     30865     30866
     30859     30862     30865     30867     30859     30862     30865     30868
     30860     30859     30862     30863     30860     30859     30862     30864
     30860     30859     30862     30865     30861     30859     30862     30863
     30861     30859     30862     30864     30861     30859     30862     30865
     30862     30865     30868     30869     30862     30865     30868     30870
     30862     30865     30868     30871     30863     30862     30865     30866
     30863     30862     30865     30867     30863     30862     30865     30868
     30864     30862     30865     30866     30864     30862     30865     30867
     30864     30862     30865     30868     30865     30868     30871     30872
     30865     30868     30871     30873     30865     30868     30871     30874
     30866     30865     30868     30869     30866     30865     30868     30870
     30866     30865     30868     30871     30867     30865     30868     30869
     30867     30865     30868     30870     30867     30865     30868     30871
     30868     30871     30874     30875     30868     30871     30874     30876
     30868     30871     30874     30877     30869     30868     30871     30872
     30869     30868     30871     30873     30869     30868     30871     30874
     30870     30868     30871     30872     30870     30868     30871     30873
     30870     30868     30871     30874     30871     30874     30877     30878
     30871     30874     30877     30879     30871     30874     30877     30880
     30872     30871     30874     30875     30872     30871     30874     30876
     30872     30871     30874     30877     30873     30871     30874     30875
     30873     30871     30874     30876     30873     30871     30874     30877
     30874     30877     30880     30881     30874     30877     30880     30882
     30874     30877     30880     30883     30875     30874     30877     30878
     30875     30874     30877     30879     30875     30874     30877     30880
     30876     30874     30877     30878     30876     30874     30877     30879
     30876     30874     30877     30880     30878     30877     30880     30881
     30878     30877     30880     30882     30878     30877     30880     30883
     30879     30877     30880     30881     30879     30877     30880     30882
     30879     30877     30880     30883     30884     30887     30890     30891
     30884     30887     30890     30892     30884     30887     30890     30893
     30885     30884     30887     30888     30885     30884     30887     30889
     30885     30884     30887     30890     30886     30884     30887     30888
     30886     30884     30887     30889     30886     30884     30887     30890
     30887     30890     30893     30894     30887     30890     30893     30895
     30887     30890     30893     30896     30888     30887     30890     30891
     30888     30887     30890     30892     30888     30887     30890     30893
     30889     30887     30890     30891     30889     30887     30890     30892
     30889     30887     30890     30893     30890     30893     30896     30897
     30890     30893     30896     30898     30890     30893     30896     30899
     30891     30890     30893     30894     30891     30890     30893     30895
     30891     30890     30893     30896     30892     30890     30893     30894
     30892     30890     30893     30895     30892     30890     30893     30896
     30893     30896     30899     30900     30893     30896     30899     30901
     30893     30896     30899     30902     30894     30893     30896     30897
     30894     30893     30896     30898     30894     30893     30896     30899
     30895     30893     30896     30897     30895     30893     30896     30898
     30895     30893     30896     30899     30896     30899     30902     30903
     30896     30899     30902     30904     30896     30899     30902     30905
     30897     30896     30899     30900     30897     30896     30899     30901
     30897     30896     30899     30902     30898     30896     30899     30900
     30898     30896     30899     30901     30898     30896     30899     30902
     30899     30902     30905     30906     30899     30902     30905     30907
     30899     30902     30905     30908     30900     30899     30902     30903
     30900     30899     30902     30904     30900     30899     30902     30905
     30901     30899     30902     30903     30901     30899     30902     30904
     30901     30899     30902     30905     30902     30905     30908     30909
     30902     30905     30908     30910     30902     30905     30908     30911
     30903     30902     30905     30906     30903     30902     30905     30907
     30903     30902     30905     30908     30904     30902     30905     30906
     30904     30902     30905     30907     30904     30902     30905     30908
     30905     30908     30911     30912     30905     30908     30911     30913
     30905     30908     30911     30914     30906     30905     30908     30909
     30906     30905     30908     30910     30906     30905     30908     30911
     30907     30905     30908     30909     30907     30905     30908     30910
     30907     30905     30908     30911     30908     30911     30914     30915
     30908     30911     30914     30916     30908     30911     30914     30917
     30909     30908     30911     30912     30909     30908     30911     30913
     30909     30908     30911     30914     30910     30908     30911     30912
     30910     30908     30911     30913     30910     30908     30911     30914
     30911     30914     30917     30918     30911     30914     30917     30919
     30911     30914     30917     30920     30912     30911     30914     30915
     30912     30911     30914     30916     30912     30911     30914     30917
     30913     30911     30914     30915     30913     30911     30914     30916
     30913     30911     30914     30917     30914     30917     30920     30921
     30914     30917     30920     30922     30914     30917     30920     30923
     30915     30914     30917     30918     30915     30914     30917     30919
     30915     30914     30917     30920     30916     30914     30917     30918
     30916     30914     30917     30919     30916     30914     30917     30920
     30917     30920     30923     30924     30917     30920     30923     30925
     30917     30920     30923     30926     30918     30917     30920     30921
     30918     30917     30920     30922     30918     30917     30920     30923
     30919     30917     30920     30921     30919     30917     30920     30922
     30919     30917     30920     30923     30921     30920     30923     30924
     30921     30920     30923     30925     30921     30920     30923     30926
     30922     30920     30923     30924     30922     30920     30923     30925
     30922     30920     30923     30926     30927     30928     30943     30944
     30927     30928     30943     30945     30927     30928     30943     30949
     30928     30927     30931     30932     30928     30927     30931     30933
     30928     30927     30931     30934     30928     30927     30935     30936
     30928     30927     30935     30937     30928     30927     30935     30938
     30928     30927     30939     30940     30928     30927     30939     30941
     30928     30927     30939     30942     30928     30943     30949     30946
     30929     30928     30927     30931     30929     30928     30927     30935
     30929     30928     30927     30939     30929     30928     30943     30944
     30929     30928     30943     30945     30929     30928     30943     30949
     30930     30928     30927     30931     30930     30928     30927     30935
     30930     30928     30927     30939     30930     30928     30943     30944
     30930     30928     30943     30945     30930     30928     30943     30949
     30931     30927     30928     30943     30931     30927     30935     30936
     30931     30927     30935     30937     30931     30927     30935     30938
     30931     30927     30939     30940     30931     30927     30939     30941
     30931     30927     30939     30942     30932     30931     30927     30935
     30932     30931     30927     30939     30933     30931     30927     30935
     30933     30931     30927     30939     30934     30931     30927     30935
     30934     30931     30927     30939     30935     30927     30928     30943
     30935     30927     30939     30940     30935     30927     30939     30941
     30935     30927     30939     30942     30936     30935     30927     30939
     30937     30935     30927     30939     30938     30935     30927     30939
     30939     30927     30928     30943     30943     30949     30946     30947
     30943     30949     30946     30948     30943     30949     30946     30950
     30944     30943     30949     30946     30945     30943     30949     30946
     30946     30950     30951     30952     30946     30950     30951     30953
     30946     30950     30951     30954     30947     30946     30950     30951
     30948     30946     30950     30951     30949     30946     30950     30951
     30950     30951     30954     30955     30950     30951     30954     30956
     30950     30951     30954     30962     30951     30954     30956     30957
     30951     30954     30962     30963     30951     30954     30962     30964
     30951     30954     30962     30965     30952     30951     30954     30955
     30952     30951     30954     30956     30952     30951     30954     30962
     30953     30951     30954     30955     30953     30951     30954     30956
     30953     30951     30954     30962     30954     30956     30957     30958
     30954     30956     30957     30959     30954     30962     30965     30966
     30955     30954     30956     30957     30955     30954     30962     30963
     30955     30954     30962     30964     30955     30954     30962     30965
     30956     30954     30962     30963     30956     30954     30962     30964
     30956     30954     30962     30965     30956     30957     30959     30960
     30956     30957     30959     30961     30956     30957     30959     30971
     30957     30956     30954     30962     30957     30959     30971     30972
     30957     30959     30971     30973     30957     30959     30971     30974
     30958     30957     30959     30960     30958     30957     30959     30961
     30958     30957     30959     30971     30959     30971     30974     30975
     30959     30971     30974     30976     30959     30971     30974     30977
     30960     30959     30971     30972     30960     30959     30971     30973
     30960     30959     30971     30974     30961     30959     30971     30972
     30961     30959     30971     30973     30961     30959     30971     30974
     30962     30965     30966     30967     30962     30965     30966     30968
     30963     30962     30965     30966     30964     30962     30965     30966
     30965     30966     30968     30969     30965     30966     30968     30970
     30965     30966     30968     31018     30966     30968     31018     31019
     30966     30968     31018     31020     30966     30968     31018     31021
     30967     30966     30968     30969     30967     30966     30968     30970
     30967     30966     30968     31018     30968     31018     31021     31022
     30968     31018     31021     31023     30968     31018     31021     31024
     30969     30968     31018     31019     30969     30968     31018     31020
     30969     30968     31018     31021     30970     30968     31018     31019
     30970     30968     31018     31020     30970     30968     31018     31021
     30971     30974     30977     30978     30971     30974     30977     30979
     30971     30974     30977     30980     30972     30971     30974     30975
     30972     30971     30974     30976     30972     30971     30974     30977
     30973     30971     30974     30975     30973     30971     30974     30976
     30973     30971     30974     30977     30974     30977     30980     30981
     30974     30977     30980     30982     30974     30977     30980     30983
     30975     30974     30977     30978     30975     30974     30977     30979
     30975     30974     30977     30980     30976     30974     30977     30978
     30976     30974     30977     30979     30976     30974     30977     30980
     30977     30980     30983     30984     30977     30980     30983     30985
     30977     30980     30983     30986     30978     30977     30980     30981
     30978     30977     30980     30982     30978     30977     30980     30983
     30979     30977     30980     30981     30979     30977     30980     30982
     30979     30977     30980     30983     30980     30983     30986     30987
     30980     30983     30986     30988     30980     30983     30986     30989
     30981     30980     30983     30984     30981     30980     30983     30985
     30981     30980     30983     30986     30982     30980     30983     30984
     30982     30980     30983     30985     30982     30980     30983     30986
     30983     30986     30989     30990     30983     30986     30989     30991
     30984     30983     30986     30987     30984     30983     30986     30988
     30984     30983     30986     30989     30985     30983     30986     30987
     30985     30983     30986     30988     30985     30983     30986     30989
     30986     30989     30991     30992     30986     30989     30991     30993
     30987     30986     30989     30990     30987     30986     30989     30991
     30988     30986     30989     30990     30988     30986     30989     30991
     30989     30991     30993     30994     30989     30991     30993     30995
     30989     30991     30993     30996     30990     30989     30991     30992
     30990     30989     30991     30993     30991     30993     30996     30997
     30991     30993     30996     30998     30991     30993     30996     30999
     30992     30991     30993     30994     30992     30991     30993     30995
     30992     30991     30993     30996     30993     30996     30999     31000
     30993     30996     30999     31001     30993     30996     30999     31002
     30994     30993     30996     30997     30994     30993     30996     30998
     30994     30993     30996     30999     30995     30993     30996     30997
     30995     30993     30996     30998     30995     30993     30996     30999
     30996     30999     31002     31003     30996     30999     31002     31004
     30996     30999     31002     31005     30997     30996     30999     31000
     30997     30996     30999     31001     30997     30996     30999     31002
     30998     30996     30999     31000     30998     30996     30999     31001
     30998     30996     30999     31002     30999     31002     31005     31006
     30999     31002     31005     31007     30999     31002     31005     31008
     31000     30999     31002     31003     31000     30999     31002     31004
     31000     30999     31002     31005     31001     30999     31002     31003
     31001     30999     31002     31004     31001     30999     31002     31005
     31002     31005     31008     31009     31002     31005     31008     31010
     31002     31005     31008     31011     31003     31002     31005     31006
     31003     31002     31005     31007     31003     31002     31005     31008
     31004     31002     31005     31006     31004     31002     31005     31007
     31004     31002     31005     31008     31005     31008     31011     31012
     31005     31008     31011     31013     31005     31008     31011     31014
     31006     31005     31008     31009     31006     31005     31008     31010
     31006     31005     31008     31011     31007     31005     31008     31009
     31007     31005     31008     31010     31007     31005     31008     31011
     31008     31011     31014     31015     31008     31011     31014     31016
     31008     31011     31014     31017     31009     31008     31011     31012
     31009     31008     31011     31013     31009     31008     31011     31014
     31010     31008     31011     31012     31010     31008     31011     31013
     31010     31008     31011     31014     31012     31011     31014     31015
     31012     31011     31014     31016     31012     31011     31014     31017
     31013     31011     31014     31015     31013     31011     31014     31016
     31013     31011     31014     31017     31018     31021     31024     31025
     31018     31021     31024     31026     31018     31021     31024     31027
     31019     31018     31021     31022     31019     31018     31021     31023
     31019     31018     31021     31024     31020     31018     31021     31022
     31020     31018     31021     31023     31020     31018     31021     31024
     31021     31024     31027     31028     31021     31024     31027     31029
     31021     31024     31027     31030     31022     31021     31024     31025
     31022     31021     31024     31026     31022     31021     31024     31027
     31023     31021     31024     31025     31023     31021     31024     31026
     31023     31021     31024     31027     31024     31027     31030     31031
     31024     31027     31030     31032     31024     31027     31030     31033
     31025     31024     31027     31028     31025     31024     31027     31029
     31025     31024     31027     31030     31026     31024     31027     31028
     31026     31024     31027     31029     31026     31024     31027     31030
     31027     31030     31033     31034     31027     31030     31033     31035
     31027     31030     31033     31036     31028     31027     31030     31031
     31028     31027     31030     31032     31028     31027     31030     31033
     31029     31027     31030     31031     31029     31027     31030     31032
     31029     31027     31030     31033     31030     31033     31036     31037
     31030     31033     31036     31038     31030     31033     31036     31039
     31031     31030     31033     31034     31031     31030     31033     31035
     31031     31030     31033     31036     31032     31030     31033     31034
     31032     31030     31033     31035     31032     31030     31033     31036
     31033     31036     31039     31040     31033     31036     31039     31041
     31033     31036     31039     31042     31034     31033     31036     31037
     31034     31033     31036     31038     31034     31033     31036     31039
     31035     31033     31036     31037     31035     31033     31036     31038
     31035     31033     31036     31039     31036     31039     31042     31043
     31036     31039     31042     31044     31036     31039     31042     31045
     31037     31036     31039     31040     31037     31036     31039     31041
     31037     31036     31039     31042     31038     31036     31039     31040
     31038     31036     31039     31041     31038     31036     31039     31042
     31039     31042     31045     31046     31039     31042     31045     31047
     31039     31042     31045     31048     31040     31039     31042     31043
     31040     31039     31042     31044     31040     31039     31042     31045
     31041     31039     31042     31043     31041     31039     31042     31044
     31041     31039     31042     31045     31042     31045     31048     31049
     31042     31045     31048     31050     31042     31045     31048     31051
     31043     31042     31045     31046     31043     31042     31045     31047
     31043     31042     31045     31048     31044     31042     31045     31046
     31044     31042     31045     31047     31044     31042     31045     31048
     31045     31048     31051     31052     31045     31048     31051     31053
     31045     31048     31051     31054     31046     31045     31048     31049
     31046     31045     31048     31050     31046     31045     31048     31051
     31047     31045     31048     31049     31047     31045     31048     31050
     31047     31045     31048     31051     31048     31051     31054     31055
     31048     31051     31054     31056     31048     31051     31054     31057
     31049     31048     31051     31052     31049     31048     31051     31053
     31049     31048     31051     31054     31050     31048     31051     31052
     31050     31048     31051     31053     31050     31048     31051     31054
     31051     31054     31057     31058     31051     31054     31057     31059
     31051     31054     31057     31060     31052     31051     31054     31055
     31052     31051     31054     31056     31052     31051     31054     31057
     31053     31051     31054     31055     31053     31051     31054     31056
     31053     31051     31054     31057     31055     31054     31057     31058
     31055     31054     31057     31059     31055     31054     31057     31060
     31056     31054     31057     31058     31056     31054     31057     31059
     31056     31054     31057     31060     31061     31062     31077     31078
     31061     31062     31077     31079     31061     31062     31077     31083
     31062     31061     31065     31066     31062     31061     31065     31067
     31062     31061     31065     31068     31062     31061     31069     31070
     31062     31061     31069     31071     31062     31061     31069     31072
     31062     31061     31073     31074     31062     31061     31073     31075
     31062     31061     31073     31076     31062     31077     31083     31080
     31063     31062     31061     31065     31063     31062     31061     31069
     31063     31062     31061     31073     31063     31062     31077     31078
     31063     31062     31077     31079     31063     31062     31077     31083
     31064     31062     31061     31065     31064     31062     31061     31069
     31064     31062     31061     31073     31064     31062     31077     31078
     31064     31062     31077     31079     31064     31062     31077     31083
     31065     31061     31062     31077     31065     31061     31069     31070
     31065     31061     31069     31071     31065     31061     31069     31072
     31065     31061     31073     31074     31065     31061     31073     31075
     31065     31061     31073     31076     31066     31065     31061     31069
     31066     31065     31061     31073     31067     31065     31061     31069
     31067     31065     31061     31073     31068     31065     31061     31069
     31068     31065     31061     31073     31069     31061     31062     31077
     31069     31061     31073     31074     31069     31061     31073     31075
     31069     31061     31073     31076     31070     31069     31061     31073
     31071     31069     31061     31073     31072     31069     31061     31073
     31073     31061     31062     31077     31077     31083     31080     31081
     31077     31083     31080     31082     31077     31083     31080     31084
     31078     31077     31083     31080     31079     31077     31083     31080
     31080     31084     31085     31086     31080     31084     31085     31087
     31080     31084     31085     31088     31081     31080     31084     31085
     31082     31080     31084     31085     31083     31080     31084     31085
     31084     31085     31088     31089     31084     31085     31088     31090
     31084     31085     31088     31096     31085     31088     31090     31091
     31085     31088     31096     31097     31085     31088     31096     31098
     31085     31088     31096     31099     31086     31085     31088     31089
     31086     31085     31088     31090     31086     31085     31088     31096
     31087     31085     31088     31089     31087     31085     31088     31090
     31087     31085     31088     31096     31088     31090     31091     31092
     31088     31090     31091     31093     31088     31096     31099     31100
     31089     31088     31090     31091     31089     31088     31096     31097
     31089     31088     31096     31098     31089     31088     31096     31099
     31090     31088     31096     31097     31090     31088     31096     31098
     31090     31088     31096     31099     31090     31091     31093     31094
     31090     31091     31093     31095     31090     31091     31093     31105
     31091     31090     31088     31096     31091     31093     31105     31106
     31091     31093     31105     31107     31091     31093     31105     31108
     31092     31091     31093     31094     31092     31091     31093     31095
     31092     31091     31093     31105     31093     31105     31108     31109
     31093     31105     31108     31110     31093     31105     31108     31111
     31094     31093     31105     31106     31094     31093     31105     31107
     31094     31093     31105     31108     31095     31093     31105     31106
     31095     31093     31105     31107     31095     31093     31105     31108
     31096     31099     31100     31101     31096     31099     31100     31102
     31097     31096     31099     31100     31098     31096     31099     31100
     31099     31100     31102     31103     31099     31100     31102     31104
     31099     31100     31102     31152     31100     31102     31152     31153
     31100     31102     31152     31154     31100     31102     31152     31155
     31101     31100     31102     31103     31101     31100     31102     31104
     31101     31100     31102     31152     31102     31152     31155     31156
     31102     31152     31155     31157     31102     31152     31155     31158
     31103     31102     31152     31153     31103     31102     31152     31154
     31103     31102     31152     31155     31104     31102     31152     31153
     31104     31102     31152     31154     31104     31102     31152     31155
     31105     31108     31111     31112     31105     31108     31111     31113
     31105     31108     31111     31114     31106     31105     31108     31109
     31106     31105     31108     31110     31106     31105     31108     31111
     31107     31105     31108     31109     31107     31105     31108     31110
     31107     31105     31108     31111     31108     31111     31114     31115
     31108     31111     31114     31116     31108     31111     31114     31117
     31109     31108     31111     31112     31109     31108     31111     31113
     31109     31108     31111     31114     31110     31108     31111     31112
     31110     31108     31111     31113     31110     31108     31111     31114
     31111     31114     31117     31118     31111     31114     31117     31119
     31111     31114     31117     31120     31112     31111     31114     31115
     31112     31111     31114     31116     31112     31111     31114     31117
     31113     31111     31114     31115     31113     31111     31114     31116
     31113     31111     31114     31117     31114     31117     31120     31121
     31114     31117     31120     31122     31114     31117     31120     31123
     31115     31114     31117     31118     31115     31114     31117     31119
     31115     31114     31117     31120     31116     31114     31117     31118
     31116     31114     31117     31119     31116     31114     31117     31120
     31117     31120     31123     31124     31117     31120     31123     31125
     31118     31117     31120     31121     31118     31117     31120     31122
     31118     31117     31120     31123     31119     31117     31120     31121
     31119     31117     31120     31122     31119     31117     31120     31123
     31120     31123     31125     31126     31120     31123     31125     31127
     31121     31120     31123     31124     31121     31120     31123     31125
     31122     31120     31123     31124     31122     31120     31123     31125
     31123     31125     31127     31128     31123     31125     31127     31129
     31123     31125     31127     31130     31124     31123     31125     31126
     31124     31123     31125     31127     31125     31127     31130     31131
     31125     31127     31130     31132     31125     31127     31130     31133
     31126     31125     31127     31128     31126     31125     31127     31129
     31126     31125     31127     31130     31127     31130     31133     31134
     31127     31130     31133     31135     31127     31130     31133     31136
     31128     31127     31130     31131     31128     31127     31130     31132
     31128     31127     31130     31133     31129     31127     31130     31131
     31129     31127     31130     31132     31129     31127     31130     31133
     31130     31133     31136     31137     31130     31133     31136     31138
     31130     31133     31136     31139     31131     31130     31133     31134
     31131     31130     31133     31135     31131     31130     31133     31136
     31132     31130     31133     31134     31132     31130     31133     31135
     31132     31130     31133     31136     31133     31136     31139     31140
     31133     31136     31139     31141     31133     31136     31139     31142
     31134     31133     31136     31137     31134     31133     31136     31138
     31134     31133     31136     31139     31135     31133     31136     31137
     31135     31133     31136     31138     31135     31133     31136     31139
     31136     31139     31142     31143     31136     31139     31142     31144
     31136     31139     31142     31145     31137     31136     31139     31140
     31137     31136     31139     31141     31137     31136     31139     31142
     31138     31136     31139     31140     31138     31136     31139     31141
     31138     31136     31139     31142     31139     31142     31145     31146
     31139     31142     31145     31147     31139     31142     31145     31148
     31140     31139     31142     31143     31140     31139     31142     31144
     31140     31139     31142     31145     31141     31139     31142     31143
     31141     31139     31142     31144     31141     31139     31142     31145
     31142     31145     31148     31149     31142     31145     31148     31150
     31142     31145     31148     31151     31143     31142     31145     31146
     31143     31142     31145     31147     31143     31142     31145     31148
     31144     31142     31145     31146     31144     31142     31145     31147
     31144     31142     31145     31148     31146     31145     31148     31149
     31146     31145     31148     31150     31146     31145     31148     31151
     31147     31145     31148     31149     31147     31145     31148     31150
     31147     31145     31148     31151     31152     31155     31158     31159
     31152     31155     31158     31160     31152     31155     31158     31161
     31153     31152     31155     31156     31153     31152     31155     31157
     31153     31152     31155     31158     31154     31152     31155     31156
     31154     31152     31155     31157     31154     31152     31155     31158
     31155     31158     31161     31162     31155     31158     31161     31163
     31155     31158     31161     31164     31156     31155     31158     31159
     31156     31155     31158     31160     31156     31155     31158     31161
     31157     31155     31158     31159     31157     31155     31158     31160
     31157     31155     31158     31161     31158     31161     31164     31165
     31158     31161     31164     31166     31158     31161     31164     31167
     31159     31158     31161     31162     31159     31158     31161     31163
     31159     31158     31161     31164     31160     31158     31161     31162
     31160     31158     31161     31163     31160     31158     31161     31164
     31161     31164     31167     31168     31161     31164     31167     31169
     31161     31164     31167     31170     31162     31161     31164     31165
     31162     31161     31164     31166     31162     31161     31164     31167
     31163     31161     31164     31165     31163     31161     31164     31166
     31163     31161     31164     31167     31164     31167     31170     31171
     31164     31167     31170     31172     31164     31167     31170     31173
     31165     31164     31167     31168     31165     31164     31167     31169
     31165     31164     31167     31170     31166     31164     31167     31168
     31166     31164     31167     31169     31166     31164     31167     31170
     31167     31170     31173     31174     31167     31170     31173     31175
     31167     31170     31173     31176     31168     31167     31170     31171
     31168     31167     31170     31172     31168     31167     31170     31173
     31169     31167     31170     31171     31169     31167     31170     31172
     31169     31167     31170     31173     31170     31173     31176     31177
     31170     31173     31176     31178     31170     31173     31176     31179
     31171     31170     31173     31174     31171     31170     31173     31175
     31171     31170     31173     31176     31172     31170     31173     31174
     31172     31170     31173     31175     31172     31170     31173     31176
     31173     31176     31179     31180     31173     31176     31179     31181
     31173     31176     31179     31182     31174     31173     31176     31177
     31174     31173     31176     31178     31174     31173     31176     31179
     31175     31173     31176     31177     31175     31173     31176     31178
     31175     31173     31176     31179     31176     31179     31182     31183
     31176     31179     31182     31184     31176     31179     31182     31185
     31177     31176     31179     31180     31177     31176     31179     31181
     31177     31176     31179     31182     31178     31176     31179     31180
     31178     31176     31179     31181     31178     31176     31179     31182
     31179     31182     31185     31186     31179     31182     31185     31187
     31179     31182     31185     31188     31180     31179     31182     31183
     31180     31179     31182     31184     31180     31179     31182     31185
     31181     31179     31182     31183     31181     31179     31182     31184
     31181     31179     31182     31185     31182     31185     31188     31189
     31182     31185     31188     31190     31182     31185     31188     31191
     31183     31182     31185     31186     31183     31182     31185     31187
     31183     31182     31185     31188     31184     31182     31185     31186
     31184     31182     31185     31187     31184     31182     31185     31188
     31185     31188     31191     31192     31185     31188     31191     31193
     31185     31188     31191     31194     31186     31185     31188     31189
     31186     31185     31188     31190     31186     31185     31188     31191
     31187     31185     31188     31189     31187     31185     31188     31190
     31187     31185     31188     31191     31189     31188     31191     31192
     31189     31188     31191     31193     31189     31188     31191     31194
     31190     31188     31191     31192     31190     31188     31191     31193
     31190     31188     31191     31194     31195     31196     31211     31212
     31195     31196     31211     31213     31195     31196     31211     31217
     31196     31195     31199     31200     31196     31195     31199     31201
     31196     31195     31199     31202     31196     31195     31203     31204
     31196     31195     31203     31205     31196     31195     31203     31206
     31196     31195     31207     31208     31196     31195     31207     31209
     31196     31195     31207     31210     31196     31211     31217     31214
     31197     31196     31195     31199     31197     31196     31195     31203
     31197     31196     31195     31207     31197     31196     31211     31212
     31197     31196     31211     31213     31197     31196     31211     31217
     31198     31196     31195     31199     31198     31196     31195     31203
     31198     31196     31195     31207     31198     31196     31211     31212
     31198     31196     31211     31213     31198     31196     31211     31217
     31199     31195     31196     31211     31199     31195     31203     31204
     31199     31195     31203     31205     31199     31195     31203     31206
     31199     31195     31207     31208     31199     31195     31207     31209
     31199     31195     31207     31210     31200     31199     31195     31203
     31200     31199     31195     31207     31201     31199     31195     31203
     31201     31199     31195     31207     31202     31199     31195     31203
     31202     31199     31195     31207     31203     31195     31196     31211
     31203     31195     31207     31208     31203     31195     31207     31209
     31203     31195     31207     31210     31204     31203     31195     31207
     31205     31203     31195     31207     31206     31203     31195     31207
     31207     31195     31196     31211     31211     31217     31214     31215
     31211     31217     31214     31216     31211     31217     31214     31218
     31212     31211     31217     31214     31213     31211     31217     31214
     31214     31218     31219     31220     31214     31218     31219     31221
     31214     31218     31219     31222     31215     31214     31218     31219
     31216     31214     31218     31219     31217     31214     31218     31219
     31218     31219     31222     31223     31218     31219     31222     31224
     31218     31219     31222     31230     31219     31222     31224     31225
     31219     31222     31230     31231     31219     31222     31230     31232
     31219     31222     31230     31233     31220     31219     31222     31223
     31220     31219     31222     31224     31220     31219     31222     31230
     31221     31219     31222     31223     31221     31219     31222     31224
     31221     31219     31222     31230     31222     31224     31225     31226
     31222     31224     31225     31227     31222     31230     31233     31234
     31223     31222     31224     31225     31223     31222     31230     31231
     31223     31222     31230     31232     31223     31222     31230     31233
     31224     31222     31230     31231     31224     31222     31230     31232
     31224     31222     31230     31233     31224     31225     31227     31228
     31224     31225     31227     31229     31224     31225     31227     31239
     31225     31224     31222     31230     31225     31227     31239     31240
     31225     31227     31239     31241     31225     31227     31239     31242
     31226     31225     31227     31228     31226     31225     31227     31229
     31226     31225     31227     31239     31227     31239     31242     31243
     31227     31239     31242     31244     31227     31239     31242     31245
     31228     31227     31239     31240     31228     31227     31239     31241
     31228     31227     31239     31242     31229     31227     31239     31240
     31229     31227     31239     31241     31229     31227     31239     31242
     31230     31233     31234     31235     31230     31233     31234     31236
     31231     31230     31233     31234     31232     31230     31233     31234
     31233     31234     31236     31237     31233     31234     31236     31238
     31233     31234     31236     31286     31234     31236     31286     31287
     31234     31236     31286     31288     31234     31236     31286     31289
     31235     31234     31236     31237     31235     31234     31236     31238
     31235     31234     31236     31286     31236     31286     31289     31290
     31236     31286     31289     31291     31236     31286     31289     31292
     31237     31236     31286     31287     31237     31236     31286     31288
     31237     31236     31286     31289     31238     31236     31286     31287
     31238     31236     31286     31288     31238     31236     31286     31289
     31239     31242     31245     31246     31239     31242     31245     31247
     31239     31242     31245     31248     31240     31239     31242     31243
     31240     31239     31242     31244     31240     31239     31242     31245
     31241     31239     31242     31243     31241     31239     31242     31244
     31241     31239     31242     31245     31242     31245     31248     31249
     31242     31245     31248     31250     31242     31245     31248     31251
     31243     31242     31245     31246     31243     31242     31245     31247
     31243     31242     31245     31248     31244     31242     31245     31246
     31244     31242     31245     31247     31244     31242     31245     31248
     31245     31248     31251     31252     31245     31248     31251     31253
     31245     31248     31251     31254     31246     31245     31248     31249
     31246     31245     31248     31250     31246     31245     31248     31251
     31247     31245     31248     31249     31247     31245     31248     31250
     31247     31245     31248     31251     31248     31251     31254     31255
     31248     31251     31254     31256     31248     31251     31254     31257
     31249     31248     31251     31252     31249     31248     31251     31253
     31249     31248     31251     31254     31250     31248     31251     31252
     31250     31248     31251     31253     31250     31248     31251     31254
     31251     31254     31257     31258     31251     31254     31257     31259
     31252     31251     31254     31255     31252     31251     31254     31256
     31252     31251     31254     31257     31253     31251     31254     31255
     31253     31251     31254     31256     31253     31251     31254     31257
     31254     31257     31259     31260     31254     31257     31259     31261
     31255     31254     31257     31258     31255     31254     31257     31259
     31256     31254     31257     31258     31256     31254     31257     31259
     31257     31259     31261     31262     31257     31259     31261     31263
     31257     31259     31261     31264     31258     31257     31259     31260
     31258     31257     31259     31261     31259     31261     31264     31265
     31259     31261     31264     31266     31259     31261     31264     31267
     31260     31259     31261     31262     31260     31259     31261     31263
     31260     31259     31261     31264     31261     31264     31267     31268
     31261     31264     31267     31269     31261     31264     31267     31270
     31262     31261     31264     31265     31262     31261     31264     31266
     31262     31261     31264     31267     31263     31261     31264     31265
     31263     31261     31264     31266     31263     31261     31264     31267
     31264     31267     31270     31271     31264     31267     31270     31272
     31264     31267     31270     31273     31265     31264     31267     31268
     31265     31264     31267     31269     31265     31264     31267     31270
     31266     31264     31267     31268     31266     31264     31267     31269
     31266     31264     31267     31270     31267     31270     31273     31274
     31267     31270     31273     31275     31267     31270     31273     31276
     31268     31267     31270     31271     31268     31267     31270     31272
     31268     31267     31270     31273     31269     31267     31270     31271
     31269     31267     31270     31272     31269     31267     31270     31273
     31270     31273     31276     31277     31270     31273     31276     31278
     31270     31273     31276     31279     31271     31270     31273     31274
     31271     31270     31273     31275     31271     31270     31273     31276
     31272     31270     31273     31274     31272     31270     31273     31275
     31272     31270     31273     31276     31273     31276     31279     31280
     31273     31276     31279     31281     31273     31276     31279     31282
     31274     31273     31276     31277     31274     31273     31276     31278
     31274     31273     31276     31279     31275     31273     31276     31277
     31275     31273     31276     31278     31275     31273     31276     31279
     31276     31279     31282     31283     31276     31279     31282     31284
     31276     31279     31282     31285     31277     31276     31279     31280
     31277     31276     31279     31281     31277     31276     31279     31282
     31278     31276     31279     31280     31278     31276     31279     31281
     31278     31276     31279     31282     31280     31279     31282     31283
     31280     31279     31282     31284     31280     31279     31282     31285
     31281     31279     31282     31283     31281     31279     31282     31284
     31281     31279     31282     31285     31286     31289     31292     31293
     31286     31289     31292     31294     31286     31289     31292     31295
     31287     31286     31289     31290     31287     31286     31289     31291
     31287     31286     31289     31292     31288     31286     31289     31290
     31288     31286     31289     31291     31288     31286     31289     31292
     31289     31292     31295     31296     31289     31292     31295     31297
     31289     31292     31295     31298     31290     31289     31292     31293
     31290     31289     31292     31294     31290     31289     31292     31295
     31291     31289     31292     31293     31291     31289     31292     31294
     31291     31289     31292     31295     31292     31295     31298     31299
     31292     31295     31298     31300     31292     31295     31298     31301
     31293     31292     31295     31296     31293     31292     31295     31297
     31293     31292     31295     31298     31294     31292     31295     31296
     31294     31292     31295     31297     31294     31292     31295     31298
     31295     31298     31301     31302     31295     31298     31301     31303
     31295     31298     31301     31304     31296     31295     31298     31299
     31296     31295     31298     31300     31296     31295     31298     31301
     31297     31295     31298     31299     31297     31295     31298     31300
     31297     31295     31298     31301     31298     31301     31304     31305
     31298     31301     31304     31306     31298     31301     31304     31307
     31299     31298     31301     31302     31299     31298     31301     31303
     31299     31298     31301     31304     31300     31298     31301     31302
     31300     31298     31301     31303     31300     31298     31301     31304
     31301     31304     31307     31308     31301     31304     31307     31309
     31301     31304     31307     31310     31302     31301     31304     31305
     31302     31301     31304     31306     31302     31301     31304     31307
     31303     31301     31304     31305     31303     31301     31304     31306
     31303     31301     31304     31307     31304     31307     31310     31311
     31304     31307     31310     31312     31304     31307     31310     31313
     31305     31304     31307     31308     31305     31304     31307     31309
     31305     31304     31307     31310     31306     31304     31307     31308
     31306     31304     31307     31309     31306     31304     31307     31310
     31307     31310     31313     31314     31307     31310     31313     31315
     31307     31310     31313     31316     31308     31307     31310     31311
     31308     31307     31310     31312     31308     31307     31310     31313
     31309     31307     31310     31311     31309     31307     31310     31312
     31309     31307     31310     31313     31310     31313     31316     31317
     31310     31313     31316     31318     31310     31313     31316     31319
     31311     31310     31313     31314     31311     31310     31313     31315
     31311     31310     31313     31316     31312     31310     31313     31314
     31312     31310     31313     31315     31312     31310     31313     31316
     31313     31316     31319     31320     31313     31316     31319     31321
     31313     31316     31319     31322     31314     31313     31316     31317
     31314     31313     31316     31318     31314     31313     31316     31319
     31315     31313     31316     31317     31315     31313     31316     31318
     31315     31313     31316     31319     31316     31319     31322     31323
     31316     31319     31322     31324     31316     31319     31322     31325
     31317     31316     31319     31320     31317     31316     31319     31321
     31317     31316     31319     31322     31318     31316     31319     31320
     31318     31316     31319     31321     31318     31316     31319     31322
     31319     31322     31325     31326     31319     31322     31325     31327
     31319     31322     31325     31328     31320     31319     31322     31323
     31320     31319     31322     31324     31320     31319     31322     31325
     31321     31319     31322     31323     31321     31319     31322     31324
     31321     31319     31322     31325     31323     31322     31325     31326
     31323     31322     31325     31327     31323     31322     31325     31328
     31324     31322     31325     31326     31324     31322     31325     31327
     31324     31322     31325     31328     31329     31330     31345     31346
     31329     31330     31345     31347     31329     31330     31345     31351
     31330     31329     31333     31334     31330     31329     31333     31335
     31330     31329     31333     31336     31330     31329     31337     31338
     31330     31329     31337     31339     31330     31329     31337     31340
     31330     31329     31341     31342     31330     31329     31341     31343
     31330     31329     31341     31344     31330     31345     31351     31348
     31331     31330     31329     31333     31331     31330     31329     31337
     31331     31330     31329     31341     31331     31330     31345     31346
     31331     31330     31345     31347     31331     31330     31345     31351
     31332     31330     31329     31333     31332     31330     31329     31337
     31332     31330     31329     31341     31332     31330     31345     31346
     31332     31330     31345     31347     31332     31330     31345     31351
     31333     31329     31330     31345     31333     31329     31337     31338
     31333     31329     31337     31339     31333     31329     31337     31340
     31333     31329     31341     31342     31333     31329     31341     31343
     31333     31329     31341     31344     31334     31333     31329     31337
     31334     31333     31329     31341     31335     31333     31329     31337
     31335     31333     31329     31341     31336     31333     31329     31337
     31336     31333     31329     31341     31337     31329     31330     31345
     31337     31329     31341     31342     31337     31329     31341     31343
     31337     31329     31341     31344     31338     31337     31329     31341
     31339     31337     31329     31341     31340     31337     31329     31341
     31341     31329     31330     31345     31345     31351     31348     31349
     31345     31351     31348     31350     31345     31351     31348     31352
     31346     31345     31351     31348     31347     31345     31351     31348
     31348     31352     31353     31354     31348     31352     31353     31355
     31348     31352     31353     31356     31349     31348     31352     31353
     31350     31348     31352     31353     31351     31348     31352     31353
     31352     31353     31356     31357     31352     31353     31356     31358
     31352     31353     31356     31364     31353     31356     31358     31359
     31353     31356     31364     31365     31353     31356     31364     31366
     31353     31356     31364     31367     31354     31353     31356     31357
     31354     31353     31356     31358     31354     31353     31356     31364
     31355     31353     31356     31357     31355     31353     31356     31358
     31355     31353     31356     31364     31356     31358     31359     31360
     31356     31358     31359     31361     31356     31364     31367     31368
     31357     31356     31358     31359     31357     31356     31364     31365
     31357     31356     31364     31366     31357     31356     31364     31367
     31358     31356     31364     31365     31358     31356     31364     31366
     31358     31356     31364     31367     31358     31359     31361     31362
     31358     31359     31361     31363     31358     31359     31361     31373
     31359     31358     31356     31364     31359     31361     31373     31374
     31359     31361     31373     31375     31359     31361     31373     31376
     31360     31359     31361     31362     31360     31359     31361     31363
     31360     31359     31361     31373     31361     31373     31376     31377
     31361     31373     31376     31378     31361     31373     31376     31379
     31362     31361     31373     31374     31362     31361     31373     31375
     31362     31361     31373     31376     31363     31361     31373     31374
     31363     31361     31373     31375     31363     31361     31373     31376
     31364     31367     31368     31369     31364     31367     31368     31370
     31365     31364     31367     31368     31366     31364     31367     31368
     31367     31368     31370     31371     31367     31368     31370     31372
     31367     31368     31370     31420     31368     31370     31420     31421
     31368     31370     31420     31422     31368     31370     31420     31423
     31369     31368     31370     31371     31369     31368     31370     31372
     31369     31368     31370     31420     31370     31420     31423     31424
     31370     31420     31423     31425     31370     31420     31423     31426
     31371     31370     31420     31421     31371     31370     31420     31422
     31371     31370     31420     31423     31372     31370     31420     31421
     31372     31370     31420     31422     31372     31370     31420     31423
     31373     31376     31379     31380     31373     31376     31379     31381
     31373     31376     31379     31382     31374     31373     31376     31377
     31374     31373     31376     31378     31374     31373     31376     31379
     31375     31373     31376     31377     31375     31373     31376     31378
     31375     31373     31376     31379     31376     31379     31382     31383
     31376     31379     31382     31384     31376     31379     31382     31385
     31377     31376     31379     31380     31377     31376     31379     31381
     31377     31376     31379     31382     31378     31376     31379     31380
     31378     31376     31379     31381     31378     31376     31379     31382
     31379     31382     31385     31386     31379     31382     31385     31387
     31379     31382     31385     31388     31380     31379     31382     31383
     31380     31379     31382     31384     31380     31379     31382     31385
     31381     31379     31382     31383     31381     31379     31382     31384
     31381     31379     31382     31385     31382     31385     31388     31389
     31382     31385     31388     31390     31382     31385     31388     31391
     31383     31382     31385     31386     31383     31382     31385     31387
     31383     31382     31385     31388     31384     31382     31385     31386
     31384     31382     31385     31387     31384     31382     31385     31388
     31385     31388     31391     31392     31385     31388     31391     31393
     31386     31385     31388     31389     31386     31385     31388     31390
     31386     31385     31388     31391     31387     31385     31388     31389
     31387     31385     31388     31390     31387     31385     31388     31391
     31388     31391     31393     31394     31388     31391     31393     31395
     31389     31388     31391     31392     31389     31388     31391     31393
     31390     31388     31391     31392     31390     31388     31391     31393
     31391     31393     31395     31396     31391     31393     31395     31397
     31391     31393     31395     31398     31392     31391     31393     31394
     31392     31391     31393     31395     31393     31395     31398     31399
     31393     31395     31398     31400     31393     31395     31398     31401
     31394     31393     31395     31396     31394     31393     31395     31397
     31394     31393     31395     31398     31395     31398     31401     31402
     31395     31398     31401     31403     31395     31398     31401     31404
     31396     31395     31398     31399     31396     31395     31398     31400
     31396     31395     31398     31401     31397     31395     31398     31399
     31397     31395     31398     31400     31397     31395     31398     31401
     31398     31401     31404     31405     31398     31401     31404     31406
     31398     31401     31404     31407     31399     31398     31401     31402
     31399     31398     31401     31403     31399     31398     31401     31404
     31400     31398     31401     31402     31400     31398     31401     31403
     31400     31398     31401     31404     31401     31404     31407     31408
     31401     31404     31407     31409     31401     31404     31407     31410
     31402     31401     31404     31405     31402     31401     31404     31406
     31402     31401     31404     31407     31403     31401     31404     31405
     31403     31401     31404     31406     31403     31401     31404     31407
     31404     31407     31410     31411     31404     31407     31410     31412
     31404     31407     31410     31413     31405     31404     31407     31408
     31405     31404     31407     31409     31405     31404     31407     31410
     31406     31404     31407     31408     31406     31404     31407     31409
     31406     31404     31407     31410     31407     31410     31413     31414
     31407     31410     31413     31415     31407     31410     31413     31416
     31408     31407     31410     31411     31408     31407     31410     31412
     31408     31407     31410     31413     31409     31407     31410     31411
     31409     31407     31410     31412     31409     31407     31410     31413
     31410     31413     31416     31417     31410     31413     31416     31418
     31410     31413     31416     31419     31411     31410     31413     31414
     31411     31410     31413     31415     31411     31410     31413     31416
     31412     31410     31413     31414     31412     31410     31413     31415
     31412     31410     31413     31416     31414     31413     31416     31417
     31414     31413     31416     31418     31414     31413     31416     31419
     31415     31413     31416     31417     31415     31413     31416     31418
     31415     31413     31416     31419     31420     31423     31426     31427
     31420     31423     31426     31428     31420     31423     31426     31429
     31421     31420     31423     31424     31421     31420     31423     31425
     31421     31420     31423     31426     31422     31420     31423     31424
     31422     31420     31423     31425     31422     31420     31423     31426
     31423     31426     31429     31430     31423     31426     31429     31431
     31423     31426     31429     31432     31424     31423     31426     31427
     31424     31423     31426     31428     31424     31423     31426     31429
     31425     31423     31426     31427     31425     31423     31426     31428
     31425     31423     31426     31429     31426     31429     31432     31433
     31426     31429     31432     31434     31426     31429     31432     31435
     31427     31426     31429     31430     31427     31426     31429     31431
     31427     31426     31429     31432     31428     31426     31429     31430
     31428     31426     31429     31431     31428     31426     31429     31432
     31429     31432     31435     31436     31429     31432     31435     31437
     31429     31432     31435     31438     31430     31429     31432     31433
     31430     31429     31432     31434     31430     31429     31432     31435
     31431     31429     31432     31433     31431     31429     31432     31434
     31431     31429     31432     31435     31432     31435     31438     31439
     31432     31435     31438     31440     31432     31435     31438     31441
     31433     31432     31435     31436     31433     31432     31435     31437
     31433     31432     31435     31438     31434     31432     31435     31436
     31434     31432     31435     31437     31434     31432     31435     31438
     31435     31438     31441     31442     31435     31438     31441     31443
     31435     31438     31441     31444     31436     31435     31438     31439
     31436     31435     31438     31440     31436     31435     31438     31441
     31437     31435     31438     31439     31437     31435     31438     31440
     31437     31435     31438     31441     31438     31441     31444     31445
     31438     31441     31444     31446     31438     31441     31444     31447
     31439     31438     31441     31442     31439     31438     31441     31443
     31439     31438     31441     31444     31440     31438     31441     31442
     31440     31438     31441     31443     31440     31438     31441     31444
     31441     31444     31447     31448     31441     31444     31447     31449
     31441     31444     31447     31450     31442     31441     31444     31445
     31442     31441     31444     31446     31442     31441     31444     31447
     31443     31441     31444     31445     31443     31441     31444     31446
     31443     31441     31444     31447     31444     31447     31450     31451
     31444     31447     31450     31452     31444     31447     31450     31453
     31445     31444     31447     31448     31445     31444     31447     31449
     31445     31444     31447     31450     31446     31444     31447     31448
     31446     31444     31447     31449     31446     31444     31447     31450
     31447     31450     31453     31454     31447     31450     31453     31455
     31447     31450     31453     31456     31448     31447     31450     31451
     31448     31447     31450     31452     31448     31447     31450     31453
     31449     31447     31450     31451     31449     31447     31450     31452
     31449     31447     31450     31453     31450     31453     31456     31457
     31450     31453     31456     31458     31450     31453     31456     31459
     31451     31450     31453     31454     31451     31450     31453     31455
     31451     31450     31453     31456     31452     31450     31453     31454
     31452     31450     31453     31455     31452     31450     31453     31456
     31453     31456     31459     31460     31453     31456     31459     31461
     31453     31456     31459     31462     31454     31453     31456     31457
     31454     31453     31456     31458     31454     31453     31456     31459
     31455     31453     31456     31457     31455     31453     31456     31458
     31455     31453     31456     31459     31457     31456     31459     31460
     31457     31456     31459     31461     31457     31456     31459     31462
     31458     31456     31459     31460     31458     31456     31459     31461
     31458     31456     31459     31462     31463     31464     31479     31480
     31463     31464     31479     31481     31463     31464     31479     31485
     31464     31463     31467     31468     31464     31463     31467     31469
     31464     31463     31467     31470     31464     31463     31471     31472
     31464     31463     31471     31473     31464     31463     31471     31474
     31464     31463     31475     31476     31464     31463     31475     31477
     31464     31463     31475     31478     31464     31479     31485     31482
     31465     31464     31463     31467     31465     31464     31463     31471
     31465     31464     31463     31475     31465     31464     31479     31480
     31465     31464     31479     31481     31465     31464     31479     31485
     31466     31464     31463     31467     31466     31464     31463     31471
     31466     31464     31463     31475     31466     31464     31479     31480
     31466     31464     31479     31481     31466     31464     31479     31485
     31467     31463     31464     31479     31467     31463     31471     31472
     31467     31463     31471     31473     31467     31463     31471     31474
     31467     31463     31475     31476     31467     31463     31475     31477
     31467     31463     31475     31478     31468     31467     31463     31471
     31468     31467     31463     31475     31469     31467     31463     31471
     31469     31467     31463     31475     31470     31467     31463     31471
     31470     31467     31463     31475     31471     31463     31464     31479
     31471     31463     31475     31476     31471     31463     31475     31477
     31471     31463     31475     31478     31472     31471     31463     31475
     31473     31471     31463     31475     31474     31471     31463     31475
     31475     31463     31464     31479     31479     31485     31482     31483
     31479     31485     31482     31484     31479     31485     31482     31486
     31480     31479     31485     31482     31481     31479     31485     31482
     31482     31486     31487     31488     31482     31486     31487     31489
     31482     31486     31487     31490     31483     31482     31486     31487
     31484     31482     31486     31487     31485     31482     31486     31487
     31486     31487     31490     31491     31486     31487     31490     31492
     31486     31487     31490     31498     31487     31490     31492     31493
     31487     31490     31498     31499     31487     31490     31498     31500
     31487     31490     31498     31501     31488     31487     31490     31491
     31488     31487     31490     31492     31488     31487     31490     31498
     31489     31487     31490     31491     31489     31487     31490     31492
     31489     31487     31490     31498     31490     31492     31493     31494
     31490     31492     31493     31495     31490     31498     31501     31502
     31491     31490     31492     31493     31491     31490     31498     31499
     31491     31490     31498     31500     31491     31490     31498     31501
     31492     31490     31498     31499     31492     31490     31498     31500
     31492     31490     31498     31501     31492     31493     31495     31496
     31492     31493     31495     31497     31492     31493     31495     31507
     31493     31492     31490     31498     31493     31495     31507     31508
     31493     31495     31507     31509     31493     31495     31507     31510
     31494     31493     31495     31496     31494     31493     31495     31497
     31494     31493     31495     31507     31495     31507     31510     31511
     31495     31507     31510     31512     31495     31507     31510     31513
     31496     31495     31507     31508     31496     31495     31507     31509
     31496     31495     31507     31510     31497     31495     31507     31508
     31497     31495     31507     31509     31497     31495     31507     31510
     31498     31501     31502     31503     31498     31501     31502     31504
     31499     31498     31501     31502     31500     31498     31501     31502
     31501     31502     31504     31505     31501     31502     31504     31506
     31501     31502     31504     31554     31502     31504     31554     31555
     31502     31504     31554     31556     31502     31504     31554     31557
     31503     31502     31504     31505     31503     31502     31504     31506
     31503     31502     31504     31554     31504     31554     31557     31558
     31504     31554     31557     31559     31504     31554     31557     31560
     31505     31504     31554     31555     31505     31504     31554     31556
     31505     31504     31554     31557     31506     31504     31554     31555
     31506     31504     31554     31556     31506     31504     31554     31557
     31507     31510     31513     31514     31507     31510     31513     31515
     31507     31510     31513     31516     31508     31507     31510     31511
     31508     31507     31510     31512     31508     31507     31510     31513
     31509     31507     31510     31511     31509     31507     31510     31512
     31509     31507     31510     31513     31510     31513     31516     31517
     31510     31513     31516     31518     31510     31513     31516     31519
     31511     31510     31513     31514     31511     31510     31513     31515
     31511     31510     31513     31516     31512     31510     31513     31514
     31512     31510     31513     31515     31512     31510     31513     31516
     31513     31516     31519     31520     31513     31516     31519     31521
     31513     31516     31519     31522     31514     31513     31516     31517
     31514     31513     31516     31518     31514     31513     31516     31519
     31515     31513     31516     31517     31515     31513     31516     31518
     31515     31513     31516     31519     31516     31519     31522     31523
     31516     31519     31522     31524     31516     31519     31522     31525
     31517     31516     31519     31520     31517     31516     31519     31521
     31517     31516     31519     31522     31518     31516     31519     31520
     31518     31516     31519     31521     31518     31516     31519     31522
     31519     31522     31525     31526     31519     31522     31525     31527
     31520     31519     31522     31523     31520     31519     31522     31524
     31520     31519     31522     31525     31521     31519     31522     31523
     31521     31519     31522     31524     31521     31519     31522     31525
     31522     31525     31527     31528     31522     31525     31527     31529
     31523     31522     31525     31526     31523     31522     31525     31527
     31524     31522     31525     31526     31524     31522     31525     31527
     31525     31527     31529     31530     31525     31527     31529     31531
     31525     31527     31529     31532     31526     31525     31527     31528
     31526     31525     31527     31529     31527     31529     31532     31533
     31527     31529     31532     31534     31527     31529     31532     31535
     31528     31527     31529     31530     31528     31527     31529     31531
     31528     31527     31529     31532     31529     31532     31535     31536
     31529     31532     31535     31537     31529     31532     31535     31538
     31530     31529     31532     31533     31530     31529     31532     31534
     31530     31529     31532     31535     31531     31529     31532     31533
     31531     31529     31532     31534     31531     31529     31532     31535
     31532     31535     31538     31539     31532     31535     31538     31540
     31532     31535     31538     31541     31533     31532     31535     31536
     31533     31532     31535     31537     31533     31532     31535     31538
     31534     31532     31535     31536     31534     31532     31535     31537
     31534     31532     31535     31538     31535     31538     31541     31542
     31535     31538     31541     31543     31535     31538     31541     31544
     31536     31535     31538     31539     31536     31535     31538     31540
     31536     31535     31538     31541     31537     31535     31538     31539
     31537     31535     31538     31540     31537     31535     31538     31541
     31538     31541     31544     31545     31538     31541     31544     31546
     31538     31541     31544     31547     31539     31538     31541     31542
     31539     31538     31541     31543     31539     31538     31541     31544
     31540     31538     31541     31542     31540     31538     31541     31543
     31540     31538     31541     31544     31541     31544     31547     31548
     31541     31544     31547     31549     31541     31544     31547     31550
     31542     31541     31544     31545     31542     31541     31544     31546
     31542     31541     31544     31547     31543     31541     31544     31545
     31543     31541     31544     31546     31543     31541     31544     31547
     31544     31547     31550     31551     31544     31547     31550     31552
     31544     31547     31550     31553     31545     31544     31547     31548
     31545     31544     31547     31549     31545     31544     31547     31550
     31546     31544     31547     31548     31546     31544     31547     31549
     31546     31544     31547     31550     31548     31547     31550     31551
     31548     31547     31550     31552     31548     31547     31550     31553
     31549     31547     31550     31551     31549     31547     31550     31552
     31549     31547     31550     31553     31554     31557     31560     31561
     31554     31557     31560     31562     31554     31557     31560     31563
     31555     31554     31557     31558     31555     31554     31557     31559
     31555     31554     31557     31560     31556     31554     31557     31558
     31556     31554     31557     31559     31556     31554     31557     31560
     31557     31560     31563     31564     31557     31560     31563     31565
     31557     31560     31563     31566     31558     31557     31560     31561
     31558     31557     31560     31562     31558     31557     31560     31563
     31559     31557     31560     31561     31559     31557     31560     31562
     31559     31557     31560     31563     31560     31563     31566     31567
     31560     31563     31566     31568     31560     31563     31566     31569
     31561     31560     31563     31564     31561     31560     31563     31565
     31561     31560     31563     31566     31562     31560     31563     31564
     31562     31560     31563     31565     31562     31560     31563     31566
     31563     31566     31569     31570     31563     31566     31569     31571
     31563     31566     31569     31572     31564     31563     31566     31567
     31564     31563     31566     31568     31564     31563     31566     31569
     31565     31563     31566     31567     31565     31563     31566     31568
     31565     31563     31566     31569     31566     31569     31572     31573
     31566     31569     31572     31574     31566     31569     31572     31575
     31567     31566     31569     31570     31567     31566     31569     31571
     31567     31566     31569     31572     31568     31566     31569     31570
     31568     31566     31569     31571     31568     31566     31569     31572
     31569     31572     31575     31576     31569     31572     31575     31577
     31569     31572     31575     31578     31570     31569     31572     31573
     31570     31569     31572     31574     31570     31569     31572     31575
     31571     31569     31572     31573     31571     31569     31572     31574
     31571     31569     31572     31575     31572     31575     31578     31579
     31572     31575     31578     31580     31572     31575     31578     31581
     31573     31572     31575     31576     31573     31572     31575     31577
     31573     31572     31575     31578     31574     31572     31575     31576
     31574     31572     31575     31577     31574     31572     31575     31578
     31575     31578     31581     31582     31575     31578     31581     31583
     31575     31578     31581     31584     31576     31575     31578     31579
     31576     31575     31578     31580     31576     31575     31578     31581
     31577     31575     31578     31579     31577     31575     31578     31580
     31577     31575     31578     31581     31578     31581     31584     31585
     31578     31581     31584     31586     31578     31581     31584     31587
     31579     31578     31581     31582     31579     31578     31581     31583
     31579     31578     31581     31584     31580     31578     31581     31582
     31580     31578     31581     31583     31580     31578     31581     31584
     31581     31584     31587     31588     31581     31584     31587     31589
     31581     31584     31587     31590     31582     31581     31584     31585
     31582     31581     31584     31586     31582     31581     31584     31587
     31583     31581     31584     31585     31583     31581     31584     31586
     31583     31581     31584     31587     31584     31587     31590     31591
     31584     31587     31590     31592     31584     31587     31590     31593
     31585     31584     31587     31588     31585     31584     31587     31589
     31585     31584     31587     31590     31586     31584     31587     31588
     31586     31584     31587     31589     31586     31584     31587     31590
     31587     31590     31593     31594     31587     31590     31593     31595
     31587     31590     31593     31596     31588     31587     31590     31591
     31588     31587     31590     31592     31588     31587     31590     31593
     31589     31587     31590     31591     31589     31587     31590     31592
     31589     31587     31590     31593     31591     31590     31593     31594
     31591     31590     31593     31595     31591     31590     31593     31596
     31592     31590     31593     31594     31592     31590     31593     31595
     31592     31590     31593     31596     31597     31598     31613     31614
     31597     31598     31613     31615     31597     31598     31613     31619
     31598     31597     31601     31602     31598     31597     31601     31603
     31598     31597     31601     31604     31598     31597     31605     31606
     31598     31597     31605     31607     31598     31597     31605     31608
     31598     31597     31609     31610     31598     31597     31609     31611
     31598     31597     31609     31612     31598     31613     31619     31616
     31599     31598     31597     31601     31599     31598     31597     31605
     31599     31598     31597     31609     31599     31598     31613     31614
     31599     31598     31613     31615     31599     31598     31613     31619
     31600     31598     31597     31601     31600     31598     31597     31605
     31600     31598     31597     31609     31600     31598     31613     31614
     31600     31598     31613     31615     31600     31598     31613     31619
     31601     31597     31598     31613     31601     31597     31605     31606
     31601     31597     31605     31607     31601     31597     31605     31608
     31601     31597     31609     31610     31601     31597     31609     31611
     31601     31597     31609     31612     31602     31601     31597     31605
     31602     31601     31597     31609     31603     31601     31597     31605
     31603     31601     31597     31609     31604     31601     31597     31605
     31604     31601     31597     31609     31605     31597     31598     31613
     31605     31597     31609     31610     31605     31597     31609     31611
     31605     31597     31609     31612     31606     31605     31597     31609
     31607     31605     31597     31609     31608     31605     31597     31609
     31609     31597     31598     31613     31613     31619     31616     31617
     31613     31619     31616     31618     31613     31619     31616     31620
     31614     31613     31619     31616     31615     31613     31619     31616
     31616     31620     31621     31622     31616     31620     31621     31623
     31616     31620     31621     31624     31617     31616     31620     31621
     31618     31616     31620     31621     31619     31616     31620     31621
     31620     31621     31624     31625     31620     31621     31624     31626
     31620     31621     31624     31632     31621     31624     31626     31627
     31621     31624     31632     31633     31621     31624     31632     31634
     31621     31624     31632     31635     31622     31621     31624     31625
     31622     31621     31624     31626     31622     31621     31624     31632
     31623     31621     31624     31625     31623     31621     31624     31626
     31623     31621     31624     31632     31624     31626     31627     31628
     31624     31626     31627     31629     31624     31632     31635     31636
     31625     31624     31626     31627     31625     31624     31632     31633
     31625     31624     31632     31634     31625     31624     31632     31635
     31626     31624     31632     31633     31626     31624     31632     31634
     31626     31624     31632     31635     31626     31627     31629     31630
     31626     31627     31629     31631     31626     31627     31629     31641
     31627     31626     31624     31632     31627     31629     31641     31642
     31627     31629     31641     31643     31627     31629     31641     31644
     31628     31627     31629     31630     31628     31627     31629     31631
     31628     31627     31629     31641     31629     31641     31644     31645
     31629     31641     31644     31646     31629     31641     31644     31647
     31630     31629     31641     31642     31630     31629     31641     31643
     31630     31629     31641     31644     31631     31629     31641     31642
     31631     31629     31641     31643     31631     31629     31641     31644
     31632     31635     31636     31637     31632     31635     31636     31638
     31633     31632     31635     31636     31634     31632     31635     31636
     31635     31636     31638     31639     31635     31636     31638     31640
     31635     31636     31638     31688     31636     31638     31688     31689
     31636     31638     31688     31690     31636     31638     31688     31691
     31637     31636     31638     31639     31637     31636     31638     31640
     31637     31636     31638     31688     31638     31688     31691     31692
     31638     31688     31691     31693     31638     31688     31691     31694
     31639     31638     31688     31689     31639     31638     31688     31690
     31639     31638     31688     31691     31640     31638     31688     31689
     31640     31638     31688     31690     31640     31638     31688     31691
     31641     31644     31647     31648     31641     31644     31647     31649
     31641     31644     31647     31650     31642     31641     31644     31645
     31642     31641     31644     31646     31642     31641     31644     31647
     31643     31641     31644     31645     31643     31641     31644     31646
     31643     31641     31644     31647     31644     31647     31650     31651
     31644     31647     31650     31652     31644     31647     31650     31653
     31645     31644     31647     31648     31645     31644     31647     31649
     31645     31644     31647     31650     31646     31644     31647     31648
     31646     31644     31647     31649     31646     31644     31647     31650
     31647     31650     31653     31654     31647     31650     31653     31655
     31647     31650     31653     31656     31648     31647     31650     31651
     31648     31647     31650     31652     31648     31647     31650     31653
     31649     31647     31650     31651     31649     31647     31650     31652
     31649     31647     31650     31653     31650     31653     31656     31657
     31650     31653     31656     31658     31650     31653     31656     31659
     31651     31650     31653     31654     31651     31650     31653     31655
     31651     31650     31653     31656     31652     31650     31653     31654
     31652     31650     31653     31655     31652     31650     31653     31656
     31653     31656     31659     31660     31653     31656     31659     31661
     31654     31653     31656     31657     31654     31653     31656     31658
     31654     31653     31656     31659     31655     31653     31656     31657
     31655     31653     31656     31658     31655     31653     31656     31659
     31656     31659     31661     31662     31656     31659     31661     31663
     31657     31656     31659     31660     31657     31656     31659     31661
     31658     31656     31659     31660     31658     31656     31659     31661
     31659     31661     31663     31664     31659     31661     31663     31665
     31659     31661     31663     31666     31660     31659     31661     31662
     31660     31659     31661     31663     31661     31663     31666     31667
     31661     31663     31666     31668     31661     31663     31666     31669
     31662     31661     31663     31664     31662     31661     31663     31665
     31662     31661     31663     31666     31663     31666     31669     31670
     31663     31666     31669     31671     31663     31666     31669     31672
     31664     31663     31666     31667     31664     31663     31666     31668
     31664     31663     31666     31669     31665     31663     31666     31667
     31665     31663     31666     31668     31665     31663     31666     31669
     31666     31669     31672     31673     31666     31669     31672     31674
     31666     31669     31672     31675     31667     31666     31669     31670
     31667     31666     31669     31671     31667     31666     31669     31672
     31668     31666     31669     31670     31668     31666     31669     31671
     31668     31666     31669     31672     31669     31672     31675     31676
     31669     31672     31675     31677     31669     31672     31675     31678
     31670     31669     31672     31673     31670     31669     31672     31674
     31670     31669     31672     31675     31671     31669     31672     31673
     31671     31669     31672     31674     31671     31669     31672     31675
     31672     31675     31678     31679     31672     31675     31678     31680
     31672     31675     31678     31681     31673     31672     31675     31676
     31673     31672     31675     31677     31673     31672     31675     31678
     31674     31672     31675     31676     31674     31672     31675     31677
     31674     31672     31675     31678     31675     31678     31681     31682
     31675     31678     31681     31683     31675     31678     31681     31684
     31676     31675     31678     31679     31676     31675     31678     31680
     31676     31675     31678     31681     31677     31675     31678     31679
     31677     31675     31678     31680     31677     31675     31678     31681
     31678     31681     31684     31685     31678     31681     31684     31686
     31678     31681     31684     31687     31679     31678     31681     31682
     31679     31678     31681     31683     31679     31678     31681     31684
     31680     31678     31681     31682     31680     31678     31681     31683
     31680     31678     31681     31684     31682     31681     31684     31685
     31682     31681     31684     31686     31682     31681     31684     31687
     31683     31681     31684     31685     31683     31681     31684     31686
     31683     31681     31684     31687     31688     31691     31694     31695
     31688     31691     31694     31696     31688     31691     31694     31697
     31689     31688     31691     31692     31689     31688     31691     31693
     31689     31688     31691     31694     31690     31688     31691     31692
     31690     31688     31691     31693     31690     31688     31691     31694
     31691     31694     31697     31698     31691     31694     31697     31699
     31691     31694     31697     31700     31692     31691     31694     31695
     31692     31691     31694     31696     31692     31691     31694     31697
     31693     31691     31694     31695     31693     31691     31694     31696
     31693     31691     31694     31697     31694     31697     31700     31701
     31694     31697     31700     31702     31694     31697     31700     31703
     31695     31694     31697     31698     31695     31694     31697     31699
     31695     31694     31697     31700     31696     31694     31697     31698
     31696     31694     31697     31699     31696     31694     31697     31700
     31697     31700     31703     31704     31697     31700     31703     31705
     31697     31700     31703     31706     31698     31697     31700     31701
     31698     31697     31700     31702     31698     31697     31700     31703
     31699     31697     31700     31701     31699     31697     31700     31702
     31699     31697     31700     31703     31700     31703     31706     31707
     31700     31703     31706     31708     31700     31703     31706     31709
     31701     31700     31703     31704     31701     31700     31703     31705
     31701     31700     31703     31706     31702     31700     31703     31704
     31702     31700     31703     31705     31702     31700     31703     31706
     31703     31706     31709     31710     31703     31706     31709     31711
     31703     31706     31709     31712     31704     31703     31706     31707
     31704     31703     31706     31708     31704     31703     31706     31709
     31705     31703     31706     31707     31705     31703     31706     31708
     31705     31703     31706     31709     31706     31709     31712     31713
     31706     31709     31712     31714     31706     31709     31712     31715
     31707     31706     31709     31710     31707     31706     31709     31711
     31707     31706     31709     31712     31708     31706     31709     31710
     31708     31706     31709     31711     31708     31706     31709     31712
     31709     31712     31715     31716     31709     31712     31715     31717
     31709     31712     31715     31718     31710     31709     31712     31713
     31710     31709     31712     31714     31710     31709     31712     31715
     31711     31709     31712     31713     31711     31709     31712     31714
     31711     31709     31712     31715     31712     31715     31718     31719
     31712     31715     31718     31720     31712     31715     31718     31721
     31713     31712     31715     31716     31713     31712     31715     31717
     31713     31712     31715     31718     31714     31712     31715     31716
     31714     31712     31715     31717     31714     31712     31715     31718
     31715     31718     31721     31722     31715     31718     31721     31723
     31715     31718     31721     31724     31716     31715     31718     31719
     31716     31715     31718     31720     31716     31715     31718     31721
     31717     31715     31718     31719     31717     31715     31718     31720
     31717     31715     31718     31721     31718     31721     31724     31725
     31718     31721     31724     31726     31718     31721     31724     31727
     31719     31718     31721     31722     31719     31718     31721     31723
     31719     31718     31721     31724     31720     31718     31721     31722
     31720     31718     31721     31723     31720     31718     31721     31724
     31721     31724     31727     31728     31721     31724     31727     31729
     31721     31724     31727     31730     31722     31721     31724     31725
     31722     31721     31724     31726     31722     31721     31724     31727
     31723     31721     31724     31725     31723     31721     31724     31726
     31723     31721     31724     31727     31725     31724     31727     31728
     31725     31724     31727     31729     31725     31724     31727     31730
     31726     31724     31727     31728     31726     31724     31727     31729
     31726     31724     31727     31730     31731     31732     31747     31748
     31731     31732     31747     31749     31731     31732     31747     31753
     31732     31731     31735     31736     31732     31731     31735     31737
     31732     31731     31735     31738     31732     31731     31739     31740
     31732     31731     31739     31741     31732     31731     31739     31742
     31732     31731     31743     31744     31732     31731     31743     31745
     31732     31731     31743     31746     31732     31747     31753     31750
     31733     31732     31731     31735     31733     31732     31731     31739
     31733     31732     31731     31743     31733     31732     31747     31748
     31733     31732     31747     31749     31733     31732     31747     31753
     31734     31732     31731     31735     31734     31732     31731     31739
     31734     31732     31731     31743     31734     31732     31747     31748
     31734     31732     31747     31749     31734     31732     31747     31753
     31735     31731     31732     31747     31735     31731     31739     31740
     31735     31731     31739     31741     31735     31731     31739     31742
     31735     31731     31743     31744     31735     31731     31743     31745
     31735     31731     31743     31746     31736     31735     31731     31739
     31736     31735     31731     31743     31737     31735     31731     31739
     31737     31735     31731     31743     31738     31735     31731     31739
     31738     31735     31731     31743     31739     31731     31732     31747
     31739     31731     31743     31744     31739     31731     31743     31745
     31739     31731     31743     31746     31740     31739     31731     31743
     31741     31739     31731     31743     31742     31739     31731     31743
     31743     31731     31732     31747     31747     31753     31750     31751
     31747     31753     31750     31752     31747     31753     31750     31754
     31748     31747     31753     31750     31749     31747     31753     31750
     31750     31754     31755     31756     31750     31754     31755     31757
     31750     31754     31755     31758     31751     31750     31754     31755
     31752     31750     31754     31755     31753     31750     31754     31755
     31754     31755     31758     31759     31754     31755     31758     31760
     31754     31755     31758     31766     31755     31758     31760     31761
     31755     31758     31766     31767     31755     31758     31766     31768
     31755     31758     31766     31769     31756     31755     31758     31759
     31756     31755     31758     31760     31756     31755     31758     31766
     31757     31755     31758     31759     31757     31755     31758     31760
     31757     31755     31758     31766     31758     31760     31761     31762
     31758     31760     31761     31763     31758     31766     31769     31770
     31759     31758     31760     31761     31759     31758     31766     31767
     31759     31758     31766     31768     31759     31758     31766     31769
     31760     31758     31766     31767     31760     31758     31766     31768
     31760     31758     31766     31769     31760     31761     31763     31764
     31760     31761     31763     31765     31760     31761     31763     31775
     31761     31760     31758     31766     31761     31763     31775     31776
     31761     31763     31775     31777     31761     31763     31775     31778
     31762     31761     31763     31764     31762     31761     31763     31765
     31762     31761     31763     31775     31763     31775     31778     31779
     31763     31775     31778     31780     31763     31775     31778     31781
     31764     31763     31775     31776     31764     31763     31775     31777
     31764     31763     31775     31778     31765     31763     31775     31776
     31765     31763     31775     31777     31765     31763     31775     31778
     31766     31769     31770     31771     31766     31769     31770     31772
     31767     31766     31769     31770     31768     31766     31769     31770
     31769     31770     31772     31773     31769     31770     31772     31774
     31769     31770     31772     31822     31770     31772     31822     31823
     31770     31772     31822     31824     31770     31772     31822     31825
     31771     31770     31772     31773     31771     31770     31772     31774
     31771     31770     31772     31822     31772     31822     31825     31826
     31772     31822     31825     31827     31772     31822     31825     31828
     31773     31772     31822     31823     31773     31772     31822     31824
     31773     31772     31822     31825     31774     31772     31822     31823
     31774     31772     31822     31824     31774     31772     31822     31825
     31775     31778     31781     31782     31775     31778     31781     31783
     31775     31778     31781     31784     31776     31775     31778     31779
     31776     31775     31778     31780     31776     31775     31778     31781
     31777     31775     31778     31779     31777     31775     31778     31780
     31777     31775     31778     31781     31778     31781     31784     31785
     31778     31781     31784     31786     31778     31781     31784     31787
     31779     31778     31781     31782     31779     31778     31781     31783
     31779     31778     31781     31784     31780     31778     31781     31782
     31780     31778     31781     31783     31780     31778     31781     31784
     31781     31784     31787     31788     31781     31784     31787     31789
     31781     31784     31787     31790     31782     31781     31784     31785
     31782     31781     31784     31786     31782     31781     31784     31787
     31783     31781     31784     31785     31783     31781     31784     31786
     31783     31781     31784     31787     31784     31787     31790     31791
     31784     31787     31790     31792     31784     31787     31790     31793
     31785     31784     31787     31788     31785     31784     31787     31789
     31785     31784     31787     31790     31786     31784     31787     31788
     31786     31784     31787     31789     31786     31784     31787     31790
     31787     31790     31793     31794     31787     31790     31793     31795
     31788     31787     31790     31791     31788     31787     31790     31792
     31788     31787     31790     31793     31789     31787     31790     31791
     31789     31787     31790     31792     31789     31787     31790     31793
     31790     31793     31795     31796     31790     31793     31795     31797
     31791     31790     31793     31794     31791     31790     31793     31795
     31792     31790     31793     31794     31792     31790     31793     31795
     31793     31795     31797     31798     31793     31795     31797     31799
     31793     31795     31797     31800     31794     31793     31795     31796
     31794     31793     31795     31797     31795     31797     31800     31801
     31795     31797     31800     31802     31795     31797     31800     31803
     31796     31795     31797     31798     31796     31795     31797     31799
     31796     31795     31797     31800     31797     31800     31803     31804
     31797     31800     31803     31805     31797     31800     31803     31806
     31798     31797     31800     31801     31798     31797     31800     31802
     31798     31797     31800     31803     31799     31797     31800     31801
     31799     31797     31800     31802     31799     31797     31800     31803
     31800     31803     31806     31807     31800     31803     31806     31808
     31800     31803     31806     31809     31801     31800     31803     31804
     31801     31800     31803     31805     31801     31800     31803     31806
     31802     31800     31803     31804     31802     31800     31803     31805
     31802     31800     31803     31806     31803     31806     31809     31810
     31803     31806     31809     31811     31803     31806     31809     31812
     31804     31803     31806     31807     31804     31803     31806     31808
     31804     31803     31806     31809     31805     31803     31806     31807
     31805     31803     31806     31808     31805     31803     31806     31809
     31806     31809     31812     31813     31806     31809     31812     31814
     31806     31809     31812     31815     31807     31806     31809     31810
     31807     31806     31809     31811     31807     31806     31809     31812
     31808     31806     31809     31810     31808     31806     31809     31811
     31808     31806     31809     31812     31809     31812     31815     31816
     31809     31812     31815     31817     31809     31812     31815     31818
     31810     31809     31812     31813     31810     31809     31812     31814
     31810     31809     31812     31815     31811     31809     31812     31813
     31811     31809     31812     31814     31811     31809     31812     31815
     31812     31815     31818     31819     31812     31815     31818     31820
     31812     31815     31818     31821     31813     31812     31815     31816
     31813     31812     31815     31817     31813     31812     31815     31818
     31814     31812     31815     31816     31814     31812     31815     31817
     31814     31812     31815     31818     31816     31815     31818     31819
     31816     31815     31818     31820     31816     31815     31818     31821
     31817     31815     31818     31819     31817     31815     31818     31820
     31817     31815     31818     31821     31822     31825     31828     31829
     31822     31825     31828     31830     31822     31825     31828     31831
     31823     31822     31825     31826     31823     31822     31825     31827
     31823     31822     31825     31828     31824     31822     31825     31826
     31824     31822     31825     31827     31824     31822     31825     31828
     31825     31828     31831     31832     31825     31828     31831     31833
     31825     31828     31831     31834     31826     31825     31828     31829
     31826     31825     31828     31830     31826     31825     31828     31831
     31827     31825     31828     31829     31827     31825     31828     31830
     31827     31825     31828     31831     31828     31831     31834     31835
     31828     31831     31834     31836     31828     31831     31834     31837
     31829     31828     31831     31832     31829     31828     31831     31833
     31829     31828     31831     31834     31830     31828     31831     31832
     31830     31828     31831     31833     31830     31828     31831     31834
     31831     31834     31837     31838     31831     31834     31837     31839
     31831     31834     31837     31840     31832     31831     31834     31835
     31832     31831     31834     31836     31832     31831     31834     31837
     31833     31831     31834     31835     31833     31831     31834     31836
     31833     31831     31834     31837     31834     31837     31840     31841
     31834     31837     31840     31842     31834     31837     31840     31843
     31835     31834     31837     31838     31835     31834     31837     31839
     31835     31834     31837     31840     31836     31834     31837     31838
     31836     31834     31837     31839     31836     31834     31837     31840
     31837     31840     31843     31844     31837     31840     31843     31845
     31837     31840     31843     31846     31838     31837     31840     31841
     31838     31837     31840     31842     31838     31837     31840     31843
     31839     31837     31840     31841     31839     31837     31840     31842
     31839     31837     31840     31843     31840     31843     31846     31847
     31840     31843     31846     31848     31840     31843     31846     31849
     31841     31840     31843     31844     31841     31840     31843     31845
     31841     31840     31843     31846     31842     31840     31843     31844
     31842     31840     31843     31845     31842     31840     31843     31846
     31843     31846     31849     31850     31843     31846     31849     31851
     31843     31846     31849     31852     31844     31843     31846     31847
     31844     31843     31846     31848     31844     31843     31846     31849
     31845     31843     31846     31847     31845     31843     31846     31848
     31845     31843     31846     31849     31846     31849     31852     31853
     31846     31849     31852     31854     31846     31849     31852     31855
     31847     31846     31849     31850     31847     31846     31849     31851
     31847     31846     31849     31852     31848     31846     31849     31850
     31848     31846     31849     31851     31848     31846     31849     31852
     31849     31852     31855     31856     31849     31852     31855     31857
     31849     31852     31855     31858     31850     31849     31852     31853
     31850     31849     31852     31854     31850     31849     31852     31855
     31851     31849     31852     31853     31851     31849     31852     31854
     31851     31849     31852     31855     31852     31855     31858     31859
     31852     31855     31858     31860     31852     31855     31858     31861
     31853     31852     31855     31856     31853     31852     31855     31857
     31853     31852     31855     31858     31854     31852     31855     31856
     31854     31852     31855     31857     31854     31852     31855     31858
     31855     31858     31861     31862     31855     31858     31861     31863
     31855     31858     31861     31864     31856     31855     31858     31859
     31856     31855     31858     31860     31856     31855     31858     31861
     31857     31855     31858     31859     31857     31855     31858     31860
     31857     31855     31858     31861     31859     31858     31861     31862
     31859     31858     31861     31863     31859     31858     31861     31864
     31860     31858     31861     31862     31860     31858     31861     31863
     31860     31858     31861     31864     31865     31866     31881     31882
     31865     31866     31881     31883     31865     31866     31881     31887
     31866     31865     31869     31870     31866     31865     31869     31871
     31866     31865     31869     31872     31866     31865     31873     31874
     31866     31865     31873     31875     31866     31865     31873     31876
     31866     31865     31877     31878     31866     31865     31877     31879
     31866     31865     31877     31880     31866     31881     31887     31884
     31867     31866     31865     31869     31867     31866     31865     31873
     31867     31866     31865     31877     31867     31866     31881     31882
     31867     31866     31881     31883     31867     31866     31881     31887
     31868     31866     31865     31869     31868     31866     31865     31873
     31868     31866     31865     31877     31868     31866     31881     31882
     31868     31866     31881     31883     31868     31866     31881     31887
     31869     31865     31866     31881     31869     31865     31873     31874
     31869     31865     31873     31875     31869     31865     31873     31876
     31869     31865     31877     31878     31869     31865     31877     31879
     31869     31865     31877     31880     31870     31869     31865     31873
     31870     31869     31865     31877     31871     31869     31865     31873
     31871     31869     31865     31877     31872     31869     31865     31873
     31872     31869     31865     31877     31873     31865     31866     31881
     31873     31865     31877     31878     31873     31865     31877     31879
     31873     31865     31877     31880     31874     31873     31865     31877
     31875     31873     31865     31877     31876     31873     31865     31877
     31877     31865     31866     31881     31881     31887     31884     31885
     31881     31887     31884     31886     31881     31887     31884     31888
     31882     31881     31887     31884     31883     31881     31887     31884
     31884     31888     31889     31890     31884     31888     31889     31891
     31884     31888     31889     31892     31885     31884     31888     31889
     31886     31884     31888     31889     31887     31884     31888     31889
     31888     31889     31892     31893     31888     31889     31892     31894
     31888     31889     31892     31900     31889     31892     31894     31895
     31889     31892     31900     31901     31889     31892     31900     31902
     31889     31892     31900     31903     31890     31889     31892     31893
     31890     31889     31892     31894     31890     31889     31892     31900
     31891     31889     31892     31893     31891     31889     31892     31894
     31891     31889     31892     31900     31892     31894     31895     31896
     31892     31894     31895     31897     31892     31900     31903     31904
     31893     31892     31894     31895     31893     31892     31900     31901
     31893     31892     31900     31902     31893     31892     31900     31903
     31894     31892     31900     31901     31894     31892     31900     31902
     31894     31892     31900     31903     31894     31895     31897     31898
     31894     31895     31897     31899     31894     31895     31897     31909
     31895     31894     31892     31900     31895     31897     31909     31910
     31895     31897     31909     31911     31895     31897     31909     31912
     31896     31895     31897     31898     31896     31895     31897     31899
     31896     31895     31897     31909     31897     31909     31912     31913
     31897     31909     31912     31914     31897     31909     31912     31915
     31898     31897     31909     31910     31898     31897     31909     31911
     31898     31897     31909     31912     31899     31897     31909     31910
     31899     31897     31909     31911     31899     31897     31909     31912
     31900     31903     31904     31905     31900     31903     31904     31906
     31901     31900     31903     31904     31902     31900     31903     31904
     31903     31904     31906     31907     31903     31904     31906     31908
     31903     31904     31906     31956     31904     31906     31956     31957
     31904     31906     31956     31958     31904     31906     31956     31959
     31905     31904     31906     31907     31905     31904     31906     31908
     31905     31904     31906     31956     31906     31956     31959     31960
     31906     31956     31959     31961     31906     31956     31959     31962
     31907     31906     31956     31957     31907     31906     31956     31958
     31907     31906     31956     31959     31908     31906     31956     31957
     31908     31906     31956     31958     31908     31906     31956     31959
     31909     31912     31915     31916     31909     31912     31915     31917
     31909     31912     31915     31918     31910     31909     31912     31913
     31910     31909     31912     31914     31910     31909     31912     31915
     31911     31909     31912     31913     31911     31909     31912     31914
     31911     31909     31912     31915     31912     31915     31918     31919
     31912     31915     31918     31920     31912     31915     31918     31921
     31913     31912     31915     31916     31913     31912     31915     31917
     31913     31912     31915     31918     31914     31912     31915     31916
     31914     31912     31915     31917     31914     31912     31915     31918
     31915     31918     31921     31922     31915     31918     31921     31923
     31915     31918     31921     31924     31916     31915     31918     31919
     31916     31915     31918     31920     31916     31915     31918     31921
     31917     31915     31918     31919     31917     31915     31918     31920
     31917     31915     31918     31921     31918     31921     31924     31925
     31918     31921     31924     31926     31918     31921     31924     31927
     31919     31918     31921     31922     31919     31918     31921     31923
     31919     31918     31921     31924     31920     31918     31921     31922
     31920     31918     31921     31923     31920     31918     31921     31924
     31921     31924     31927     31928     31921     31924     31927     31929
     31922     31921     31924     31925     31922     31921     31924     31926
     31922     31921     31924     31927     31923     31921     31924     31925
     31923     31921     31924     31926     31923     31921     31924     31927
     31924     31927     31929     31930     31924     31927     31929     31931
     31925     31924     31927     31928     31925     31924     31927     31929
     31926     31924     31927     31928     31926     31924     31927     31929
     31927     31929     31931     31932     31927     31929     31931     31933
     31927     31929     31931     31934     31928     31927     31929     31930
     31928     31927     31929     31931     31929     31931     31934     31935
     31929     31931     31934     31936     31929     31931     31934     31937
     31930     31929     31931     31932     31930     31929     31931     31933
     31930     31929     31931     31934     31931     31934     31937     31938
     31931     31934     31937     31939     31931     31934     31937     31940
     31932     31931     31934     31935     31932     31931     31934     31936
     31932     31931     31934     31937     31933     31931     31934     31935
     31933     31931     31934     31936     31933     31931     31934     31937
     31934     31937     31940     31941     31934     31937     31940     31942
     31934     31937     31940     31943     31935     31934     31937     31938
     31935     31934     31937     31939     31935     31934     31937     31940
     31936     31934     31937     31938     31936     31934     31937     31939
     31936     31934     31937     31940     31937     31940     31943     31944
     31937     31940     31943     31945     31937     31940     31943     31946
     31938     31937     31940     31941     31938     31937     31940     31942
     31938     31937     31940     31943     31939     31937     31940     31941
     31939     31937     31940     31942     31939     31937     31940     31943
     31940     31943     31946     31947     31940     31943     31946     31948
     31940     31943     31946     31949     31941     31940     31943     31944
     31941     31940     31943     31945     31941     31940     31943     31946
     31942     31940     31943     31944     31942     31940     31943     31945
     31942     31940     31943     31946     31943     31946     31949     31950
     31943     31946     31949     31951     31943     31946     31949     31952
     31944     31943     31946     31947     31944     31943     31946     31948
     31944     31943     31946     31949     31945     31943     31946     31947
     31945     31943     31946     31948     31945     31943     31946     31949
     31946     31949     31952     31953     31946     31949     31952     31954
     31946     31949     31952     31955     31947     31946     31949     31950
     31947     31946     31949     31951     31947     31946     31949     31952
     31948     31946     31949     31950     31948     31946     31949     31951
     31948     31946     31949     31952     31950     31949     31952     31953
     31950     31949     31952     31954     31950     31949     31952     31955
     31951     31949     31952     31953     31951     31949     31952     31954
     31951     31949     31952     31955     31956     31959     31962     31963
     31956     31959     31962     31964     31956     31959     31962     31965
     31957     31956     31959     31960     31957     31956     31959     31961
     31957     31956     31959     31962     31958     31956     31959     31960
     31958     31956     31959     31961     31958     31956     31959     31962
     31959     31962     31965     31966     31959     31962     31965     31967
     31959     31962     31965     31968     31960     31959     31962     31963
     31960     31959     31962     31964     31960     31959     31962     31965
     31961     31959     31962     31963     31961     31959     31962     31964
     31961     31959     31962     31965     31962     31965     31968     31969
     31962     31965     31968     31970     31962     31965     31968     31971
     31963     31962     31965     31966     31963     31962     31965     31967
     31963     31962     31965     31968     31964     31962     31965     31966
     31964     31962     31965     31967     31964     31962     31965     31968
     31965     31968     31971     31972     31965     31968     31971     31973
     31965     31968     31971     31974     31966     31965     31968     31969
     31966     31965     31968     31970     31966     31965     31968     31971
     31967     31965     31968     31969     31967     31965     31968     31970
     31967     31965     31968     31971     31968     31971     31974     31975
     31968     31971     31974     31976     31968     31971     31974     31977
     31969     31968     31971     31972     31969     31968     31971     31973
     31969     31968     31971     31974     31970     31968     31971     31972
     31970     31968     31971     31973     31970     31968     31971     31974
     31971     31974     31977     31978     31971     31974     31977     31979
     31971     31974     31977     31980     31972     31971     31974     31975
     31972     31971     31974     31976     31972     31971     31974     31977
     31973     31971     31974     31975     31973     31971     31974     31976
     31973     31971     31974     31977     31974     31977     31980     31981
     31974     31977     31980     31982     31974     31977     31980     31983
     31975     31974     31977     31978     31975     31974     31977     31979
     31975     31974     31977     31980     31976     31974     31977     31978
     31976     31974     31977     31979     31976     31974     31977     31980
     31977     31980     31983     31984     31977     31980     31983     31985
     31977     31980     31983     31986     31978     31977     31980     31981
     31978     31977     31980     31982     31978     31977     31980     31983
     31979     31977     31980     31981     31979     31977     31980     31982
     31979     31977     31980     31983     31980     31983     31986     31987
     31980     31983     31986     31988     31980     31983     31986     31989
     31981     31980     31983     31984     31981     31980     31983     31985
     31981     31980     31983     31986     31982     31980     31983     31984
     31982     31980     31983     31985     31982     31980     31983     31986
     31983     31986     31989     31990     31983     31986     31989     31991
     31983     31986     31989     31992     31984     31983     31986     31987
     31984     31983     31986     31988     31984     31983     31986     31989
     31985     31983     31986     31987     31985     31983     31986     31988
     31985     31983     31986     31989     31986     31989     31992     31993
     31986     31989     31992     31994     31986     31989     31992     31995
     31987     31986     31989     31990     31987     31986     31989     31991
     31987     31986     31989     31992     31988     31986     31989     31990
     31988     31986     31989     31991     31988     31986     31989     31992
     31989     31992     31995     31996     31989     31992     31995     31997
     31989     31992     31995     31998     31990     31989     31992     31993
     31990     31989     31992     31994     31990     31989     31992     31995
     31991     31989     31992     31993     31991     31989     31992     31994
     31991     31989     31992     31995     31993     31992     31995     31996
     31993     31992     31995     31997     31993     31992     31995     31998
     31994     31992     31995     31996     31994     31992     31995     31997
     31994     31992     31995     31998     31999     32000     32015     32016
     31999     32000     32015     32017     31999     32000     32015     32021
     32000     31999     32003     32004     32000     31999     32003     32005
     32000     31999     32003     32006     32000     31999     32007     32008
     32000     31999     32007     32009     32000     31999     32007     32010
     32000     31999     32011     32012     32000     31999     32011     32013
     32000     31999     32011     32014     32000     32015     32021     32018
     32001     32000     31999     32003     32001     32000     31999     32007
     32001     32000     31999     32011     32001     32000     32015     32016
     32001     32000     32015     32017     32001     32000     32015     32021
     32002     32000     31999     32003     32002     32000     31999     32007
     32002     32000     31999     32011     32002     32000     32015     32016
     32002     32000     32015     32017     32002     32000     32015     32021
     32003     31999     32000     32015     32003     31999     32007     32008
     32003     31999     32007     32009     32003     31999     32007     32010
     32003     31999     32011     32012     32003     31999     32011     32013
     32003     31999     32011     32014     32004     32003     31999     32007
     32004     32003     31999     32011     32005     32003     31999     32007
     32005     32003     31999     32011     32006     32003     31999     32007
     32006     32003     31999     32011     32007     31999     32000     32015
     32007     31999     32011     32012     32007     31999     32011     32013
     32007     31999     32011     32014     32008     32007     31999     32011
     32009     32007     31999     32011     32010     32007     31999     32011
     32011     31999     32000     32015     32015     32021     32018     32019
     32015     32021     32018     32020     32015     32021     32018     32022
     32016     32015     32021     32018     32017     32015     32021     32018
     32018     32022     32023     32024     32018     32022     32023     32025
     32018     32022     32023     32026     32019     32018     32022     32023
     32020     32018     32022     32023     32021     32018     32022     32023
     32022     32023     32026     32027     32022     32023     32026     32028
     32022     32023     32026     32034     32023     32026     32028     32029
     32023     32026     32034     32035     32023     32026     32034     32036
     32023     32026     32034     32037     32024     32023     32026     32027
     32024     32023     32026     32028     32024     32023     32026     32034
     32025     32023     32026     32027     32025     32023     32026     32028
     32025     32023     32026     32034     32026     32028     32029     32030
     32026     32028     32029     32031     32026     32034     32037     32038
     32027     32026     32028     32029     32027     32026     32034     32035
     32027     32026     32034     32036     32027     32026     32034     32037
     32028     32026     32034     32035     32028     32026     32034     32036
     32028     32026     32034     32037     32028     32029     32031     32032
     32028     32029     32031     32033     32028     32029     32031     32043
     32029     32028     32026     32034     32029     32031     32043     32044
     32029     32031     32043     32045     32029     32031     32043     32046
     32030     32029     32031     32032     32030     32029     32031     32033
     32030     32029     32031     32043     32031     32043     32046     32047
     32031     32043     32046     32048     32031     32043     32046     32049
     32032     32031     32043     32044     32032     32031     32043     32045
     32032     32031     32043     32046     32033     32031     32043     32044
     32033     32031     32043     32045     32033     32031     32043     32046
     32034     32037     32038     32039     32034     32037     32038     32040
     32035     32034     32037     32038     32036     32034     32037     32038
     32037     32038     32040     32041     32037     32038     32040     32042
     32037     32038     32040     32090     32038     32040     32090     32091
     32038     32040     32090     32092     32038     32040     32090     32093
     32039     32038     32040     32041     32039     32038     32040     32042
     32039     32038     32040     32090     32040     32090     32093     32094
     32040     32090     32093     32095     32040     32090     32093     32096
     32041     32040     32090     32091     32041     32040     32090     32092
     32041     32040     32090     32093     32042     32040     32090     32091
     32042     32040     32090     32092     32042     32040     32090     32093
     32043     32046     32049     32050     32043     32046     32049     32051
     32043     32046     32049     32052     32044     32043     32046     32047
     32044     32043     32046     32048     32044     32043     32046     32049
     32045     32043     32046     32047     32045     32043     32046     32048
     32045     32043     32046     32049     32046     32049     32052     32053
     32046     32049     32052     32054     32046     32049     32052     32055
     32047     32046     32049     32050     32047     32046     32049     32051
     32047     32046     32049     32052     32048     32046     32049     32050
     32048     32046     32049     32051     32048     32046     32049     32052
     32049     32052     32055     32056     32049     32052     32055     32057
     32049     32052     32055     32058     32050     32049     32052     32053
     32050     32049     32052     32054     32050     32049     32052     32055
     32051     32049     32052     32053     32051     32049     32052     32054
     32051     32049     32052     32055     32052     32055     32058     32059
     32052     32055     32058     32060     32052     32055     32058     32061
     32053     32052     32055     32056     32053     32052     32055     32057
     32053     32052     32055     32058     32054     32052     32055     32056
     32054     32052     32055     32057     32054     32052     32055     32058
     32055     32058     32061     32062     32055     32058     32061     32063
     32056     32055     32058     32059     32056     32055     32058     32060
     32056     32055     32058     32061     32057     32055     32058     32059
     32057     32055     32058     32060     32057     32055     32058     32061
     32058     32061     32063     32064     32058     32061     32063     32065
     32059     32058     32061     32062     32059     32058     32061     32063
     32060     32058     32061     32062     32060     32058     32061     32063
     32061     32063     32065     32066     32061     32063     32065     32067
     32061     32063     32065     32068     32062     32061     32063     32064
     32062     32061     32063     32065     32063     32065     32068     32069
     32063     32065     32068     32070     32063     32065     32068     32071
     32064     32063     32065     32066     32064     32063     32065     32067
     32064     32063     32065     32068     32065     32068     32071     32072
     32065     32068     32071     32073     32065     32068     32071     32074
     32066     32065     32068     32069     32066     32065     32068     32070
     32066     32065     32068     32071     32067     32065     32068     32069
     32067     32065     32068     32070     32067     32065     32068     32071
     32068     32071     32074     32075     32068     32071     32074     32076
     32068     32071     32074     32077     32069     32068     32071     32072
     32069     32068     32071     32073     32069     32068     32071     32074
     32070     32068     32071     32072     32070     32068     32071     32073
     32070     32068     32071     32074     32071     32074     32077     32078
     32071     32074     32077     32079     32071     32074     32077     32080
     32072     32071     32074     32075     32072     32071     32074     32076
     32072     32071     32074     32077     32073     32071     32074     32075
     32073     32071     32074     32076     32073     32071     32074     32077
     32074     32077     32080     32081     32074     32077     32080     32082
     32074     32077     32080     32083     32075     32074     32077     32078
     32075     32074     32077     32079     32075     32074     32077     32080
     32076     32074     32077     32078     32076     32074     32077     32079
     32076     32074     32077     32080     32077     32080     32083     32084
     32077     32080     32083     32085     32077     32080     32083     32086
     32078     32077     32080     32081     32078     32077     32080     32082
     32078     32077     32080     32083     32079     32077     32080     32081
     32079     32077     32080     32082     32079     32077     32080     32083
     32080     32083     32086     32087     32080     32083     32086     32088
     32080     32083     32086     32089     32081     32080     32083     32084
     32081     32080     32083     32085     32081     32080     32083     32086
     32082     32080     32083     32084     32082     32080     32083     32085
     32082     32080     32083     32086     32084     32083     32086     32087
     32084     32083     32086     32088     32084     32083     32086     32089
     32085     32083     32086     32087     32085     32083     32086     32088
     32085     32083     32086     32089     32090     32093     32096     32097
     32090     32093     32096     32098     32090     32093     32096     32099
     32091     32090     32093     32094     32091     32090     32093     32095
     32091     32090     32093     32096     32092     32090     32093     32094
     32092     32090     32093     32095     32092     32090     32093     32096
     32093     32096     32099     32100     32093     32096     32099     32101
     32093     32096     32099     32102     32094     32093     32096     32097
     32094     32093     32096     32098     32094     32093     32096     32099
     32095     32093     32096     32097     32095     32093     32096     32098
     32095     32093     32096     32099     32096     32099     32102     32103
     32096     32099     32102     32104     32096     32099     32102     32105
     32097     32096     32099     32100     32097     32096     32099     32101
     32097     32096     32099     32102     32098     32096     32099     32100
     32098     32096     32099     32101     32098     32096     32099     32102
     32099     32102     32105     32106     32099     32102     32105     32107
     32099     32102     32105     32108     32100     32099     32102     32103
     32100     32099     32102     32104     32100     32099     32102     32105
     32101     32099     32102     32103     32101     32099     32102     32104
     32101     32099     32102     32105     32102     32105     32108     32109
     32102     32105     32108     32110     32102     32105     32108     32111
     32103     32102     32105     32106     32103     32102     32105     32107
     32103     32102     32105     32108     32104     32102     32105     32106
     32104     32102     32105     32107     32104     32102     32105     32108
     32105     32108     32111     32112     32105     32108     32111     32113
     32105     32108     32111     32114     32106     32105     32108     32109
     32106     32105     32108     32110     32106     32105     32108     32111
     32107     32105     32108     32109     32107     32105     32108     32110
     32107     32105     32108     32111     32108     32111     32114     32115
     32108     32111     32114     32116     32108     32111     32114     32117
     32109     32108     32111     32112     32109     32108     32111     32113
     32109     32108     32111     32114     32110     32108     32111     32112
     32110     32108     32111     32113     32110     32108     32111     32114
     32111     32114     32117     32118     32111     32114     32117     32119
     32111     32114     32117     32120     32112     32111     32114     32115
     32112     32111     32114     32116     32112     32111     32114     32117
     32113     32111     32114     32115     32113     32111     32114     32116
     32113     32111     32114     32117     32114     32117     32120     32121
     32114     32117     32120     32122     32114     32117     32120     32123
     32115     32114     32117     32118     32115     32114     32117     32119
     32115     32114     32117     32120     32116     32114     32117     32118
     32116     32114     32117     32119     32116     32114     32117     32120
     32117     32120     32123     32124     32117     32120     32123     32125
     32117     32120     32123     32126     32118     32117     32120     32121
     32118     32117     32120     32122     32118     32117     32120     32123
     32119     32117     32120     32121     32119     32117     32120     32122
     32119     32117     32120     32123     32120     32123     32126     32127
     32120     32123     32126     32128     32120     32123     32126     32129
     32121     32120     32123     32124     32121     32120     32123     32125
     32121     32120     32123     32126     32122     32120     32123     32124
     32122     32120     32123     32125     32122     32120     32123     32126
     32123     32126     32129     32130     32123     32126     32129     32131
     32123     32126     32129     32132     32124     32123     32126     32127
     32124     32123     32126     32128     32124     32123     32126     32129
     32125     32123     32126     32127     32125     32123     32126     32128
     32125     32123     32126     32129     32127     32126     32129     32130
     32127     32126     32129     32131     32127     32126     32129     32132
     32128     32126     32129     32130     32128     32126     32129     32131
     32128     32126     32129     32132     32133     32134     32149     32150
     32133     32134     32149     32151     32133     32134     32149     32155
     32134     32133     32137     32138     32134     32133     32137     32139
     32134     32133     32137     32140     32134     32133     32141     32142
     32134     32133     32141     32143     32134     32133     32141     32144
     32134     32133     32145     32146     32134     32133     32145     32147
     32134     32133     32145     32148     32134     32149     32155     32152
     32135     32134     32133     32137     32135     32134     32133     32141
     32135     32134     32133     32145     32135     32134     32149     32150
     32135     32134     32149     32151     32135     32134     32149     32155
     32136     32134     32133     32137     32136     32134     32133     32141
     32136     32134     32133     32145     32136     32134     32149     32150
     32136     32134     32149     32151     32136     32134     32149     32155
     32137     32133     32134     32149     32137     32133     32141     32142
     32137     32133     32141     32143     32137     32133     32141     32144
     32137     32133     32145     32146     32137     32133     32145     32147
     32137     32133     32145     32148     32138     32137     32133     32141
     32138     32137     32133     32145     32139     32137     32133     32141
     32139     32137     32133     32145     32140     32137     32133     32141
     32140     32137     32133     32145     32141     32133     32134     32149
     32141     32133     32145     32146     32141     32133     32145     32147
     32141     32133     32145     32148     32142     32141     32133     32145
     32143     32141     32133     32145     32144     32141     32133     32145
     32145     32133     32134     32149     32149     32155     32152     32153
     32149     32155     32152     32154     32149     32155     32152     32156
     32150     32149     32155     32152     32151     32149     32155     32152
     32152     32156     32157     32158     32152     32156     32157     32159
     32152     32156     32157     32160     32153     32152     32156     32157
     32154     32152     32156     32157     32155     32152     32156     32157
     32156     32157     32160     32161     32156     32157     32160     32162
     32156     32157     32160     32168     32157     32160     32162     32163
     32157     32160     32168     32169     32157     32160     32168     32170
     32157     32160     32168     32171     32158     32157     32160     32161
     32158     32157     32160     32162     32158     32157     32160     32168
     32159     32157     32160     32161     32159     32157     32160     32162
     32159     32157     32160     32168     32160     32162     32163     32164
     32160     32162     32163     32165     32160     32168     32171     32172
     32161     32160     32162     32163     32161     32160     32168     32169
     32161     32160     32168     32170     32161     32160     32168     32171
     32162     32160     32168     32169     32162     32160     32168     32170
     32162     32160     32168     32171     32162     32163     32165     32166
     32162     32163     32165     32167     32162     32163     32165     32177
     32163     32162     32160     32168     32163     32165     32177     32178
     32163     32165     32177     32179     32163     32165     32177     32180
     32164     32163     32165     32166     32164     32163     32165     32167
     32164     32163     32165     32177     32165     32177     32180     32181
     32165     32177     32180     32182     32165     32177     32180     32183
     32166     32165     32177     32178     32166     32165     32177     32179
     32166     32165     32177     32180     32167     32165     32177     32178
     32167     32165     32177     32179     32167     32165     32177     32180
     32168     32171     32172     32173     32168     32171     32172     32174
     32169     32168     32171     32172     32170     32168     32171     32172
     32171     32172     32174     32175     32171     32172     32174     32176
     32171     32172     32174     32224     32172     32174     32224     32225
     32172     32174     32224     32226     32172     32174     32224     32227
     32173     32172     32174     32175     32173     32172     32174     32176
     32173     32172     32174     32224     32174     32224     32227     32228
     32174     32224     32227     32229     32174     32224     32227     32230
     32175     32174     32224     32225     32175     32174     32224     32226
     32175     32174     32224     32227     32176     32174     32224     32225
     32176     32174     32224     32226     32176     32174     32224     32227
     32177     32180     32183     32184     32177     32180     32183     32185
     32177     32180     32183     32186     32178     32177     32180     32181
     32178     32177     32180     32182     32178     32177     32180     32183
     32179     32177     32180     32181     32179     32177     32180     32182
     32179     32177     32180     32183     32180     32183     32186     32187
     32180     32183     32186     32188     32180     32183     32186     32189
     32181     32180     32183     32184     32181     32180     32183     32185
     32181     32180     32183     32186     32182     32180     32183     32184
     32182     32180     32183     32185     32182     32180     32183     32186
     32183     32186     32189     32190     32183     32186     32189     32191
     32183     32186     32189     32192     32184     32183     32186     32187
     32184     32183     32186     32188     32184     32183     32186     32189
     32185     32183     32186     32187     32185     32183     32186     32188
     32185     32183     32186     32189     32186     32189     32192     32193
     32186     32189     32192     32194     32186     32189     32192     32195
     32187     32186     32189     32190     32187     32186     32189     32191
     32187     32186     32189     32192     32188     32186     32189     32190
     32188     32186     32189     32191     32188     32186     32189     32192
     32189     32192     32195     32196     32189     32192     32195     32197
     32190     32189     32192     32193     32190     32189     32192     32194
     32190     32189     32192     32195     32191     32189     32192     32193
     32191     32189     32192     32194     32191     32189     32192     32195
     32192     32195     32197     32198     32192     32195     32197     32199
     32193     32192     32195     32196     32193     32192     32195     32197
     32194     32192     32195     32196     32194     32192     32195     32197
     32195     32197     32199     32200     32195     32197     32199     32201
     32195     32197     32199     32202     32196     32195     32197     32198
     32196     32195     32197     32199     32197     32199     32202     32203
     32197     32199     32202     32204     32197     32199     32202     32205
     32198     32197     32199     32200     32198     32197     32199     32201
     32198     32197     32199     32202     32199     32202     32205     32206
     32199     32202     32205     32207     32199     32202     32205     32208
     32200     32199     32202     32203     32200     32199     32202     32204
     32200     32199     32202     32205     32201     32199     32202     32203
     32201     32199     32202     32204     32201     32199     32202     32205
     32202     32205     32208     32209     32202     32205     32208     32210
     32202     32205     32208     32211     32203     32202     32205     32206
     32203     32202     32205     32207     32203     32202     32205     32208
     32204     32202     32205     32206     32204     32202     32205     32207
     32204     32202     32205     32208     32205     32208     32211     32212
     32205     32208     32211     32213     32205     32208     32211     32214
     32206     32205     32208     32209     32206     32205     32208     32210
     32206     32205     32208     32211     32207     32205     32208     32209
     32207     32205     32208     32210     32207     32205     32208     32211
     32208     32211     32214     32215     32208     32211     32214     32216
     32208     32211     32214     32217     32209     32208     32211     32212
     32209     32208     32211     32213     32209     32208     32211     32214
     32210     32208     32211     32212     32210     32208     32211     32213
     32210     32208     32211     32214     32211     32214     32217     32218
     32211     32214     32217     32219     32211     32214     32217     32220
     32212     32211     32214     32215     32212     32211     32214     32216
     32212     32211     32214     32217     32213     32211     32214     32215
     32213     32211     32214     32216     32213     32211     32214     32217
     32214     32217     32220     32221     32214     32217     32220     32222
     32214     32217     32220     32223     32215     32214     32217     32218
     32215     32214     32217     32219     32215     32214     32217     32220
     32216     32214     32217     32218     32216     32214     32217     32219
     32216     32214     32217     32220     32218     32217     32220     32221
     32218     32217     32220     32222     32218     32217     32220     32223
     32219     32217     32220     32221     32219     32217     32220     32222
     32219     32217     32220     32223     32224     32227     32230     32231
     32224     32227     32230     32232     32224     32227     32230     32233
     32225     32224     32227     32228     32225     32224     32227     32229
     32225     32224     32227     32230     32226     32224     32227     32228
     32226     32224     32227     32229     32226     32224     32227     32230
     32227     32230     32233     32234     32227     32230     32233     32235
     32227     32230     32233     32236     32228     32227     32230     32231
     32228     32227     32230     32232     32228     32227     32230     32233
     32229     32227     32230     32231     32229     32227     32230     32232
     32229     32227     32230     32233     32230     32233     32236     32237
     32230     32233     32236     32238     32230     32233     32236     32239
     32231     32230     32233     32234     32231     32230     32233     32235
     32231     32230     32233     32236     32232     32230     32233     32234
     32232     32230     32233     32235     32232     32230     32233     32236
     32233     32236     32239     32240     32233     32236     32239     32241
     32233     32236     32239     32242     32234     32233     32236     32237
     32234     32233     32236     32238     32234     32233     32236     32239
     32235     32233     32236     32237     32235     32233     32236     32238
     32235     32233     32236     32239     32236     32239     32242     32243
     32236     32239     32242     32244     32236     32239     32242     32245
     32237     32236     32239     32240     32237     32236     32239     32241
     32237     32236     32239     32242     32238     32236     32239     32240
     32238     32236     32239     32241     32238     32236     32239     32242
     32239     32242     32245     32246     32239     32242     32245     32247
     32239     32242     32245     32248     32240     32239     32242     32243
     32240     32239     32242     32244     32240     32239     32242     32245
     32241     32239     32242     32243     32241     32239     32242     32244
     32241     32239     32242     32245     32242     32245     32248     32249
     32242     32245     32248     32250     32242     32245     32248     32251
     32243     32242     32245     32246     32243     32242     32245     32247
     32243     32242     32245     32248     32244     32242     32245     32246
     32244     32242     32245     32247     32244     32242     32245     32248
     32245     32248     32251     32252     32245     32248     32251     32253
     32245     32248     32251     32254     32246     32245     32248     32249
     32246     32245     32248     32250     32246     32245     32248     32251
     32247     32245     32248     32249     32247     32245     32248     32250
     32247     32245     32248     32251     32248     32251     32254     32255
     32248     32251     32254     32256     32248     32251     32254     32257
     32249     32248     32251     32252     32249     32248     32251     32253
     32249     32248     32251     32254     32250     32248     32251     32252
     32250     32248     32251     32253     32250     32248     32251     32254
     32251     32254     32257     32258     32251     32254     32257     32259
     32251     32254     32257     32260     32252     32251     32254     32255
     32252     32251     32254     32256     32252     32251     32254     32257
     32253     32251     32254     32255     32253     32251     32254     32256
     32253     32251     32254     32257     32254     32257     32260     32261
     32254     32257     32260     32262     32254     32257     32260     32263
     32255     32254     32257     32258     32255     32254     32257     32259
     32255     32254     32257     32260     32256     32254     32257     32258
     32256     32254     32257     32259     32256     32254     32257     32260
     32257     32260     32263     32264     32257     32260     32263     32265
     32257     32260     32263     32266     32258     32257     32260     32261
     32258     32257     32260     32262     32258     32257     32260     32263
     32259     32257     32260     32261     32259     32257     32260     32262
     32259     32257     32260     32263     32261     32260     32263     32264
     32261     32260     32263     32265     32261     32260     32263     32266
     32262     32260     32263     32264     32262     32260     32263     32265
     32262     32260     32263     32266     32267     32268     32283     32284
     32267     32268     32283     32285     32267     32268     32283     32289
     32268     32267     32271     32272     32268     32267     32271     32273
     32268     32267     32271     32274     32268     32267     32275     32276
     32268     32267     32275     32277     32268     32267     32275     32278
     32268     32267     32279     32280     32268     32267     32279     32281
     32268     32267     32279     32282     32268     32283     32289     32286
     32269     32268     32267     32271     32269     32268     32267     32275
     32269     32268     32267     32279     32269     32268     32283     32284
     32269     32268     32283     32285     32269     32268     32283     32289
     32270     32268     32267     32271     32270     32268     32267     32275
     32270     32268     32267     32279     32270     32268     32283     32284
     32270     32268     32283     32285     32270     32268     32283     32289
     32271     32267     32268     32283     32271     32267     32275     32276
     32271     32267     32275     32277     32271     32267     32275     32278
     32271     32267     32279     32280     32271     32267     32279     32281
     32271     32267     32279     32282     32272     32271     32267     32275
     32272     32271     32267     32279     32273     32271     32267     32275
     32273     32271     32267     32279     32274     32271     32267     32275
     32274     32271     32267     32279     32275     32267     32268     32283
     32275     32267     32279     32280     32275     32267     32279     32281
     32275     32267     32279     32282     32276     32275     32267     32279
     32277     32275     32267     32279     32278     32275     32267     32279
     32279     32267     32268     32283     32283     32289     32286     32287
     32283     32289     32286     32288     32283     32289     32286     32290
     32284     32283     32289     32286     32285     32283     32289     32286
     32286     32290     32291     32292     32286     32290     32291     32293
     32286     32290     32291     32294     32287     32286     32290     32291
     32288     32286     32290     32291     32289     32286     32290     32291
     32290     32291     32294     32295     32290     32291     32294     32296
     32290     32291     32294     32302     32291     32294     32296     32297
     32291     32294     32302     32303     32291     32294     32302     32304
     32291     32294     32302     32305     32292     32291     32294     32295
     32292     32291     32294     32296     32292     32291     32294     32302
     32293     32291     32294     32295     32293     32291     32294     32296
     32293     32291     32294     32302     32294     32296     32297     32298
     32294     32296     32297     32299     32294     32302     32305     32306
     32295     32294     32296     32297     32295     32294     32302     32303
     32295     32294     32302     32304     32295     32294     32302     32305
     32296     32294     32302     32303     32296     32294     32302     32304
     32296     32294     32302     32305     32296     32297     32299     32300
     32296     32297     32299     32301     32296     32297     32299     32311
     32297     32296     32294     32302     32297     32299     32311     32312
     32297     32299     32311     32313     32297     32299     32311     32314
     32298     32297     32299     32300     32298     32297     32299     32301
     32298     32297     32299     32311     32299     32311     32314     32315
     32299     32311     32314     32316     32299     32311     32314     32317
     32300     32299     32311     32312     32300     32299     32311     32313
     32300     32299     32311     32314     32301     32299     32311     32312
     32301     32299     32311     32313     32301     32299     32311     32314
     32302     32305     32306     32307     32302     32305     32306     32308
     32303     32302     32305     32306     32304     32302     32305     32306
     32305     32306     32308     32309     32305     32306     32308     32310
     32305     32306     32308     32358     32306     32308     32358     32359
     32306     32308     32358     32360     32306     32308     32358     32361
     32307     32306     32308     32309     32307     32306     32308     32310
     32307     32306     32308     32358     32308     32358     32361     32362
     32308     32358     32361     32363     32308     32358     32361     32364
     32309     32308     32358     32359     32309     32308     32358     32360
     32309     32308     32358     32361     32310     32308     32358     32359
     32310     32308     32358     32360     32310     32308     32358     32361
     32311     32314     32317     32318     32311     32314     32317     32319
     32311     32314     32317     32320     32312     32311     32314     32315
     32312     32311     32314     32316     32312     32311     32314     32317
     32313     32311     32314     32315     32313     32311     32314     32316
     32313     32311     32314     32317     32314     32317     32320     32321
     32314     32317     32320     32322     32314     32317     32320     32323
     32315     32314     32317     32318     32315     32314     32317     32319
     32315     32314     32317     32320     32316     32314     32317     32318
     32316     32314     32317     32319     32316     32314     32317     32320
     32317     32320     32323     32324     32317     32320     32323     32325
     32317     32320     32323     32326     32318     32317     32320     32321
     32318     32317     32320     32322     32318     32317     32320     32323
     32319     32317     32320     32321     32319     32317     32320     32322
     32319     32317     32320     32323     32320     32323     32326     32327
     32320     32323     32326     32328     32320     32323     32326     32329
     32321     32320     32323     32324     32321     32320     32323     32325
     32321     32320     32323     32326     32322     32320     32323     32324
     32322     32320     32323     32325     32322     32320     32323     32326
     32323     32326     32329     32330     32323     32326     32329     32331
     32324     32323     32326     32327     32324     32323     32326     32328
     32324     32323     32326     32329     32325     32323     32326     32327
     32325     32323     32326     32328     32325     32323     32326     32329
     32326     32329     32331     32332     32326     32329     32331     32333
     32327     32326     32329     32330     32327     32326     32329     32331
     32328     32326     32329     32330     32328     32326     32329     32331
     32329     32331     32333     32334     32329     32331     32333     32335
     32329     32331     32333     32336     32330     32329     32331     32332
     32330     32329     32331     32333     32331     32333     32336     32337
     32331     32333     32336     32338     32331     32333     32336     32339
     32332     32331     32333     32334     32332     32331     32333     32335
     32332     32331     32333     32336     32333     32336     32339     32340
     32333     32336     32339     32341     32333     32336     32339     32342
     32334     32333     32336     32337     32334     32333     32336     32338
     32334     32333     32336     32339     32335     32333     32336     32337
     32335     32333     32336     32338     32335     32333     32336     32339
     32336     32339     32342     32343     32336     32339     32342     32344
     32336     32339     32342     32345     32337     32336     32339     32340
     32337     32336     32339     32341     32337     32336     32339     32342
     32338     32336     32339     32340     32338     32336     32339     32341
     32338     32336     32339     32342     32339     32342     32345     32346
     32339     32342     32345     32347     32339     32342     32345     32348
     32340     32339     32342     32343     32340     32339     32342     32344
     32340     32339     32342     32345     32341     32339     32342     32343
     32341     32339     32342     32344     32341     32339     32342     32345
     32342     32345     32348     32349     32342     32345     32348     32350
     32342     32345     32348     32351     32343     32342     32345     32346
     32343     32342     32345     32347     32343     32342     32345     32348
     32344     32342     32345     32346     32344     32342     32345     32347
     32344     32342     32345     32348     32345     32348     32351     32352
     32345     32348     32351     32353     32345     32348     32351     32354
     32346     32345     32348     32349     32346     32345     32348     32350
     32346     32345     32348     32351     32347     32345     32348     32349
     32347     32345     32348     32350     32347     32345     32348     32351
     32348     32351     32354     32355     32348     32351     32354     32356
     32348     32351     32354     32357     32349     32348     32351     32352
     32349     32348     32351     32353     32349     32348     32351     32354
     32350     32348     32351     32352     32350     32348     32351     32353
     32350     32348     32351     32354     32352     32351     32354     32355
     32352     32351     32354     32356     32352     32351     32354     32357
     32353     32351     32354     32355     32353     32351     32354     32356
     32353     32351     32354     32357     32358     32361     32364     32365
     32358     32361     32364     32366     32358     32361     32364     32367
     32359     32358     32361     32362     32359     32358     32361     32363
     32359     32358     32361     32364     32360     32358     32361     32362
     32360     32358     32361     32363     32360     32358     32361     32364
     32361     32364     32367     32368     32361     32364     32367     32369
     32361     32364     32367     32370     32362     32361     32364     32365
     32362     32361     32364     32366     32362     32361     32364     32367
     32363     32361     32364     32365     32363     32361     32364     32366
     32363     32361     32364     32367     32364     32367     32370     32371
     32364     32367     32370     32372     32364     32367     32370     32373
     32365     32364     32367     32368     32365     32364     32367     32369
     32365     32364     32367     32370     32366     32364     32367     32368
     32366     32364     32367     32369     32366     32364     32367     32370
     32367     32370     32373     32374     32367     32370     32373     32375
     32367     32370     32373     32376     32368     32367     32370     32371
     32368     32367     32370     32372     32368     32367     32370     32373
     32369     32367     32370     32371     32369     32367     32370     32372
     32369     32367     32370     32373     32370     32373     32376     32377
     32370     32373     32376     32378     32370     32373     32376     32379
     32371     32370     32373     32374     32371     32370     32373     32375
     32371     32370     32373     32376     32372     32370     32373     32374
     32372     32370     32373     32375     32372     32370     32373     32376
     32373     32376     32379     32380     32373     32376     32379     32381
     32373     32376     32379     32382     32374     32373     32376     32377
     32374     32373     32376     32378     32374     32373     32376     32379
     32375     32373     32376     32377     32375     32373     32376     32378
     32375     32373     32376     32379     32376     32379     32382     32383
     32376     32379     32382     32384     32376     32379     32382     32385
     32377     32376     32379     32380     32377     32376     32379     32381
     32377     32376     32379     32382     32378     32376     32379     32380
     32378     32376     32379     32381     32378     32376     32379     32382
     32379     32382     32385     32386     32379     32382     32385     32387
     32379     32382     32385     32388     32380     32379     32382     32383
     32380     32379     32382     32384     32380     32379     32382     32385
     32381     32379     32382     32383     32381     32379     32382     32384
     32381     32379     32382     32385     32382     32385     32388     32389
     32382     32385     32388     32390     32382     32385     32388     32391
     32383     32382     32385     32386     32383     32382     32385     32387
     32383     32382     32385     32388     32384     32382     32385     32386
     32384     32382     32385     32387     32384     32382     32385     32388
     32385     32388     32391     32392     32385     32388     32391     32393
     32385     32388     32391     32394     32386     32385     32388     32389
     32386     32385     32388     32390     32386     32385     32388     32391
     32387     32385     32388     32389     32387     32385     32388     32390
     32387     32385     32388     32391     32388     32391     32394     32395
     32388     32391     32394     32396     32388     32391     32394     32397
     32389     32388     32391     32392     32389     32388     32391     32393
     32389     32388     32391     32394     32390     32388     32391     32392
     32390     32388     32391     32393     32390     32388     32391     32394
     32391     32394     32397     32398     32391     32394     32397     32399
     32391     32394     32397     32400     32392     32391     32394     32395
     32392     32391     32394     32396     32392     32391     32394     32397
     32393     32391     32394     32395     32393     32391     32394     32396
     32393     32391     32394     32397     32395     32394     32397     32398
     32395     32394     32397     32399     32395     32394     32397     32400
     32396     32394     32397     32398     32396     32394     32397     32399
     32396     32394     32397     32400     32401     32402     32417     32418
     32401     32402     32417     32419     32401     32402     32417     32423
     32402     32401     32405     32406     32402     32401     32405     32407
     32402     32401     32405     32408     32402     32401     32409     32410
     32402     32401     32409     32411     32402     32401     32409     32412
     32402     32401     32413     32414     32402     32401     32413     32415
     32402     32401     32413     32416     32402     32417     32423     32420
     32403     32402     32401     32405     32403     32402     32401     32409
     32403     32402     32401     32413     32403     32402     32417     32418
     32403     32402     32417     32419     32403     32402     32417     32423
     32404     32402     32401     32405     32404     32402     32401     32409
     32404     32402     32401     32413     32404     32402     32417     32418
     32404     32402     32417     32419     32404     32402     32417     32423
     32405     32401     32402     32417     32405     32401     32409     32410
     32405     32401     32409     32411     32405     32401     32409     32412
     32405     32401     32413     32414     32405     32401     32413     32415
     32405     32401     32413     32416     32406     32405     32401     32409
     32406     32405     32401     32413     32407     32405     32401     32409
     32407     32405     32401     32413     32408     32405     32401     32409
     32408     32405     32401     32413     32409     32401     32402     32417
     32409     32401     32413     32414     32409     32401     32413     32415
     32409     32401     32413     32416     32410     32409     32401     32413
     32411     32409     32401     32413     32412     32409     32401     32413
     32413     32401     32402     32417     32417     32423     32420     32421
     32417     32423     32420     32422     32417     32423     32420     32424
     32418     32417     32423     32420     32419     32417     32423     32420
     32420     32424     32425     32426     32420     32424     32425     32427
     32420     32424     32425     32428     32421     32420     32424     32425
     32422     32420     32424     32425     32423     32420     32424     32425
     32424     32425     32428     32429     32424     32425     32428     32430
     32424     32425     32428     32436     32425     32428     32430     32431
     32425     32428     32436     32437     32425     32428     32436     32438
     32425     32428     32436     32439     32426     32425     32428     32429
     32426     32425     32428     32430     32426     32425     32428     32436
     32427     32425     32428     32429     32427     32425     32428     32430
     32427     32425     32428     32436     32428     32430     32431     32432
     32428     32430     32431     32433     32428     32436     32439     32440
     32429     32428     32430     32431     32429     32428     32436     32437
     32429     32428     32436     32438     32429     32428     32436     32439
     32430     32428     32436     32437     32430     32428     32436     32438
     32430     32428     32436     32439     32430     32431     32433     32434
     32430     32431     32433     32435     32430     32431     32433     32445
     32431     32430     32428     32436     32431     32433     32445     32446
     32431     32433     32445     32447     32431     32433     32445     32448
     32432     32431     32433     32434     32432     32431     32433     32435
     32432     32431     32433     32445     32433     32445     32448     32449
     32433     32445     32448     32450     32433     32445     32448     32451
     32434     32433     32445     32446     32434     32433     32445     32447
     32434     32433     32445     32448     32435     32433     32445     32446
     32435     32433     32445     32447     32435     32433     32445     32448
     32436     32439     32440     32441     32436     32439     32440     32442
     32437     32436     32439     32440     32438     32436     32439     32440
     32439     32440     32442     32443     32439     32440     32442     32444
     32439     32440     32442     32492     32440     32442     32492     32493
     32440     32442     32492     32494     32440     32442     32492     32495
     32441     32440     32442     32443     32441     32440     32442     32444
     32441     32440     32442     32492     32442     32492     32495     32496
     32442     32492     32495     32497     32442     32492     32495     32498
     32443     32442     32492     32493     32443     32442     32492     32494
     32443     32442     32492     32495     32444     32442     32492     32493
     32444     32442     32492     32494     32444     32442     32492     32495
     32445     32448     32451     32452     32445     32448     32451     32453
     32445     32448     32451     32454     32446     32445     32448     32449
     32446     32445     32448     32450     32446     32445     32448     32451
     32447     32445     32448     32449     32447     32445     32448     32450
     32447     32445     32448     32451     32448     32451     32454     32455
     32448     32451     32454     32456     32448     32451     32454     32457
     32449     32448     32451     32452     32449     32448     32451     32453
     32449     32448     32451     32454     32450     32448     32451     32452
     32450     32448     32451     32453     32450     32448     32451     32454
     32451     32454     32457     32458     32451     32454     32457     32459
     32451     32454     32457     32460     32452     32451     32454     32455
     32452     32451     32454     32456     32452     32451     32454     32457
     32453     32451     32454     32455     32453     32451     32454     32456
     32453     32451     32454     32457     32454     32457     32460     32461
     32454     32457     32460     32462     32454     32457     32460     32463
     32455     32454     32457     32458     32455     32454     32457     32459
     32455     32454     32457     32460     32456     32454     32457     32458
     32456     32454     32457     32459     32456     32454     32457     32460
     32457     32460     32463     32464     32457     32460     32463     32465
     32458     32457     32460     32461     32458     32457     32460     32462
     32458     32457     32460     32463     32459     32457     32460     32461
     32459     32457     32460     32462     32459     32457     32460     32463
     32460     32463     32465     32466     32460     32463     32465     32467
     32461     32460     32463     32464     32461     32460     32463     32465
     32462     32460     32463     32464     32462     32460     32463     32465
     32463     32465     32467     32468     32463     32465     32467     32469
     32463     32465     32467     32470     32464     32463     32465     32466
     32464     32463     32465     32467     32465     32467     32470     32471
     32465     32467     32470     32472     32465     32467     32470     32473
     32466     32465     32467     32468     32466     32465     32467     32469
     32466     32465     32467     32470     32467     32470     32473     32474
     32467     32470     32473     32475     32467     32470     32473     32476
     32468     32467     32470     32471     32468     32467     32470     32472
     32468     32467     32470     32473     32469     32467     32470     32471
     32469     32467     32470     32472     32469     32467     32470     32473
     32470     32473     32476     32477     32470     32473     32476     32478
     32470     32473     32476     32479     32471     32470     32473     32474
     32471     32470     32473     32475     32471     32470     32473     32476
     32472     32470     32473     32474     32472     32470     32473     32475
     32472     32470     32473     32476     32473     32476     32479     32480
     32473     32476     32479     32481     32473     32476     32479     32482
     32474     32473     32476     32477     32474     32473     32476     32478
     32474     32473     32476     32479     32475     32473     32476     32477
     32475     32473     32476     32478     32475     32473     32476     32479
     32476     32479     32482     32483     32476     32479     32482     32484
     32476     32479     32482     32485     32477     32476     32479     32480
     32477     32476     32479     32481     32477     32476     32479     32482
     32478     32476     32479     32480     32478     32476     32479     32481
     32478     32476     32479     32482     32479     32482     32485     32486
     32479     32482     32485     32487     32479     32482     32485     32488
     32480     32479     32482     32483     32480     32479     32482     32484
     32480     32479     32482     32485     32481     32479     32482     32483
     32481     32479     32482     32484     32481     32479     32482     32485
     32482     32485     32488     32489     32482     32485     32488     32490
     32482     32485     32488     32491     32483     32482     32485     32486
     32483     32482     32485     32487     32483     32482     32485     32488
     32484     32482     32485     32486     32484     32482     32485     32487
     32484     32482     32485     32488     32486     32485     32488     32489
     32486     32485     32488     32490     32486     32485     32488     32491
     32487     32485     32488     32489     32487     32485     32488     32490
     32487     32485     32488     32491     32492     32495     32498     32499
     32492     32495     32498     32500     32492     32495     32498     32501
     32493     32492     32495     32496     32493     32492     32495     32497
     32493     32492     32495     32498     32494     32492     32495     32496
     32494     32492     32495     32497     32494     32492     32495     32498
     32495     32498     32501     32502     32495     32498     32501     32503
     32495     32498     32501     32504     32496     32495     32498     32499
     32496     32495     32498     32500     32496     32495     32498     32501
     32497     32495     32498     32499     32497     32495     32498     32500
     32497     32495     32498     32501     32498     32501     32504     32505
     32498     32501     32504     32506     32498     32501     32504     32507
     32499     32498     32501     32502     32499     32498     32501     32503
     32499     32498     32501     32504     32500     32498     32501     32502
     32500     32498     32501     32503     32500     32498     32501     32504
     32501     32504     32507     32508     32501     32504     32507     32509
     32501     32504     32507     32510     32502     32501     32504     32505
     32502     32501     32504     32506     32502     32501     32504     32507
     32503     32501     32504     32505     32503     32501     32504     32506
     32503     32501     32504     32507     32504     32507     32510     32511
     32504     32507     32510     32512     32504     32507     32510     32513
     32505     32504     32507     32508     32505     32504     32507     32509
     32505     32504     32507     32510     32506     32504     32507     32508
     32506     32504     32507     32509     32506     32504     32507     32510
     32507     32510     32513     32514     32507     32510     32513     32515
     32507     32510     32513     32516     32508     32507     32510     32511
     32508     32507     32510     32512     32508     32507     32510     32513
     32509     32507     32510     32511     32509     32507     32510     32512
     32509     32507     32510     32513     32510     32513     32516     32517
     32510     32513     32516     32518     32510     32513     32516     32519
     32511     32510     32513     32514     32511     32510     32513     32515
     32511     32510     32513     32516     32512     32510     32513     32514
     32512     32510     32513     32515     32512     32510     32513     32516
     32513     32516     32519     32520     32513     32516     32519     32521
     32513     32516     32519     32522     32514     32513     32516     32517
     32514     32513     32516     32518     32514     32513     32516     32519
     32515     32513     32516     32517     32515     32513     32516     32518
     32515     32513     32516     32519     32516     32519     32522     32523
     32516     32519     32522     32524     32516     32519     32522     32525
     32517     32516     32519     32520     32517     32516     32519     32521
     32517     32516     32519     32522     32518     32516     32519     32520
     32518     32516     32519     32521     32518     32516     32519     32522
     32519     32522     32525     32526     32519     32522     32525     32527
     32519     32522     32525     32528     32520     32519     32522     32523
     32520     32519     32522     32524     32520     32519     32522     32525
     32521     32519     32522     32523     32521     32519     32522     32524
     32521     32519     32522     32525     32522     32525     32528     32529
     32522     32525     32528     32530     32522     32525     32528     32531
     32523     32522     32525     32526     32523     32522     32525     32527
     32523     32522     32525     32528     32524     32522     32525     32526
     32524     32522     32525     32527     32524     32522     32525     32528
     32525     32528     32531     32532     32525     32528     32531     32533
     32525     32528     32531     32534     32526     32525     32528     32529
     32526     32525     32528     32530     32526     32525     32528     32531
     32527     32525     32528     32529     32527     32525     32528     32530
     32527     32525     32528     32531     32529     32528     32531     32532
     32529     32528     32531     32533     32529     32528     32531     32534
     32530     32528     32531     32532     32530     32528     32531     32533
     32530     32528     32531     32534     32535     32536     32551     32552
     32535     32536     32551     32553     32535     32536     32551     32557
     32536     32535     32539     32540     32536     32535     32539     32541
     32536     32535     32539     32542     32536     32535     32543     32544
     32536     32535     32543     32545     32536     32535     32543     32546
     32536     32535     32547     32548     32536     32535     32547     32549
     32536     32535     32547     32550     32536     32551     32557     32554
     32537     32536     32535     32539     32537     32536     32535     32543
     32537     32536     32535     32547     32537     32536     32551     32552
     32537     32536     32551     32553     32537     32536     32551     32557
     32538     32536     32535     32539     32538     32536     32535     32543
     32538     32536     32535     32547     32538     32536     32551     32552
     32538     32536     32551     32553     32538     32536     32551     32557
     32539     32535     32536     32551     32539     32535     32543     32544
     32539     32535     32543     32545     32539     32535     32543     32546
     32539     32535     32547     32548     32539     32535     32547     32549
     32539     32535     32547     32550     32540     32539     32535     32543
     32540     32539     32535     32547     32541     32539     32535     32543
     32541     32539     32535     32547     32542     32539     32535     32543
     32542     32539     32535     32547     32543     32535     32536     32551
     32543     32535     32547     32548     32543     32535     32547     32549
     32543     32535     32547     32550     32544     32543     32535     32547
     32545     32543     32535     32547     32546     32543     32535     32547
     32547     32535     32536     32551     32551     32557     32554     32555
     32551     32557     32554     32556     32551     32557     32554     32558
     32552     32551     32557     32554     32553     32551     32557     32554
     32554     32558     32559     32560     32554     32558     32559     32561
     32554     32558     32559     32562     32555     32554     32558     32559
     32556     32554     32558     32559     32557     32554     32558     32559
     32558     32559     32562     32563     32558     32559     32562     32564
     32558     32559     32562     32570     32559     32562     32564     32565
     32559     32562     32570     32571     32559     32562     32570     32572
     32559     32562     32570     32573     32560     32559     32562     32563
     32560     32559     32562     32564     32560     32559     32562     32570
     32561     32559     32562     32563     32561     32559     32562     32564
     32561     32559     32562     32570     32562     32564     32565     32566
     32562     32564     32565     32567     32562     32570     32573     32574
     32563     32562     32564     32565     32563     32562     32570     32571
     32563     32562     32570     32572     32563     32562     32570     32573
     32564     32562     32570     32571     32564     32562     32570     32572
     32564     32562     32570     32573     32564     32565     32567     32568
     32564     32565     32567     32569     32564     32565     32567     32579
     32565     32564     32562     32570     32565     32567     32579     32580
     32565     32567     32579     32581     32565     32567     32579     32582
     32566     32565     32567     32568     32566     32565     32567     32569
     32566     32565     32567     32579     32567     32579     32582     32583
     32567     32579     32582     32584     32567     32579     32582     32585
     32568     32567     32579     32580     32568     32567     32579     32581
     32568     32567     32579     32582     32569     32567     32579     32580
     32569     32567     32579     32581     32569     32567     32579     32582
     32570     32573     32574     32575     32570     32573     32574     32576
     32571     32570     32573     32574     32572     32570     32573     32574
     32573     32574     32576     32577     32573     32574     32576     32578
     32573     32574     32576     32626     32574     32576     32626     32627
     32574     32576     32626     32628     32574     32576     32626     32629
     32575     32574     32576     32577     32575     32574     32576     32578
     32575     32574     32576     32626     32576     32626     32629     32630
     32576     32626     32629     32631     32576     32626     32629     32632
     32577     32576     32626     32627     32577     32576     32626     32628
     32577     32576     32626     32629     32578     32576     32626     32627
     32578     32576     32626     32628     32578     32576     32626     32629
     32579     32582     32585     32586     32579     32582     32585     32587
     32579     32582     32585     32588     32580     32579     32582     32583
     32580     32579     32582     32584     32580     32579     32582     32585
     32581     32579     32582     32583     32581     32579     32582     32584
     32581     32579     32582     32585     32582     32585     32588     32589
     32582     32585     32588     32590     32582     32585     32588     32591
     32583     32582     32585     32586     32583     32582     32585     32587
     32583     32582     32585     32588     32584     32582     32585     32586
     32584     32582     32585     32587     32584     32582     32585     32588
     32585     32588     32591     32592     32585     32588     32591     32593
     32585     32588     32591     32594     32586     32585     32588     32589
     32586     32585     32588     32590     32586     32585     32588     32591
     32587     32585     32588     32589     32587     32585     32588     32590
     32587     32585     32588     32591     32588     32591     32594     32595
     32588     32591     32594     32596     32588     32591     32594     32597
     32589     32588     32591     32592     32589     32588     32591     32593
     32589     32588     32591     32594     32590     32588     32591     32592
     32590     32588     32591     32593     32590     32588     32591     32594
     32591     32594     32597     32598     32591     32594     32597     32599
     32592     32591     32594     32595     32592     32591     32594     32596
     32592     32591     32594     32597     32593     32591     32594     32595
     32593     32591     32594     32596     32593     32591     32594     32597
     32594     32597     32599     32600     32594     32597     32599     32601
     32595     32594     32597     32598     32595     32594     32597     32599
     32596     32594     32597     32598     32596     32594     32597     32599
     32597     32599     32601     32602     32597     32599     32601     32603
     32597     32599     32601     32604     32598     32597     32599     32600
     32598     32597     32599     32601     32599     32601     32604     32605
     32599     32601     32604     32606     32599     32601     32604     32607
     32600     32599     32601     32602     32600     32599     32601     32603
     32600     32599     32601     32604     32601     32604     32607     32608
     32601     32604     32607     32609     32601     32604     32607     32610
     32602     32601     32604     32605     32602     32601     32604     32606
     32602     32601     32604     32607     32603     32601     32604     32605
     32603     32601     32604     32606     32603     32601     32604     32607
     32604     32607     32610     32611     32604     32607     32610     32612
     32604     32607     32610     32613     32605     32604     32607     32608
     32605     32604     32607     32609     32605     32604     32607     32610
     32606     32604     32607     32608     32606     32604     32607     32609
     32606     32604     32607     32610     32607     32610     32613     32614
     32607     32610     32613     32615     32607     32610     32613     32616
     32608     32607     32610     32611     32608     32607     32610     32612
     32608     32607     32610     32613     32609     32607     32610     32611
     32609     32607     32610     32612     32609     32607     32610     32613
     32610     32613     32616     32617     32610     32613     32616     32618
     32610     32613     32616     32619     32611     32610     32613     32614
     32611     32610     32613     32615     32611     32610     32613     32616
     32612     32610     32613     32614     32612     32610     32613     32615
     32612     32610     32613     32616     32613     32616     32619     32620
     32613     32616     32619     32621     32613     32616     32619     32622
     32614     32613     32616     32617     32614     32613     32616     32618
     32614     32613     32616     32619     32615     32613     32616     32617
     32615     32613     32616     32618     32615     32613     32616     32619
     32616     32619     32622     32623     32616     32619     32622     32624
     32616     32619     32622     32625     32617     32616     32619     32620
     32617     32616     32619     32621     32617     32616     32619     32622
     32618     32616     32619     32620     32618     32616     32619     32621
     32618     32616     32619     32622     32620     32619     32622     32623
     32620     32619     32622     32624     32620     32619     32622     32625
     32621     32619     32622     32623     32621     32619     32622     32624
     32621     32619     32622     32625     32626     32629     32632     32633
     32626     32629     32632     32634     32626     32629     32632     32635
     32627     32626     32629     32630     32627     32626     32629     32631
     32627     32626     32629     32632     32628     32626     32629     32630
     32628     32626     32629     32631     32628     32626     32629     32632
     32629     32632     32635     32636     32629     32632     32635     32637
     32629     32632     32635     32638     32630     32629     32632     32633
     32630     32629     32632     32634     32630     32629     32632     32635
     32631     32629     32632     32633     32631     32629     32632     32634
     32631     32629     32632     32635     32632     32635     32638     32639
     32632     32635     32638     32640     32632     32635     32638     32641
     32633     32632     32635     32636     32633     32632     32635     32637
     32633     32632     32635     32638     32634     32632     32635     32636
     32634     32632     32635     32637     32634     32632     32635     32638
     32635     32638     32641     32642     32635     32638     32641     32643
     32635     32638     32641     32644     32636     32635     32638     32639
     32636     32635     32638     32640     32636     32635     32638     32641
     32637     32635     32638     32639     32637     32635     32638     32640
     32637     32635     32638     32641     32638     32641     32644     32645
     32638     32641     32644     32646     32638     32641     32644     32647
     32639     32638     32641     32642     32639     32638     32641     32643
     32639     32638     32641     32644     32640     32638     32641     32642
     32640     32638     32641     32643     32640     32638     32641     32644
     32641     32644     32647     32648     32641     32644     32647     32649
     32641     32644     32647     32650     32642     32641     32644     32645
     32642     32641     32644     32646     32642     32641     32644     32647
     32643     32641     32644     32645     32643     32641     32644     32646
     32643     32641     32644     32647     32644     32647     32650     32651
     32644     32647     32650     32652     32644     32647     32650     32653
     32645     32644     32647     32648     32645     32644     32647     32649
     32645     32644     32647     32650     32646     32644     32647     32648
     32646     32644     32647     32649     32646     32644     32647     32650
     32647     32650     32653     32654     32647     32650     32653     32655
     32647     32650     32653     32656     32648     32647     32650     32651
     32648     32647     32650     32652     32648     32647     32650     32653
     32649     32647     32650     32651     32649     32647     32650     32652
     32649     32647     32650     32653     32650     32653     32656     32657
     32650     32653     32656     32658     32650     32653     32656     32659
     32651     32650     32653     32654     32651     32650     32653     32655
     32651     32650     32653     32656     32652     32650     32653     32654
     32652     32650     32653     32655     32652     32650     32653     32656
     32653     32656     32659     32660     32653     32656     32659     32661
     32653     32656     32659     32662     32654     32653     32656     32657
     32654     32653     32656     32658     32654     32653     32656     32659
     32655     32653     32656     32657     32655     32653     32656     32658
     32655     32653     32656     32659     32656     32659     32662     32663
     32656     32659     32662     32664     32656     32659     32662     32665
     32657     32656     32659     32660     32657     32656     32659     32661
     32657     32656     32659     32662     32658     32656     32659     32660
     32658     32656     32659     32661     32658     32656     32659     32662
     32659     32662     32665     32666     32659     32662     32665     32667
     32659     32662     32665     32668     32660     32659     32662     32663
     32660     32659     32662     32664     32660     32659     32662     32665
     32661     32659     32662     32663     32661     32659     32662     32664
     32661     32659     32662     32665     32663     32662     32665     32666
     32663     32662     32665     32667     32663     32662     32665     32668
     32664     32662     32665     32666     32664     32662     32665     32667
     32664     32662     32665     32668     32669     32670     32685     32686
     32669     32670     32685     32687     32669     32670     32685     32691
     32670     32669     32673     32674     32670     32669     32673     32675
     32670     32669     32673     32676     32670     32669     32677     32678
     32670     32669     32677     32679     32670     32669     32677     32680
     32670     32669     32681     32682     32670     32669     32681     32683
     32670     32669     32681     32684     32670     32685     32691     32688
     32671     32670     32669     32673     32671     32670     32669     32677
     32671     32670     32669     32681     32671     32670     32685     32686
     32671     32670     32685     32687     32671     32670     32685     32691
     32672     32670     32669     32673     32672     32670     32669     32677
     32672     32670     32669     32681     32672     32670     32685     32686
     32672     32670     32685     32687     32672     32670     32685     32691
     32673     32669     32670     32685     32673     32669     32677     32678
     32673     32669     32677     32679     32673     32669     32677     32680
     32673     32669     32681     32682     32673     32669     32681     32683
     32673     32669     32681     32684     32674     32673     32669     32677
     32674     32673     32669     32681     32675     32673     32669     32677
     32675     32673     32669     32681     32676     32673     32669     32677
     32676     32673     32669     32681     32677     32669     32670     32685
     32677     32669     32681     32682     32677     32669     32681     32683
     32677     32669     32681     32684     32678     32677     32669     32681
     32679     32677     32669     32681     32680     32677     32669     32681
     32681     32669     32670     32685     32685     32691     32688     32689
     32685     32691     32688     32690     32685     32691     32688     32692
     32686     32685     32691     32688     32687     32685     32691     32688
     32688     32692     32693     32694     32688     32692     32693     32695
     32688     32692     32693     32696     32689     32688     32692     32693
     32690     32688     32692     32693     32691     32688     32692     32693
     32692     32693     32696     32697     32692     32693     32696     32698
     32692     32693     32696     32704     32693     32696     32698     32699
     32693     32696     32704     32705     32693     32696     32704     32706
     32693     32696     32704     32707     32694     32693     32696     32697
     32694     32693     32696     32698     32694     32693     32696     32704
     32695     32693     32696     32697     32695     32693     32696     32698
     32695     32693     32696     32704     32696     32698     32699     32700
     32696     32698     32699     32701     32696     32704     32707     32708
     32697     32696     32698     32699     32697     32696     32704     32705
     32697     32696     32704     32706     32697     32696     32704     32707
     32698     32696     32704     32705     32698     32696     32704     32706
     32698     32696     32704     32707     32698     32699     32701     32702
     32698     32699     32701     32703     32698     32699     32701     32713
     32699     32698     32696     32704     32699     32701     32713     32714
     32699     32701     32713     32715     32699     32701     32713     32716
     32700     32699     32701     32702     32700     32699     32701     32703
     32700     32699     32701     32713     32701     32713     32716     32717
     32701     32713     32716     32718     32701     32713     32716     32719
     32702     32701     32713     32714     32702     32701     32713     32715
     32702     32701     32713     32716     32703     32701     32713     32714
     32703     32701     32713     32715     32703     32701     32713     32716
     32704     32707     32708     32709     32704     32707     32708     32710
     32705     32704     32707     32708     32706     32704     32707     32708
     32707     32708     32710     32711     32707     32708     32710     32712
     32707     32708     32710     32760     32708     32710     32760     32761
     32708     32710     32760     32762     32708     32710     32760     32763
     32709     32708     32710     32711     32709     32708     32710     32712
     32709     32708     32710     32760     32710     32760     32763     32764
     32710     32760     32763     32765     32710     32760     32763     32766
     32711     32710     32760     32761     32711     32710     32760     32762
     32711     32710     32760     32763     32712     32710     32760     32761
     32712     32710     32760     32762     32712     32710     32760     32763
     32713     32716     32719     32720     32713     32716     32719     32721
     32713     32716     32719     32722     32714     32713     32716     32717
     32714     32713     32716     32718     32714     32713     32716     32719
     32715     32713     32716     32717     32715     32713     32716     32718
     32715     32713     32716     32719     32716     32719     32722     32723
     32716     32719     32722     32724     32716     32719     32722     32725
     32717     32716     32719     32720     32717     32716     32719     32721
     32717     32716     32719     32722     32718     32716     32719     32720
     32718     32716     32719     32721     32718     32716     32719     32722
     32719     32722     32725     32726     32719     32722     32725     32727
     32719     32722     32725     32728     32720     32719     32722     32723
     32720     32719     32722     32724     32720     32719     32722     32725
     32721     32719     32722     32723     32721     32719     32722     32724
     32721     32719     32722     32725     32722     32725     32728     32729
     32722     32725     32728     32730     32722     32725     32728     32731
     32723     32722     32725     32726     32723     32722     32725     32727
     32723     32722     32725     32728     32724     32722     32725     32726
     32724     32722     32725     32727     32724     32722     32725     32728
     32725     32728     32731     32732     32725     32728     32731     32733
     32726     32725     32728     32729     32726     32725     32728     32730
     32726     32725     32728     32731     32727     32725     32728     32729
     32727     32725     32728     32730     32727     32725     32728     32731
     32728     32731     32733     32734     32728     32731     32733     32735
     32729     32728     32731     32732     32729     32728     32731     32733
     32730     32728     32731     32732     32730     32728     32731     32733
     32731     32733     32735     32736     32731     32733     32735     32737
     32731     32733     32735     32738     32732     32731     32733     32734
     32732     32731     32733     32735     32733     32735     32738     32739
     32733     32735     32738     32740     32733     32735     32738     32741
     32734     32733     32735     32736     32734     32733     32735     32737
     32734     32733     32735     32738     32735     32738     32741     32742
     32735     32738     32741     32743     32735     32738     32741     32744
     32736     32735     32738     32739     32736     32735     32738     32740
     32736     32735     32738     32741     32737     32735     32738     32739
     32737     32735     32738     32740     32737     32735     32738     32741
     32738     32741     32744     32745     32738     32741     32744     32746
     32738     32741     32744     32747     32739     32738     32741     32742
     32739     32738     32741     32743     32739     32738     32741     32744
     32740     32738     32741     32742     32740     32738     32741     32743
     32740     32738     32741     32744     32741     32744     32747     32748
     32741     32744     32747     32749     32741     32744     32747     32750
     32742     32741     32744     32745     32742     32741     32744     32746
     32742     32741     32744     32747     32743     32741     32744     32745
     32743     32741     32744     32746     32743     32741     32744     32747
     32744     32747     32750     32751     32744     32747     32750     32752
     32744     32747     32750     32753     32745     32744     32747     32748
     32745     32744     32747     32749     32745     32744     32747     32750
     32746     32744     32747     32748     32746     32744     32747     32749
     32746     32744     32747     32750     32747     32750     32753     32754
     32747     32750     32753     32755     32747     32750     32753     32756
     32748     32747     32750     32751     32748     32747     32750     32752
     32748     32747     32750     32753     32749     32747     32750     32751
     32749     32747     32750     32752     32749     32747     32750     32753
     32750     32753     32756     32757     32750     32753     32756     32758
     32750     32753     32756     32759     32751     32750     32753     32754
     32751     32750     32753     32755     32751     32750     32753     32756
     32752     32750     32753     32754     32752     32750     32753     32755
     32752     32750     32753     32756     32754     32753     32756     32757
     32754     32753     32756     32758     32754     32753     32756     32759
     32755     32753     32756     32757     32755     32753     32756     32758
     32755     32753     32756     32759     32760     32763     32766     32767
     32760     32763     32766     32768     32760     32763     32766     32769
     32761     32760     32763     32764     32761     32760     32763     32765
     32761     32760     32763     32766     32762     32760     32763     32764
     32762     32760     32763     32765     32762     32760     32763     32766
     32763     32766     32769     32770     32763     32766     32769     32771
     32763     32766     32769     32772     32764     32763     32766     32767
     32764     32763     32766     32768     32764     32763     32766     32769
     32765     32763     32766     32767     32765     32763     32766     32768
     32765     32763     32766     32769     32766     32769     32772     32773
     32766     32769     32772     32774     32766     32769     32772     32775
     32767     32766     32769     32770     32767     32766     32769     32771
     32767     32766     32769     32772     32768     32766     32769     32770
     32768     32766     32769     32771     32768     32766     32769     32772
     32769     32772     32775     32776     32769     32772     32775     32777
     32769     32772     32775     32778     32770     32769     32772     32773
     32770     32769     32772     32774     32770     32769     32772     32775
     32771     32769     32772     32773     32771     32769     32772     32774
     32771     32769     32772     32775     32772     32775     32778     32779
     32772     32775     32778     32780     32772     32775     32778     32781
     32773     32772     32775     32776     32773     32772     32775     32777
     32773     32772     32775     32778     32774     32772     32775     32776
     32774     32772     32775     32777     32774     32772     32775     32778
     32775     32778     32781     32782     32775     32778     32781     32783
     32775     32778     32781     32784     32776     32775     32778     32779
     32776     32775     32778     32780     32776     32775     32778     32781
     32777     32775     32778     32779     32777     32775     32778     32780
     32777     32775     32778     32781     32778     32781     32784     32785
     32778     32781     32784     32786     32778     32781     32784     32787
     32779     32778     32781     32782     32779     32778     32781     32783
     32779     32778     32781     32784     32780     32778     32781     32782
     32780     32778     32781     32783     32780     32778     32781     32784
     32781     32784     32787     32788     32781     32784     32787     32789
     32781     32784     32787     32790     32782     32781     32784     32785
     32782     32781     32784     32786     32782     32781     32784     32787
     32783     32781     32784     32785     32783     32781     32784     32786
     32783     32781     32784     32787     32784     32787     32790     32791
     32784     32787     32790     32792     32784     32787     32790     32793
     32785     32784     32787     32788     32785     32784     32787     32789
     32785     32784     32787     32790     32786     32784     32787     32788
     32786     32784     32787     32789     32786     32784     32787     32790
     32787     32790     32793     32794     32787     32790     32793     32795
     32787     32790     32793     32796     32788     32787     32790     32791
     32788     32787     32790     32792     32788     32787     32790     32793
     32789     32787     32790     32791     32789     32787     32790     32792
     32789     32787     32790     32793     32790     32793     32796     32797
     32790     32793     32796     32798     32790     32793     32796     32799
     32791     32790     32793     32794     32791     32790     32793     32795
     32791     32790     32793     32796     32792     32790     32793     32794
     32792     32790     32793     32795     32792     32790     32793     32796
     32793     32796     32799     32800     32793     32796     32799     32801
     32793     32796     32799     32802     32794     32793     32796     32797
     32794     32793     32796     32798     32794     32793     32796     32799
     32795     32793     32796     32797     32795     32793     32796     32798
     32795     32793     32796     32799     32797     32796     32799     32800
     32797     32796     32799     32801     32797     32796     32799     32802
     32798     32796     32799     32800     32798     32796     32799     32801
     32798     32796     32799     32802     32803     32804     32819     32820
     32803     32804     32819     32821     32803     32804     32819     32825
     32804     32803     32807     32808     32804     32803     32807     32809
     32804     32803     32807     32810     32804     32803     32811     32812
     32804     32803     32811     32813     32804     32803     32811     32814
     32804     32803     32815     32816     32804     32803     32815     32817
     32804     32803     32815     32818     32804     32819     32825     32822
     32805     32804     32803     32807     32805     32804     32803     32811
     32805     32804     32803     32815     32805     32804     32819     32820
     32805     32804     32819     32821     32805     32804     32819     32825
     32806     32804     32803     32807     32806     32804     32803     32811
     32806     32804     32803     32815     32806     32804     32819     32820
     32806     32804     32819     32821     32806     32804     32819     32825
     32807     32803     32804     32819     32807     32803     32811     32812
     32807     32803     32811     32813     32807     32803     32811     32814
     32807     32803     32815     32816     32807     32803     32815     32817
     32807     32803     32815     32818     32808     32807     32803     32811
     32808     32807     32803     32815     32809     32807     32803     32811
     32809     32807     32803     32815     32810     32807     32803     32811
     32810     32807     32803     32815     32811     32803     32804     32819
     32811     32803     32815     32816     32811     32803     32815     32817
     32811     32803     32815     32818     32812     32811     32803     32815
     32813     32811     32803     32815     32814     32811     32803     32815
     32815     32803     32804     32819     32819     32825     32822     32823
     32819     32825     32822     32824     32819     32825     32822     32826
     32820     32819     32825     32822     32821     32819     32825     32822
     32822     32826     32827     32828     32822     32826     32827     32829
     32822     32826     32827     32830     32823     32822     32826     32827
     32824     32822     32826     32827     32825     32822     32826     32827
     32826     32827     32830     32831     32826     32827     32830     32832
     32826     32827     32830     32838     32827     32830     32832     32833
     32827     32830     32838     32839     32827     32830     32838     32840
     32827     32830     32838     32841     32828     32827     32830     32831
     32828     32827     32830     32832     32828     32827     32830     32838
     32829     32827     32830     32831     32829     32827     32830     32832
     32829     32827     32830     32838     32830     32832     32833     32834
     32830     32832     32833     32835     32830     32838     32841     32842
     32831     32830     32832     32833     32831     32830     32838     32839
     32831     32830     32838     32840     32831     32830     32838     32841
     32832     32830     32838     32839     32832     32830     32838     32840
     32832     32830     32838     32841     32832     32833     32835     32836
     32832     32833     32835     32837     32832     32833     32835     32847
     32833     32832     32830     32838     32833     32835     32847     32848
     32833     32835     32847     32849     32833     32835     32847     32850
     32834     32833     32835     32836     32834     32833     32835     32837
     32834     32833     32835     32847     32835     32847     32850     32851
     32835     32847     32850     32852     32835     32847     32850     32853
     32836     32835     32847     32848     32836     32835     32847     32849
     32836     32835     32847     32850     32837     32835     32847     32848
     32837     32835     32847     32849     32837     32835     32847     32850
     32838     32841     32842     32843     32838     32841     32842     32844
     32839     32838     32841     32842     32840     32838     32841     32842
     32841     32842     32844     32845     32841     32842     32844     32846
     32841     32842     32844     32894     32842     32844     32894     32895
     32842     32844     32894     32896     32842     32844     32894     32897
     32843     32842     32844     32845     32843     32842     32844     32846
     32843     32842     32844     32894     32844     32894     32897     32898
     32844     32894     32897     32899     32844     32894     32897     32900
     32845     32844     32894     32895     32845     32844     32894     32896
     32845     32844     32894     32897     32846     32844     32894     32895
     32846     32844     32894     32896     32846     32844     32894     32897
     32847     32850     32853     32854     32847     32850     32853     32855
     32847     32850     32853     32856     32848     32847     32850     32851
     32848     32847     32850     32852     32848     32847     32850     32853
     32849     32847     32850     32851     32849     32847     32850     32852
     32849     32847     32850     32853     32850     32853     32856     32857
     32850     32853     32856     32858     32850     32853     32856     32859
     32851     32850     32853     32854     32851     32850     32853     32855
     32851     32850     32853     32856     32852     32850     32853     32854
     32852     32850     32853     32855     32852     32850     32853     32856
     32853     32856     32859     32860     32853     32856     32859     32861
     32853     32856     32859     32862     32854     32853     32856     32857
     32854     32853     32856     32858     32854     32853     32856     32859
     32855     32853     32856     32857     32855     32853     32856     32858
     32855     32853     32856     32859     32856     32859     32862     32863
     32856     32859     32862     32864     32856     32859     32862     32865
     32857     32856     32859     32860     32857     32856     32859     32861
     32857     32856     32859     32862     32858     32856     32859     32860
     32858     32856     32859     32861     32858     32856     32859     32862
     32859     32862     32865     32866     32859     32862     32865     32867
     32860     32859     32862     32863     32860     32859     32862     32864
     32860     32859     32862     32865     32861     32859     32862     32863
     32861     32859     32862     32864     32861     32859     32862     32865
     32862     32865     32867     32868     32862     32865     32867     32869
     32863     32862     32865     32866     32863     32862     32865     32867
     32864     32862     32865     32866     32864     32862     32865     32867
     32865     32867     32869     32870     32865     32867     32869     32871
     32865     32867     32869     32872     32866     32865     32867     32868
     32866     32865     32867     32869     32867     32869     32872     32873
     32867     32869     32872     32874     32867     32869     32872     32875
     32868     32867     32869     32870     32868     32867     32869     32871
     32868     32867     32869     32872     32869     32872     32875     32876
     32869     32872     32875     32877     32869     32872     32875     32878
     32870     32869     32872     32873     32870     32869     32872     32874
     32870     32869     32872     32875     32871     32869     32872     32873
     32871     32869     32872     32874     32871     32869     32872     32875
     32872     32875     32878     32879     32872     32875     32878     32880
     32872     32875     32878     32881     32873     32872     32875     32876
     32873     32872     32875     32877     32873     32872     32875     32878
     32874     32872     32875     32876     32874     32872     32875     32877
     32874     32872     32875     32878     32875     32878     32881     32882
     32875     32878     32881     32883     32875     32878     32881     32884
     32876     32875     32878     32879     32876     32875     32878     32880
     32876     32875     32878     32881     32877     32875     32878     32879
     32877     32875     32878     32880     32877     32875     32878     32881
     32878     32881     32884     32885     32878     32881     32884     32886
     32878     32881     32884     32887     32879     32878     32881     32882
     32879     32878     32881     32883     32879     32878     32881     32884
     32880     32878     32881     32882     32880     32878     32881     32883
     32880     32878     32881     32884     32881     32884     32887     32888
     32881     32884     32887     32889     32881     32884     32887     32890
     32882     32881     32884     32885     32882     32881     32884     32886
     32882     32881     32884     32887     32883     32881     32884     32885
     32883     32881     32884     32886     32883     32881     32884     32887
     32884     32887     32890     32891     32884     32887     32890     32892
     32884     32887     32890     32893     32885     32884     32887     32888
     32885     32884     32887     32889     32885     32884     32887     32890
     32886     32884     32887     32888     32886     32884     32887     32889
     32886     32884     32887     32890     32888     32887     32890     32891
     32888     32887     32890     32892     32888     32887     32890     32893
     32889     32887     32890     32891     32889     32887     32890     32892
     32889     32887     32890     32893     32894     32897     32900     32901
     32894     32897     32900     32902     32894     32897     32900     32903
     32895     32894     32897     32898     32895     32894     32897     32899
     32895     32894     32897     32900     32896     32894     32897     32898
     32896     32894     32897     32899     32896     32894     32897     32900
     32897     32900     32903     32904     32897     32900     32903     32905
     32897     32900     32903     32906     32898     32897     32900     32901
     32898     32897     32900     32902     32898     32897     32900     32903
     32899     32897     32900     32901     32899     32897     32900     32902
     32899     32897     32900     32903     32900     32903     32906     32907
     32900     32903     32906     32908     32900     32903     32906     32909
     32901     32900     32903     32904     32901     32900     32903     32905
     32901     32900     32903     32906     32902     32900     32903     32904
     32902     32900     32903     32905     32902     32900     32903     32906
     32903     32906     32909     32910     32903     32906     32909     32911
     32903     32906     32909     32912     32904     32903     32906     32907
     32904     32903     32906     32908     32904     32903     32906     32909
     32905     32903     32906     32907     32905     32903     32906     32908
     32905     32903     32906     32909     32906     32909     32912     32913
     32906     32909     32912     32914     32906     32909     32912     32915
     32907     32906     32909     32910     32907     32906     32909     32911
     32907     32906     32909     32912     32908     32906     32909     32910
     32908     32906     32909     32911     32908     32906     32909     32912
     32909     32912     32915     32916     32909     32912     32915     32917
     32909     32912     32915     32918     32910     32909     32912     32913
     32910     32909     32912     32914     32910     32909     32912     32915
     32911     32909     32912     32913     32911     32909     32912     32914
     32911     32909     32912     32915     32912     32915     32918     32919
     32912     32915     32918     32920     32912     32915     32918     32921
     32913     32912     32915     32916     32913     32912     32915     32917
     32913     32912     32915     32918     32914     32912     32915     32916
     32914     32912     32915     32917     32914     32912     32915     32918
     32915     32918     32921     32922     32915     32918     32921     32923
     32915     32918     32921     32924     32916     32915     32918     32919
     32916     32915     32918     32920     32916     32915     32918     32921
     32917     32915     32918     32919     32917     32915     32918     32920
     32917     32915     32918     32921     32918     32921     32924     32925
     32918     32921     32924     32926     32918     32921     32924     32927
     32919     32918     32921     32922     32919     32918     32921     32923
     32919     32918     32921     32924     32920     32918     32921     32922
     32920     32918     32921     32923     32920     32918     32921     32924
     32921     32924     32927     32928     32921     32924     32927     32929
     32921     32924     32927     32930     32922     32921     32924     32925
     32922     32921     32924     32926     32922     32921     32924     32927
     32923     32921     32924     32925     32923     32921     32924     32926
     32923     32921     32924     32927     32924     32927     32930     32931
     32924     32927     32930     32932     32924     32927     32930     32933
     32925     32924     32927     32928     32925     32924     32927     32929
     32925     32924     32927     32930     32926     32924     32927     32928
     32926     32924     32927     32929     32926     32924     32927     32930
     32927     32930     32933     32934     32927     32930     32933     32935
     32927     32930     32933     32936     32928     32927     32930     32931
     32928     32927     32930     32932     32928     32927     32930     32933
     32929     32927     32930     32931     32929     32927     32930     32932
     32929     32927     32930     32933     32931     32930     32933     32934
     32931     32930     32933     32935     32931     32930     32933     32936
     32932     32930     32933     32934     32932     32930     32933     32935
     32932     32930     32933     32936     32937     32938     32953     32954
     32937     32938     32953     32955     32937     32938     32953     32959
     32938     32937     32941     32942     32938     32937     32941     32943
     32938     32937     32941     32944     32938     32937     32945     32946
     32938     32937     32945     32947     32938     32937     32945     32948
     32938     32937     32949     32950     32938     32937     32949     32951
     32938     32937     32949     32952     32938     32953     32959     32956
     32939     32938     32937     32941     32939     32938     32937     32945
     32939     32938     32937     32949     32939     32938     32953     32954
     32939     32938     32953     32955     32939     32938     32953     32959
     32940     32938     32937     32941     32940     32938     32937     32945
     32940     32938     32937     32949     32940     32938     32953     32954
     32940     32938     32953     32955     32940     32938     32953     32959
     32941     32937     32938     32953     32941     32937     32945     32946
     32941     32937     32945     32947     32941     32937     32945     32948
     32941     32937     32949     32950     32941     32937     32949     32951
     32941     32937     32949     32952     32942     32941     32937     32945
     32942     32941     32937     32949     32943     32941     32937     32945
     32943     32941     32937     32949     32944     32941     32937     32945
     32944     32941     32937     32949     32945     32937     32938     32953
     32945     32937     32949     32950     32945     32937     32949     32951
     32945     32937     32949     32952     32946     32945     32937     32949
     32947     32945     32937     32949     32948     32945     32937     32949
     32949     32937     32938     32953     32953     32959     32956     32957
     32953     32959     32956     32958     32953     32959     32956     32960
     32954     32953     32959     32956     32955     32953     32959     32956
     32956     32960     32961     32962     32956     32960     32961     32963
     32956     32960     32961     32964     32957     32956     32960     32961
     32958     32956     32960     32961     32959     32956     32960     32961
     32960     32961     32964     32965     32960     32961     32964     32966
     32960     32961     32964     32972     32961     32964     32966     32967
     32961     32964     32972     32973     32961     32964     32972     32974
     32961     32964     32972     32975     32962     32961     32964     32965
     32962     32961     32964     32966     32962     32961     32964     32972
     32963     32961     32964     32965     32963     32961     32964     32966
     32963     32961     32964     32972     32964     32966     32967     32968
     32964     32966     32967     32969     32964     32972     32975     32976
     32965     32964     32966     32967     32965     32964     32972     32973
     32965     32964     32972     32974     32965     32964     32972     32975
     32966     32964     32972     32973     32966     32964     32972     32974
     32966     32964     32972     32975     32966     32967     32969     32970
     32966     32967     32969     32971     32966     32967     32969     32981
     32967     32966     32964     32972     32967     32969     32981     32982
     32967     32969     32981     32983     32967     32969     32981     32984
     32968     32967     32969     32970     32968     32967     32969     32971
     32968     32967     32969     32981     32969     32981     32984     32985
     32969     32981     32984     32986     32969     32981     32984     32987
     32970     32969     32981     32982     32970     32969     32981     32983
     32970     32969     32981     32984     32971     32969     32981     32982
     32971     32969     32981     32983     32971     32969     32981     32984
     32972     32975     32976     32977     32972     32975     32976     32978
     32973     32972     32975     32976     32974     32972     32975     32976
     32975     32976     32978     32979     32975     32976     32978     32980
     32975     32976     32978     33028     32976     32978     33028     33029
     32976     32978     33028     33030     32976     32978     33028     33031
     32977     32976     32978     32979     32977     32976     32978     32980
     32977     32976     32978     33028     32978     33028     33031     33032
     32978     33028     33031     33033     32978     33028     33031     33034
     32979     32978     33028     33029     32979     32978     33028     33030
     32979     32978     33028     33031     32980     32978     33028     33029
     32980     32978     33028     33030     32980     32978     33028     33031
     32981     32984     32987     32988     32981     32984     32987     32989
     32981     32984     32987     32990     32982     32981     32984     32985
     32982     32981     32984     32986     32982     32981     32984     32987
     32983     32981     32984     32985     32983     32981     32984     32986
     32983     32981     32984     32987     32984     32987     32990     32991
     32984     32987     32990     32992     32984     32987     32990     32993
     32985     32984     32987     32988     32985     32984     32987     32989
     32985     32984     32987     32990     32986     32984     32987     32988
     32986     32984     32987     32989     32986     32984     32987     32990
     32987     32990     32993     32994     32987     32990     32993     32995
     32987     32990     32993     32996     32988     32987     32990     32991
     32988     32987     32990     32992     32988     32987     32990     32993
     32989     32987     32990     32991     32989     32987     32990     32992
     32989     32987     32990     32993     32990     32993     32996     32997
     32990     32993     32996     32998     32990     32993     32996     32999
     32991     32990     32993     32994     32991     32990     32993     32995
     32991     32990     32993     32996     32992     32990     32993     32994
     32992     32990     32993     32995     32992     32990     32993     32996
     32993     32996     32999     33000     32993     32996     32999     33001
     32994     32993     32996     32997     32994     32993     32996     32998
     32994     32993     32996     32999     32995     32993     32996     32997
     32995     32993     32996     32998     32995     32993     32996     32999
     32996     32999     33001     33002     32996     32999     33001     33003
     32997     32996     32999     33000     32997     32996     32999     33001
     32998     32996     32999     33000     32998     32996     32999     33001
     32999     33001     33003     33004     32999     33001     33003     33005
     32999     33001     33003     33006     33000     32999     33001     33002
     33000     32999     33001     33003     33001     33003     33006     33007
     33001     33003     33006     33008     33001     33003     33006     33009
     33002     33001     33003     33004     33002     33001     33003     33005
     33002     33001     33003     33006     33003     33006     33009     33010
     33003     33006     33009     33011     33003     33006     33009     33012
     33004     33003     33006     33007     33004     33003     33006     33008
     33004     33003     33006     33009     33005     33003     33006     33007
     33005     33003     33006     33008     33005     33003     33006     33009
     33006     33009     33012     33013     33006     33009     33012     33014
     33006     33009     33012     33015     33007     33006     33009     33010
     33007     33006     33009     33011     33007     33006     33009     33012
     33008     33006     33009     33010     33008     33006     33009     33011
     33008     33006     33009     33012     33009     33012     33015     33016
     33009     33012     33015     33017     33009     33012     33015     33018
     33010     33009     33012     33013     33010     33009     33012     33014
     33010     33009     33012     33015     33011     33009     33012     33013
     33011     33009     33012     33014     33011     33009     33012     33015
     33012     33015     33018     33019     33012     33015     33018     33020
     33012     33015     33018     33021     33013     33012     33015     33016
     33013     33012     33015     33017     33013     33012     33015     33018
     33014     33012     33015     33016     33014     33012     33015     33017
     33014     33012     33015     33018     33015     33018     33021     33022
     33015     33018     33021     33023     33015     33018     33021     33024
     33016     33015     33018     33019     33016     33015     33018     33020
     33016     33015     33018     33021     33017     33015     33018     33019
     33017     33015     33018     33020     33017     33015     33018     33021
     33018     33021     33024     33025     33018     33021     33024     33026
     33018     33021     33024     33027     33019     33018     33021     33022
     33019     33018     33021     33023     33019     33018     33021     33024
     33020     33018     33021     33022     33020     33018     33021     33023
     33020     33018     33021     33024     33022     33021     33024     33025
     33022     33021     33024     33026     33022     33021     33024     33027
     33023     33021     33024     33025     33023     33021     33024     33026
     33023     33021     33024     33027     33028     33031     33034     33035
     33028     33031     33034     33036     33028     33031     33034     33037
     33029     33028     33031     33032     33029     33028     33031     33033
     33029     33028     33031     33034     33030     33028     33031     33032
     33030     33028     33031     33033     33030     33028     33031     33034
     33031     33034     33037     33038     33031     33034     33037     33039
     33031     33034     33037     33040     33032     33031     33034     33035
     33032     33031     33034     33036     33032     33031     33034     33037
     33033     33031     33034     33035     33033     33031     33034     33036
     33033     33031     33034     33037     33034     33037     33040     33041
     33034     33037     33040     33042     33034     33037     33040     33043
     33035     33034     33037     33038     33035     33034     33037     33039
     33035     33034     33037     33040     33036     33034     33037     33038
     33036     33034     33037     33039     33036     33034     33037     33040
     33037     33040     33043     33044     33037     33040     33043     33045
     33037     33040     33043     33046     33038     33037     33040     33041
     33038     33037     33040     33042     33038     33037     33040     33043
     33039     33037     33040     33041     33039     33037     33040     33042
     33039     33037     33040     33043     33040     33043     33046     33047
     33040     33043     33046     33048     33040     33043     33046     33049
     33041     33040     33043     33044     33041     33040     33043     33045
     33041     33040     33043     33046     33042     33040     33043     33044
     33042     33040     33043     33045     33042     33040     33043     33046
     33043     33046     33049     33050     33043     33046     33049     33051
     33043     33046     33049     33052     33044     33043     33046     33047
     33044     33043     33046     33048     33044     33043     33046     33049
     33045     33043     33046     33047     33045     33043     33046     33048
     33045     33043     33046     33049     33046     33049     33052     33053
     33046     33049     33052     33054     33046     33049     33052     33055
     33047     33046     33049     33050     33047     33046     33049     33051
     33047     33046     33049     33052     33048     33046     33049     33050
     33048     33046     33049     33051     33048     33046     33049     33052
     33049     33052     33055     33056     33049     33052     33055     33057
     33049     33052     33055     33058     33050     33049     33052     33053
     33050     33049     33052     33054     33050     33049     33052     33055
     33051     33049     33052     33053     33051     33049     33052     33054
     33051     33049     33052     33055     33052     33055     33058     33059
     33052     33055     33058     33060     33052     33055     33058     33061
     33053     33052     33055     33056     33053     33052     33055     33057
     33053     33052     33055     33058     33054     33052     33055     33056
     33054     33052     33055     33057     33054     33052     33055     33058
     33055     33058     33061     33062     33055     33058     33061     33063
     33055     33058     33061     33064     33056     33055     33058     33059
     33056     33055     33058     33060     33056     33055     33058     33061
     33057     33055     33058     33059     33057     33055     33058     33060
     33057     33055     33058     33061     33058     33061     33064     33065
     33058     33061     33064     33066     33058     33061     33064     33067
     33059     33058     33061     33062     33059     33058     33061     33063
     33059     33058     33061     33064     33060     33058     33061     33062
     33060     33058     33061     33063     33060     33058     33061     33064
     33061     33064     33067     33068     33061     33064     33067     33069
     33061     33064     33067     33070     33062     33061     33064     33065
     33062     33061     33064     33066     33062     33061     33064     33067
     33063     33061     33064     33065     33063     33061     33064     33066
     33063     33061     33064     33067     33065     33064     33067     33068
     33065     33064     33067     33069     33065     33064     33067     33070
     33066     33064     33067     33068     33066     33064     33067     33069
     33066     33064     33067     33070     33071     33072     33087     33088
     33071     33072     33087     33089     33071     33072     33087     33093
     33072     33071     33075     33076     33072     33071     33075     33077
     33072     33071     33075     33078     33072     33071     33079     33080
     33072     33071     33079     33081     33072     33071     33079     33082
     33072     33071     33083     33084     33072     33071     33083     33085
     33072     33071     33083     33086     33072     33087     33093     33090
     33073     33072     33071     33075     33073     33072     33071     33079
     33073     33072     33071     33083     33073     33072     33087     33088
     33073     33072     33087     33089     33073     33072     33087     33093
     33074     33072     33071     33075     33074     33072     33071     33079
     33074     33072     33071     33083     33074     33072     33087     33088
     33074     33072     33087     33089     33074     33072     33087     33093
     33075     33071     33072     33087     33075     33071     33079     33080
     33075     33071     33079     33081     33075     33071     33079     33082
     33075     33071     33083     33084     33075     33071     33083     33085
     33075     33071     33083     33086     33076     33075     33071     33079
     33076     33075     33071     33083     33077     33075     33071     33079
     33077     33075     33071     33083     33078     33075     33071     33079
     33078     33075     33071     33083     33079     33071     33072     33087
     33079     33071     33083     33084     33079     33071     33083     33085
     33079     33071     33083     33086     33080     33079     33071     33083
     33081     33079     33071     33083     33082     33079     33071     33083
     33083     33071     33072     33087     33087     33093     33090     33091
     33087     33093     33090     33092     33087     33093     33090     33094
     33088     33087     33093     33090     33089     33087     33093     33090
     33090     33094     33095     33096     33090     33094     33095     33097
     33090     33094     33095     33098     33091     33090     33094     33095
     33092     33090     33094     33095     33093     33090     33094     33095
     33094     33095     33098     33099     33094     33095     33098     33100
     33094     33095     33098     33106     33095     33098     33100     33101
     33095     33098     33106     33107     33095     33098     33106     33108
     33095     33098     33106     33109     33096     33095     33098     33099
     33096     33095     33098     33100     33096     33095     33098     33106
     33097     33095     33098     33099     33097     33095     33098     33100
     33097     33095     33098     33106     33098     33100     33101     33102
     33098     33100     33101     33103     33098     33106     33109     33110
     33099     33098     33100     33101     33099     33098     33106     33107
     33099     33098     33106     33108     33099     33098     33106     33109
     33100     33098     33106     33107     33100     33098     33106     33108
     33100     33098     33106     33109     33100     33101     33103     33104
     33100     33101     33103     33105     33100     33101     33103     33115
     33101     33100     33098     33106     33101     33103     33115     33116
     33101     33103     33115     33117     33101     33103     33115     33118
     33102     33101     33103     33104     33102     33101     33103     33105
     33102     33101     33103     33115     33103     33115     33118     33119
     33103     33115     33118     33120     33103     33115     33118     33121
     33104     33103     33115     33116     33104     33103     33115     33117
     33104     33103     33115     33118     33105     33103     33115     33116
     33105     33103     33115     33117     33105     33103     33115     33118
     33106     33109     33110     33111     33106     33109     33110     33112
     33107     33106     33109     33110     33108     33106     33109     33110
     33109     33110     33112     33113     33109     33110     33112     33114
     33109     33110     33112     33162     33110     33112     33162     33163
     33110     33112     33162     33164     33110     33112     33162     33165
     33111     33110     33112     33113     33111     33110     33112     33114
     33111     33110     33112     33162     33112     33162     33165     33166
     33112     33162     33165     33167     33112     33162     33165     33168
     33113     33112     33162     33163     33113     33112     33162     33164
     33113     33112     33162     33165     33114     33112     33162     33163
     33114     33112     33162     33164     33114     33112     33162     33165
     33115     33118     33121     33122     33115     33118     33121     33123
     33115     33118     33121     33124     33116     33115     33118     33119
     33116     33115     33118     33120     33116     33115     33118     33121
     33117     33115     33118     33119     33117     33115     33118     33120
     33117     33115     33118     33121     33118     33121     33124     33125
     33118     33121     33124     33126     33118     33121     33124     33127
     33119     33118     33121     33122     33119     33118     33121     33123
     33119     33118     33121     33124     33120     33118     33121     33122
     33120     33118     33121     33123     33120     33118     33121     33124
     33121     33124     33127     33128     33121     33124     33127     33129
     33121     33124     33127     33130     33122     33121     33124     33125
     33122     33121     33124     33126     33122     33121     33124     33127
     33123     33121     33124     33125     33123     33121     33124     33126
     33123     33121     33124     33127     33124     33127     33130     33131
     33124     33127     33130     33132     33124     33127     33130     33133
     33125     33124     33127     33128     33125     33124     33127     33129
     33125     33124     33127     33130     33126     33124     33127     33128
     33126     33124     33127     33129     33126     33124     33127     33130
     33127     33130     33133     33134     33127     33130     33133     33135
     33128     33127     33130     33131     33128     33127     33130     33132
     33128     33127     33130     33133     33129     33127     33130     33131
     33129     33127     33130     33132     33129     33127     33130     33133
     33130     33133     33135     33136     33130     33133     33135     33137
     33131     33130     33133     33134     33131     33130     33133     33135
     33132     33130     33133     33134     33132     33130     33133     33135
     33133     33135     33137     33138     33133     33135     33137     33139
     33133     33135     33137     33140     33134     33133     33135     33136
     33134     33133     33135     33137     33135     33137     33140     33141
     33135     33137     33140     33142     33135     33137     33140     33143
     33136     33135     33137     33138     33136     33135     33137     33139
     33136     33135     33137     33140     33137     33140     33143     33144
     33137     33140     33143     33145     33137     33140     33143     33146
     33138     33137     33140     33141     33138     33137     33140     33142
     33138     33137     33140     33143     33139     33137     33140     33141
     33139     33137     33140     33142     33139     33137     33140     33143
     33140     33143     33146     33147     33140     33143     33146     33148
     33140     33143     33146     33149     33141     33140     33143     33144
     33141     33140     33143     33145     33141     33140     33143     33146
     33142     33140     33143     33144     33142     33140     33143     33145
     33142     33140     33143     33146     33143     33146     33149     33150
     33143     33146     33149     33151     33143     33146     33149     33152
     33144     33143     33146     33147     33144     33143     33146     33148
     33144     33143     33146     33149     33145     33143     33146     33147
     33145     33143     33146     33148     33145     33143     33146     33149
     33146     33149     33152     33153     33146     33149     33152     33154
     33146     33149     33152     33155     33147     33146     33149     33150
     33147     33146     33149     33151     33147     33146     33149     33152
     33148     33146     33149     33150     33148     33146     33149     33151
     33148     33146     33149     33152     33149     33152     33155     33156
     33149     33152     33155     33157     33149     33152     33155     33158
     33150     33149     33152     33153     33150     33149     33152     33154
     33150     33149     33152     33155     33151     33149     33152     33153
     33151     33149     33152     33154     33151     33149     33152     33155
     33152     33155     33158     33159     33152     33155     33158     33160
     33152     33155     33158     33161     33153     33152     33155     33156
     33153     33152     33155     33157     33153     33152     33155     33158
     33154     33152     33155     33156     33154     33152     33155     33157
     33154     33152     33155     33158     33156     33155     33158     33159
     33156     33155     33158     33160     33156     33155     33158     33161
     33157     33155     33158     33159     33157     33155     33158     33160
     33157     33155     33158     33161     33162     33165     33168     33169
     33162     33165     33168     33170     33162     33165     33168     33171
     33163     33162     33165     33166     33163     33162     33165     33167
     33163     33162     33165     33168     33164     33162     33165     33166
     33164     33162     33165     33167     33164     33162     33165     33168
     33165     33168     33171     33172     33165     33168     33171     33173
     33165     33168     33171     33174     33166     33165     33168     33169
     33166     33165     33168     33170     33166     33165     33168     33171
     33167     33165     33168     33169     33167     33165     33168     33170
     33167     33165     33168     33171     33168     33171     33174     33175
     33168     33171     33174     33176     33168     33171     33174     33177
     33169     33168     33171     33172     33169     33168     33171     33173
     33169     33168     33171     33174     33170     33168     33171     33172
     33170     33168     33171     33173     33170     33168     33171     33174
     33171     33174     33177     33178     33171     33174     33177     33179
     33171     33174     33177     33180     33172     33171     33174     33175
     33172     33171     33174     33176     33172     33171     33174     33177
     33173     33171     33174     33175     33173     33171     33174     33176
     33173     33171     33174     33177     33174     33177     33180     33181
     33174     33177     33180     33182     33174     33177     33180     33183
     33175     33174     33177     33178     33175     33174     33177     33179
     33175     33174     33177     33180     33176     33174     33177     33178
     33176     33174     33177     33179     33176     33174     33177     33180
     33177     33180     33183     33184     33177     33180     33183     33185
     33177     33180     33183     33186     33178     33177     33180     33181
     33178     33177     33180     33182     33178     33177     33180     33183
     33179     33177     33180     33181     33179     33177     33180     33182
     33179     33177     33180     33183     33180     33183     33186     33187
     33180     33183     33186     33188     33180     33183     33186     33189
     33181     33180     33183     33184     33181     33180     33183     33185
     33181     33180     33183     33186     33182     33180     33183     33184
     33182     33180     33183     33185     33182     33180     33183     33186
     33183     33186     33189     33190     33183     33186     33189     33191
     33183     33186     33189     33192     33184     33183     33186     33187
     33184     33183     33186     33188     33184     33183     33186     33189
     33185     33183     33186     33187     33185     33183     33186     33188
     33185     33183     33186     33189     33186     33189     33192     33193
     33186     33189     33192     33194     33186     33189     33192     33195
     33187     33186     33189     33190     33187     33186     33189     33191
     33187     33186     33189     33192     33188     33186     33189     33190
     33188     33186     33189     33191     33188     33186     33189     33192
     33189     33192     33195     33196     33189     33192     33195     33197
     33189     33192     33195     33198     33190     33189     33192     33193
     33190     33189     33192     33194     33190     33189     33192     33195
     33191     33189     33192     33193     33191     33189     33192     33194
     33191     33189     33192     33195     33192     33195     33198     33199
     33192     33195     33198     33200     33192     33195     33198     33201
     33193     33192     33195     33196     33193     33192     33195     33197
     33193     33192     33195     33198     33194     33192     33195     33196
     33194     33192     33195     33197     33194     33192     33195     33198
     33195     33198     33201     33202     33195     33198     33201     33203
     33195     33198     33201     33204     33196     33195     33198     33199
     33196     33195     33198     33200     33196     33195     33198     33201
     33197     33195     33198     33199     33197     33195     33198     33200
     33197     33195     33198     33201     33199     33198     33201     33202
     33199     33198     33201     33203     33199     33198     33201     33204
     33200     33198     33201     33202     33200     33198     33201     33203
     33200     33198     33201     33204     33205     33206     33221     33222
     33205     33206     33221     33223     33205     33206     33221     33227
     33206     33205     33209     33210     33206     33205     33209     33211
     33206     33205     33209     33212     33206     33205     33213     33214
     33206     33205     33213     33215     33206     33205     33213     33216
     33206     33205     33217     33218     33206     33205     33217     33219
     33206     33205     33217     33220     33206     33221     33227     33224
     33207     33206     33205     33209     33207     33206     33205     33213
     33207     33206     33205     33217     33207     33206     33221     33222
     33207     33206     33221     33223     33207     33206     33221     33227
     33208     33206     33205     33209     33208     33206     33205     33213
     33208     33206     33205     33217     33208     33206     33221     33222
     33208     33206     33221     33223     33208     33206     33221     33227
     33209     33205     33206     33221     33209     33205     33213     33214
     33209     33205     33213     33215     33209     33205     33213     33216
     33209     33205     33217     33218     33209     33205     33217     33219
     33209     33205     33217     33220     33210     33209     33205     33213
     33210     33209     33205     33217     33211     33209     33205     33213
     33211     33209     33205     33217     33212     33209     33205     33213
     33212     33209     33205     33217     33213     33205     33206     33221
     33213     33205     33217     33218     33213     33205     33217     33219
     33213     33205     33217     33220     33214     33213     33205     33217
     33215     33213     33205     33217     33216     33213     33205     33217
     33217     33205     33206     33221     33221     33227     33224     33225
     33221     33227     33224     33226     33221     33227     33224     33228
     33222     33221     33227     33224     33223     33221     33227     33224
     33224     33228     33229     33230     33224     33228     33229     33231
     33224     33228     33229     33232     33225     33224     33228     33229
     33226     33224     33228     33229     33227     33224     33228     33229
     33228     33229     33232     33233     33228     33229     33232     33234
     33228     33229     33232     33240     33229     33232     33234     33235
     33229     33232     33240     33241     33229     33232     33240     33242
     33229     33232     33240     33243     33230     33229     33232     33233
     33230     33229     33232     33234     33230     33229     33232     33240
     33231     33229     33232     33233     33231     33229     33232     33234
     33231     33229     33232     33240     33232     33234     33235     33236
     33232     33234     33235     33237     33232     33240     33243     33244
     33233     33232     33234     33235     33233     33232     33240     33241
     33233     33232     33240     33242     33233     33232     33240     33243
     33234     33232     33240     33241     33234     33232     33240     33242
     33234     33232     33240     33243     33234     33235     33237     33238
     33234     33235     33237     33239     33234     33235     33237     33249
     33235     33234     33232     33240     33235     33237     33249     33250
     33235     33237     33249     33251     33235     33237     33249     33252
     33236     33235     33237     33238     33236     33235     33237     33239
     33236     33235     33237     33249     33237     33249     33252     33253
     33237     33249     33252     33254     33237     33249     33252     33255
     33238     33237     33249     33250     33238     33237     33249     33251
     33238     33237     33249     33252     33239     33237     33249     33250
     33239     33237     33249     33251     33239     33237     33249     33252
     33240     33243     33244     33245     33240     33243     33244     33246
     33241     33240     33243     33244     33242     33240     33243     33244
     33243     33244     33246     33247     33243     33244     33246     33248
     33243     33244     33246     33296     33244     33246     33296     33297
     33244     33246     33296     33298     33244     33246     33296     33299
     33245     33244     33246     33247     33245     33244     33246     33248
     33245     33244     33246     33296     33246     33296     33299     33300
     33246     33296     33299     33301     33246     33296     33299     33302
     33247     33246     33296     33297     33247     33246     33296     33298
     33247     33246     33296     33299     33248     33246     33296     33297
     33248     33246     33296     33298     33248     33246     33296     33299
     33249     33252     33255     33256     33249     33252     33255     33257
     33249     33252     33255     33258     33250     33249     33252     33253
     33250     33249     33252     33254     33250     33249     33252     33255
     33251     33249     33252     33253     33251     33249     33252     33254
     33251     33249     33252     33255     33252     33255     33258     33259
     33252     33255     33258     33260     33252     33255     33258     33261
     33253     33252     33255     33256     33253     33252     33255     33257
     33253     33252     33255     33258     33254     33252     33255     33256
     33254     33252     33255     33257     33254     33252     33255     33258
     33255     33258     33261     33262     33255     33258     33261     33263
     33255     33258     33261     33264     33256     33255     33258     33259
     33256     33255     33258     33260     33256     33255     33258     33261
     33257     33255     33258     33259     33257     33255     33258     33260
     33257     33255     33258     33261     33258     33261     33264     33265
     33258     33261     33264     33266     33258     33261     33264     33267
     33259     33258     33261     33262     33259     33258     33261     33263
     33259     33258     33261     33264     33260     33258     33261     33262
     33260     33258     33261     33263     33260     33258     33261     33264
     33261     33264     33267     33268     33261     33264     33267     33269
     33262     33261     33264     33265     33262     33261     33264     33266
     33262     33261     33264     33267     33263     33261     33264     33265
     33263     33261     33264     33266     33263     33261     33264     33267
     33264     33267     33269     33270     33264     33267     33269     33271
     33265     33264     33267     33268     33265     33264     33267     33269
     33266     33264     33267     33268     33266     33264     33267     33269
     33267     33269     33271     33272     33267     33269     33271     33273
     33267     33269     33271     33274     33268     33267     33269     33270
     33268     33267     33269     33271     33269     33271     33274     33275
     33269     33271     33274     33276     33269     33271     33274     33277
     33270     33269     33271     33272     33270     33269     33271     33273
     33270     33269     33271     33274     33271     33274     33277     33278
     33271     33274     33277     33279     33271     33274     33277     33280
     33272     33271     33274     33275     33272     33271     33274     33276
     33272     33271     33274     33277     33273     33271     33274     33275
     33273     33271     33274     33276     33273     33271     33274     33277
     33274     33277     33280     33281     33274     33277     33280     33282
     33274     33277     33280     33283     33275     33274     33277     33278
     33275     33274     33277     33279     33275     33274     33277     33280
     33276     33274     33277     33278     33276     33274     33277     33279
     33276     33274     33277     33280     33277     33280     33283     33284
     33277     33280     33283     33285     33277     33280     33283     33286
     33278     33277     33280     33281     33278     33277     33280     33282
     33278     33277     33280     33283     33279     33277     33280     33281
     33279     33277     33280     33282     33279     33277     33280     33283
     33280     33283     33286     33287     33280     33283     33286     33288
     33280     33283     33286     33289     33281     33280     33283     33284
     33281     33280     33283     33285     33281     33280     33283     33286
     33282     33280     33283     33284     33282     33280     33283     33285
     33282     33280     33283     33286     33283     33286     33289     33290
     33283     33286     33289     33291     33283     33286     33289     33292
     33284     33283     33286     33287     33284     33283     33286     33288
     33284     33283     33286     33289     33285     33283     33286     33287
     33285     33283     33286     33288     33285     33283     33286     33289
     33286     33289     33292     33293     33286     33289     33292     33294
     33286     33289     33292     33295     33287     33286     33289     33290
     33287     33286     33289     33291     33287     33286     33289     33292
     33288     33286     33289     33290     33288     33286     33289     33291
     33288     33286     33289     33292     33290     33289     33292     33293
     33290     33289     33292     33294     33290     33289     33292     33295
     33291     33289     33292     33293     33291     33289     33292     33294
     33291     33289     33292     33295     33296     33299     33302     33303
     33296     33299     33302     33304     33296     33299     33302     33305
     33297     33296     33299     33300     33297     33296     33299     33301
     33297     33296     33299     33302     33298     33296     33299     33300
     33298     33296     33299     33301     33298     33296     33299     33302
     33299     33302     33305     33306     33299     33302     33305     33307
     33299     33302     33305     33308     33300     33299     33302     33303
     33300     33299     33302     33304     33300     33299     33302     33305
     33301     33299     33302     33303     33301     33299     33302     33304
     33301     33299     33302     33305     33302     33305     33308     33309
     33302     33305     33308     33310     33302     33305     33308     33311
     33303     33302     33305     33306     33303     33302     33305     33307
     33303     33302     33305     33308     33304     33302     33305     33306
     33304     33302     33305     33307     33304     33302     33305     33308
     33305     33308     33311     33312     33305     33308     33311     33313
     33305     33308     33311     33314     33306     33305     33308     33309
     33306     33305     33308     33310     33306     33305     33308     33311
     33307     33305     33308     33309     33307     33305     33308     33310
     33307     33305     33308     33311     33308     33311     33314     33315
     33308     33311     33314     33316     33308     33311     33314     33317
     33309     33308     33311     33312     33309     33308     33311     33313
     33309     33308     33311     33314     33310     33308     33311     33312
     33310     33308     33311     33313     33310     33308     33311     33314
     33311     33314     33317     33318     33311     33314     33317     33319
     33311     33314     33317     33320     33312     33311     33314     33315
     33312     33311     33314     33316     33312     33311     33314     33317
     33313     33311     33314     33315     33313     33311     33314     33316
     33313     33311     33314     33317     33314     33317     33320     33321
     33314     33317     33320     33322     33314     33317     33320     33323
     33315     33314     33317     33318     33315     33314     33317     33319
     33315     33314     33317     33320     33316     33314     33317     33318
     33316     33314     33317     33319     33316     33314     33317     33320
     33317     33320     33323     33324     33317     33320     33323     33325
     33317     33320     33323     33326     33318     33317     33320     33321
     33318     33317     33320     33322     33318     33317     33320     33323
     33319     33317     33320     33321     33319     33317     33320     33322
     33319     33317     33320     33323     33320     33323     33326     33327
     33320     33323     33326     33328     33320     33323     33326     33329
     33321     33320     33323     33324     33321     33320     33323     33325
     33321     33320     33323     33326     33322     33320     33323     33324
     33322     33320     33323     33325     33322     33320     33323     33326
     33323     33326     33329     33330     33323     33326     33329     33331
     33323     33326     33329     33332     33324     33323     33326     33327
     33324     33323     33326     33328     33324     33323     33326     33329
     33325     33323     33326     33327     33325     33323     33326     33328
     33325     33323     33326     33329     33326     33329     33332     33333
     33326     33329     33332     33334     33326     33329     33332     33335
     33327     33326     33329     33330     33327     33326     33329     33331
     33327     33326     33329     33332     33328     33326     33329     33330
     33328     33326     33329     33331     33328     33326     33329     33332
     33329     33332     33335     33336     33329     33332     33335     33337
     33329     33332     33335     33338     33330     33329     33332     33333
     33330     33329     33332     33334     33330     33329     33332     33335
     33331     33329     33332     33333     33331     33329     33332     33334
     33331     33329     33332     33335     33333     33332     33335     33336
     33333     33332     33335     33337     33333     33332     33335     33338
     33334     33332     33335     33336     33334     33332     33335     33337
     33334     33332     33335     33338     33339     33340     33355     33356
     33339     33340     33355     33357     33339     33340     33355     33361
     33340     33339     33343     33344     33340     33339     33343     33345
     33340     33339     33343     33346     33340     33339     33347     33348
     33340     33339     33347     33349     33340     33339     33347     33350
     33340     33339     33351     33352     33340     33339     33351     33353
     33340     33339     33351     33354     33340     33355     33361     33358
     33341     33340     33339     33343     33341     33340     33339     33347
     33341     33340     33339     33351     33341     33340     33355     33356
     33341     33340     33355     33357     33341     33340     33355     33361
     33342     33340     33339     33343     33342     33340     33339     33347
     33342     33340     33339     33351     33342     33340     33355     33356
     33342     33340     33355     33357     33342     33340     33355     33361
     33343     33339     33340     33355     33343     33339     33347     33348
     33343     33339     33347     33349     33343     33339     33347     33350
     33343     33339     33351     33352     33343     33339     33351     33353
     33343     33339     33351     33354     33344     33343     33339     33347
     33344     33343     33339     33351     33345     33343     33339     33347
     33345     33343     33339     33351     33346     33343     33339     33347
     33346     33343     33339     33351     33347     33339     33340     33355
     33347     33339     33351     33352     33347     33339     33351     33353
     33347     33339     33351     33354     33348     33347     33339     33351
     33349     33347     33339     33351     33350     33347     33339     33351
     33351     33339     33340     33355     33355     33361     33358     33359
     33355     33361     33358     33360     33355     33361     33358     33362
     33356     33355     33361     33358     33357     33355     33361     33358
     33358     33362     33363     33364     33358     33362     33363     33365
     33358     33362     33363     33366     33359     33358     33362     33363
     33360     33358     33362     33363     33361     33358     33362     33363
     33362     33363     33366     33367     33362     33363     33366     33368
     33362     33363     33366     33374     33363     33366     33368     33369
     33363     33366     33374     33375     33363     33366     33374     33376
     33363     33366     33374     33377     33364     33363     33366     33367
     33364     33363     33366     33368     33364     33363     33366     33374
     33365     33363     33366     33367     33365     33363     33366     33368
     33365     33363     33366     33374     33366     33368     33369     33370
     33366     33368     33369     33371     33366     33374     33377     33378
     33367     33366     33368     33369     33367     33366     33374     33375
     33367     33366     33374     33376     33367     33366     33374     33377
     33368     33366     33374     33375     33368     33366     33374     33376
     33368     33366     33374     33377     33368     33369     33371     33372
     33368     33369     33371     33373     33368     33369     33371     33383
     33369     33368     33366     33374     33369     33371     33383     33384
     33369     33371     33383     33385     33369     33371     33383     33386
     33370     33369     33371     33372     33370     33369     33371     33373
     33370     33369     33371     33383     33371     33383     33386     33387
     33371     33383     33386     33388     33371     33383     33386     33389
     33372     33371     33383     33384     33372     33371     33383     33385
     33372     33371     33383     33386     33373     33371     33383     33384
     33373     33371     33383     33385     33373     33371     33383     33386
     33374     33377     33378     33379     33374     33377     33378     33380
     33375     33374     33377     33378     33376     33374     33377     33378
     33377     33378     33380     33381     33377     33378     33380     33382
     33377     33378     33380     33430     33378     33380     33430     33431
     33378     33380     33430     33432     33378     33380     33430     33433
     33379     33378     33380     33381     33379     33378     33380     33382
     33379     33378     33380     33430     33380     33430     33433     33434
     33380     33430     33433     33435     33380     33430     33433     33436
     33381     33380     33430     33431     33381     33380     33430     33432
     33381     33380     33430     33433     33382     33380     33430     33431
     33382     33380     33430     33432     33382     33380     33430     33433
     33383     33386     33389     33390     33383     33386     33389     33391
     33383     33386     33389     33392     33384     33383     33386     33387
     33384     33383     33386     33388     33384     33383     33386     33389
     33385     33383     33386     33387     33385     33383     33386     33388
     33385     33383     33386     33389     33386     33389     33392     33393
     33386     33389     33392     33394     33386     33389     33392     33395
     33387     33386     33389     33390     33387     33386     33389     33391
     33387     33386     33389     33392     33388     33386     33389     33390
     33388     33386     33389     33391     33388     33386     33389     33392
     33389     33392     33395     33396     33389     33392     33395     33397
     33389     33392     33395     33398     33390     33389     33392     33393
     33390     33389     33392     33394     33390     33389     33392     33395
     33391     33389     33392     33393     33391     33389     33392     33394
     33391     33389     33392     33395     33392     33395     33398     33399
     33392     33395     33398     33400     33392     33395     33398     33401
     33393     33392     33395     33396     33393     33392     33395     33397
     33393     33392     33395     33398     33394     33392     33395     33396
     33394     33392     33395     33397     33394     33392     33395     33398
     33395     33398     33401     33402     33395     33398     33401     33403
     33396     33395     33398     33399     33396     33395     33398     33400
     33396     33395     33398     33401     33397     33395     33398     33399
     33397     33395     33398     33400     33397     33395     33398     33401
     33398     33401     33403     33404     33398     33401     33403     33405
     33399     33398     33401     33402     33399     33398     33401     33403
     33400     33398     33401     33402     33400     33398     33401     33403
     33401     33403     33405     33406     33401     33403     33405     33407
     33401     33403     33405     33408     33402     33401     33403     33404
     33402     33401     33403     33405     33403     33405     33408     33409
     33403     33405     33408     33410     33403     33405     33408     33411
     33404     33403     33405     33406     33404     33403     33405     33407
     33404     33403     33405     33408     33405     33408     33411     33412
     33405     33408     33411     33413     33405     33408     33411     33414
     33406     33405     33408     33409     33406     33405     33408     33410
     33406     33405     33408     33411     33407     33405     33408     33409
     33407     33405     33408     33410     33407     33405     33408     33411
     33408     33411     33414     33415     33408     33411     33414     33416
     33408     33411     33414     33417     33409     33408     33411     33412
     33409     33408     33411     33413     33409     33408     33411     33414
     33410     33408     33411     33412     33410     33408     33411     33413
     33410     33408     33411     33414     33411     33414     33417     33418
     33411     33414     33417     33419     33411     33414     33417     33420
     33412     33411     33414     33415     33412     33411     33414     33416
     33412     33411     33414     33417     33413     33411     33414     33415
     33413     33411     33414     33416     33413     33411     33414     33417
     33414     33417     33420     33421     33414     33417     33420     33422
     33414     33417     33420     33423     33415     33414     33417     33418
     33415     33414     33417     33419     33415     33414     33417     33420
     33416     33414     33417     33418     33416     33414     33417     33419
     33416     33414     33417     33420     33417     33420     33423     33424
     33417     33420     33423     33425     33417     33420     33423     33426
     33418     33417     33420     33421     33418     33417     33420     33422
     33418     33417     33420     33423     33419     33417     33420     33421
     33419     33417     33420     33422     33419     33417     33420     33423
     33420     33423     33426     33427     33420     33423     33426     33428
     33420     33423     33426     33429     33421     33420     33423     33424
     33421     33420     33423     33425     33421     33420     33423     33426
     33422     33420     33423     33424     33422     33420     33423     33425
     33422     33420     33423     33426     33424     33423     33426     33427
     33424     33423     33426     33428     33424     33423     33426     33429
     33425     33423     33426     33427     33425     33423     33426     33428
     33425     33423     33426     33429     33430     33433     33436     33437
     33430     33433     33436     33438     33430     33433     33436     33439
     33431     33430     33433     33434     33431     33430     33433     33435
     33431     33430     33433     33436     33432     33430     33433     33434
     33432     33430     33433     33435     33432     33430     33433     33436
     33433     33436     33439     33440     33433     33436     33439     33441
     33433     33436     33439     33442     33434     33433     33436     33437
     33434     33433     33436     33438     33434     33433     33436     33439
     33435     33433     33436     33437     33435     33433     33436     33438
     33435     33433     33436     33439     33436     33439     33442     33443
     33436     33439     33442     33444     33436     33439     33442     33445
     33437     33436     33439     33440     33437     33436     33439     33441
     33437     33436     33439     33442     33438     33436     33439     33440
     33438     33436     33439     33441     33438     33436     33439     33442
     33439     33442     33445     33446     33439     33442     33445     33447
     33439     33442     33445     33448     33440     33439     33442     33443
     33440     33439     33442     33444     33440     33439     33442     33445
     33441     33439     33442     33443     33441     33439     33442     33444
     33441     33439     33442     33445     33442     33445     33448     33449
     33442     33445     33448     33450     33442     33445     33448     33451
     33443     33442     33445     33446     33443     33442     33445     33447
     33443     33442     33445     33448     33444     33442     33445     33446
     33444     33442     33445     33447     33444     33442     33445     33448
     33445     33448     33451     33452     33445     33448     33451     33453
     33445     33448     33451     33454     33446     33445     33448     33449
     33446     33445     33448     33450     33446     33445     33448     33451
     33447     33445     33448     33449     33447     33445     33448     33450
     33447     33445     33448     33451     33448     33451     33454     33455
     33448     33451     33454     33456     33448     33451     33454     33457
     33449     33448     33451     33452     33449     33448     33451     33453
     33449     33448     33451     33454     33450     33448     33451     33452
     33450     33448     33451     33453     33450     33448     33451     33454
     33451     33454     33457     33458     33451     33454     33457     33459
     33451     33454     33457     33460     33452     33451     33454     33455
     33452     33451     33454     33456     33452     33451     33454     33457
     33453     33451     33454     33455     33453     33451     33454     33456
     33453     33451     33454     33457     33454     33457     33460     33461
     33454     33457     33460     33462     33454     33457     33460     33463
     33455     33454     33457     33458     33455     33454     33457     33459
     33455     33454     33457     33460     33456     33454     33457     33458
     33456     33454     33457     33459     33456     33454     33457     33460
     33457     33460     33463     33464     33457     33460     33463     33465
     33457     33460     33463     33466     33458     33457     33460     33461
     33458     33457     33460     33462     33458     33457     33460     33463
     33459     33457     33460     33461     33459     33457     33460     33462
     33459     33457     33460     33463     33460     33463     33466     33467
     33460     33463     33466     33468     33460     33463     33466     33469
     33461     33460     33463     33464     33461     33460     33463     33465
     33461     33460     33463     33466     33462     33460     33463     33464
     33462     33460     33463     33465     33462     33460     33463     33466
     33463     33466     33469     33470     33463     33466     33469     33471
     33463     33466     33469     33472     33464     33463     33466     33467
     33464     33463     33466     33468     33464     33463     33466     33469
     33465     33463     33466     33467     33465     33463     33466     33468
     33465     33463     33466     33469     33467     33466     33469     33470
     33467     33466     33469     33471     33467     33466     33469     33472
     33468     33466     33469     33470     33468     33466     33469     33471
     33468     33466     33469     33472     33473     33474     33489     33490
     33473     33474     33489     33491     33473     33474     33489     33495
     33474     33473     33477     33478     33474     33473     33477     33479
     33474     33473     33477     33480     33474     33473     33481     33482
     33474     33473     33481     33483     33474     33473     33481     33484
     33474     33473     33485     33486     33474     33473     33485     33487
     33474     33473     33485     33488     33474     33489     33495     33492
     33475     33474     33473     33477     33475     33474     33473     33481
     33475     33474     33473     33485     33475     33474     33489     33490
     33475     33474     33489     33491     33475     33474     33489     33495
     33476     33474     33473     33477     33476     33474     33473     33481
     33476     33474     33473     33485     33476     33474     33489     33490
     33476     33474     33489     33491     33476     33474     33489     33495
     33477     33473     33474     33489     33477     33473     33481     33482
     33477     33473     33481     33483     33477     33473     33481     33484
     33477     33473     33485     33486     33477     33473     33485     33487
     33477     33473     33485     33488     33478     33477     33473     33481
     33478     33477     33473     33485     33479     33477     33473     33481
     33479     33477     33473     33485     33480     33477     33473     33481
     33480     33477     33473     33485     33481     33473     33474     33489
     33481     33473     33485     33486     33481     33473     33485     33487
     33481     33473     33485     33488     33482     33481     33473     33485
     33483     33481     33473     33485     33484     33481     33473     33485
     33485     33473     33474     33489     33489     33495     33492     33493
     33489     33495     33492     33494     33489     33495     33492     33496
     33490     33489     33495     33492     33491     33489     33495     33492
     33492     33496     33497     33498     33492     33496     33497     33499
     33492     33496     33497     33500     33493     33492     33496     33497
     33494     33492     33496     33497     33495     33492     33496     33497
     33496     33497     33500     33501     33496     33497     33500     33502
     33496     33497     33500     33508     33497     33500     33502     33503
     33497     33500     33508     33509     33497     33500     33508     33510
     33497     33500     33508     33511     33498     33497     33500     33501
     33498     33497     33500     33502     33498     33497     33500     33508
     33499     33497     33500     33501     33499     33497     33500     33502
     33499     33497     33500     33508     33500     33502     33503     33504
     33500     33502     33503     33505     33500     33508     33511     33512
     33501     33500     33502     33503     33501     33500     33508     33509
     33501     33500     33508     33510     33501     33500     33508     33511
     33502     33500     33508     33509     33502     33500     33508     33510
     33502     33500     33508     33511     33502     33503     33505     33506
     33502     33503     33505     33507     33502     33503     33505     33517
     33503     33502     33500     33508     33503     33505     33517     33518
     33503     33505     33517     33519     33503     33505     33517     33520
     33504     33503     33505     33506     33504     33503     33505     33507
     33504     33503     33505     33517     33505     33517     33520     33521
     33505     33517     33520     33522     33505     33517     33520     33523
     33506     33505     33517     33518     33506     33505     33517     33519
     33506     33505     33517     33520     33507     33505     33517     33518
     33507     33505     33517     33519     33507     33505     33517     33520
     33508     33511     33512     33513     33508     33511     33512     33514
     33509     33508     33511     33512     33510     33508     33511     33512
     33511     33512     33514     33515     33511     33512     33514     33516
     33511     33512     33514     33564     33512     33514     33564     33565
     33512     33514     33564     33566     33512     33514     33564     33567
     33513     33512     33514     33515     33513     33512     33514     33516
     33513     33512     33514     33564     33514     33564     33567     33568
     33514     33564     33567     33569     33514     33564     33567     33570
     33515     33514     33564     33565     33515     33514     33564     33566
     33515     33514     33564     33567     33516     33514     33564     33565
     33516     33514     33564     33566     33516     33514     33564     33567
     33517     33520     33523     33524     33517     33520     33523     33525
     33517     33520     33523     33526     33518     33517     33520     33521
     33518     33517     33520     33522     33518     33517     33520     33523
     33519     33517     33520     33521     33519     33517     33520     33522
     33519     33517     33520     33523     33520     33523     33526     33527
     33520     33523     33526     33528     33520     33523     33526     33529
     33521     33520     33523     33524     33521     33520     33523     33525
     33521     33520     33523     33526     33522     33520     33523     33524
     33522     33520     33523     33525     33522     33520     33523     33526
     33523     33526     33529     33530     33523     33526     33529     33531
     33523     33526     33529     33532     33524     33523     33526     33527
     33524     33523     33526     33528     33524     33523     33526     33529
     33525     33523     33526     33527     33525     33523     33526     33528
     33525     33523     33526     33529     33526     33529     33532     33533
     33526     33529     33532     33534     33526     33529     33532     33535
     33527     33526     33529     33530     33527     33526     33529     33531
     33527     33526     33529     33532     33528     33526     33529     33530
     33528     33526     33529     33531     33528     33526     33529     33532
     33529     33532     33535     33536     33529     33532     33535     33537
     33530     33529     33532     33533     33530     33529     33532     33534
     33530     33529     33532     33535     33531     33529     33532     33533
     33531     33529     33532     33534     33531     33529     33532     33535
     33532     33535     33537     33538     33532     33535     33537     33539
     33533     33532     33535     33536     33533     33532     33535     33537
     33534     33532     33535     33536     33534     33532     33535     33537
     33535     33537     33539     33540     33535     33537     33539     33541
     33535     33537     33539     33542     33536     33535     33537     33538
     33536     33535     33537     33539     33537     33539     33542     33543
     33537     33539     33542     33544     33537     33539     33542     33545
     33538     33537     33539     33540     33538     33537     33539     33541
     33538     33537     33539     33542     33539     33542     33545     33546
     33539     33542     33545     33547     33539     33542     33545     33548
     33540     33539     33542     33543     33540     33539     33542     33544
     33540     33539     33542     33545     33541     33539     33542     33543
     33541     33539     33542     33544     33541     33539     33542     33545
     33542     33545     33548     33549     33542     33545     33548     33550
     33542     33545     33548     33551     33543     33542     33545     33546
     33543     33542     33545     33547     33543     33542     33545     33548
     33544     33542     33545     33546     33544     33542     33545     33547
     33544     33542     33545     33548     33545     33548     33551     33552
     33545     33548     33551     33553     33545     33548     33551     33554
     33546     33545     33548     33549     33546     33545     33548     33550
     33546     33545     33548     33551     33547     33545     33548     33549
     33547     33545     33548     33550     33547     33545     33548     33551
     33548     33551     33554     33555     33548     33551     33554     33556
     33548     33551     33554     33557     33549     33548     33551     33552
     33549     33548     33551     33553     33549     33548     33551     33554
     33550     33548     33551     33552     33550     33548     33551     33553
     33550     33548     33551     33554     33551     33554     33557     33558
     33551     33554     33557     33559     33551     33554     33557     33560
     33552     33551     33554     33555     33552     33551     33554     33556
     33552     33551     33554     33557     33553     33551     33554     33555
     33553     33551     33554     33556     33553     33551     33554     33557
     33554     33557     33560     33561     33554     33557     33560     33562
     33554     33557     33560     33563     33555     33554     33557     33558
     33555     33554     33557     33559     33555     33554     33557     33560
     33556     33554     33557     33558     33556     33554     33557     33559
     33556     33554     33557     33560     33558     33557     33560     33561
     33558     33557     33560     33562     33558     33557     33560     33563
     33559     33557     33560     33561     33559     33557     33560     33562
     33559     33557     33560     33563     33564     33567     33570     33571
     33564     33567     33570     33572     33564     33567     33570     33573
     33565     33564     33567     33568     33565     33564     33567     33569
     33565     33564     33567     33570     33566     33564     33567     33568
     33566     33564     33567     33569     33566     33564     33567     33570
     33567     33570     33573     33574     33567     33570     33573     33575
     33567     33570     33573     33576     33568     33567     33570     33571
     33568     33567     33570     33572     33568     33567     33570     33573
     33569     33567     33570     33571     33569     33567     33570     33572
     33569     33567     33570     33573     33570     33573     33576     33577
     33570     33573     33576     33578     33570     33573     33576     33579
     33571     33570     33573     33574     33571     33570     33573     33575
     33571     33570     33573     33576     33572     33570     33573     33574
     33572     33570     33573     33575     33572     33570     33573     33576
     33573     33576     33579     33580     33573     33576     33579     33581
     33573     33576     33579     33582     33574     33573     33576     33577
     33574     33573     33576     33578     33574     33573     33576     33579
     33575     33573     33576     33577     33575     33573     33576     33578
     33575     33573     33576     33579     33576     33579     33582     33583
     33576     33579     33582     33584     33576     33579     33582     33585
     33577     33576     33579     33580     33577     33576     33579     33581
     33577     33576     33579     33582     33578     33576     33579     33580
     33578     33576     33579     33581     33578     33576     33579     33582
     33579     33582     33585     33586     33579     33582     33585     33587
     33579     33582     33585     33588     33580     33579     33582     33583
     33580     33579     33582     33584     33580     33579     33582     33585
     33581     33579     33582     33583     33581     33579     33582     33584
     33581     33579     33582     33585     33582     33585     33588     33589
     33582     33585     33588     33590     33582     33585     33588     33591
     33583     33582     33585     33586     33583     33582     33585     33587
     33583     33582     33585     33588     33584     33582     33585     33586
     33584     33582     33585     33587     33584     33582     33585     33588
     33585     33588     33591     33592     33585     33588     33591     33593
     33585     33588     33591     33594     33586     33585     33588     33589
     33586     33585     33588     33590     33586     33585     33588     33591
     33587     33585     33588     33589     33587     33585     33588     33590
     33587     33585     33588     33591     33588     33591     33594     33595
     33588     33591     33594     33596     33588     33591     33594     33597
     33589     33588     33591     33592     33589     33588     33591     33593
     33589     33588     33591     33594     33590     33588     33591     33592
     33590     33588     33591     33593     33590     33588     33591     33594
     33591     33594     33597     33598     33591     33594     33597     33599
     33591     33594     33597     33600     33592     33591     33594     33595
     33592     33591     33594     33596     33592     33591     33594     33597
     33593     33591     33594     33595     33593     33591     33594     33596
     33593     33591     33594     33597     33594     33597     33600     33601
     33594     33597     33600     33602     33594     33597     33600     33603
     33595     33594     33597     33598     33595     33594     33597     33599
     33595     33594     33597     33600     33596     33594     33597     33598
     33596     33594     33597     33599     33596     33594     33597     33600
     33597     33600     33603     33604     33597     33600     33603     33605
     33597     33600     33603     33606     33598     33597     33600     33601
     33598     33597     33600     33602     33598     33597     33600     33603
     33599     33597     33600     33601     33599     33597     33600     33602
     33599     33597     33600     33603     33601     33600     33603     33604
     33601     33600     33603     33605     33601     33600     33603     33606
     33602     33600     33603     33604     33602     33600     33603     33605
     33602     33600     33603     33606     33607     33608     33623     33624
     33607     33608     33623     33625     33607     33608     33623     33629
     33608     33607     33611     33612     33608     33607     33611     33613
     33608     33607     33611     33614     33608     33607     33615     33616
     33608     33607     33615     33617     33608     33607     33615     33618
     33608     33607     33619     33620     33608     33607     33619     33621
     33608     33607     33619     33622     33608     33623     33629     33626
     33609     33608     33607     33611     33609     33608     33607     33615
     33609     33608     33607     33619     33609     33608     33623     33624
     33609     33608     33623     33625     33609     33608     33623     33629
     33610     33608     33607     33611     33610     33608     33607     33615
     33610     33608     33607     33619     33610     33608     33623     33624
     33610     33608     33623     33625     33610     33608     33623     33629
     33611     33607     33608     33623     33611     33607     33615     33616
     33611     33607     33615     33617     33611     33607     33615     33618
     33611     33607     33619     33620     33611     33607     33619     33621
     33611     33607     33619     33622     33612     33611     33607     33615
     33612     33611     33607     33619     33613     33611     33607     33615
     33613     33611     33607     33619     33614     33611     33607     33615
     33614     33611     33607     33619     33615     33607     33608     33623
     33615     33607     33619     33620     33615     33607     33619     33621
     33615     33607     33619     33622     33616     33615     33607     33619
     33617     33615     33607     33619     33618     33615     33607     33619
     33619     33607     33608     33623     33623     33629     33626     33627
     33623     33629     33626     33628     33623     33629     33626     33630
     33624     33623     33629     33626     33625     33623     33629     33626
     33626     33630     33631     33632     33626     33630     33631     33633
     33626     33630     33631     33634     33627     33626     33630     33631
     33628     33626     33630     33631     33629     33626     33630     33631
     33630     33631     33634     33635     33630     33631     33634     33636
     33630     33631     33634     33642     33631     33634     33636     33637
     33631     33634     33642     33643     33631     33634     33642     33644
     33631     33634     33642     33645     33632     33631     33634     33635
     33632     33631     33634     33636     33632     33631     33634     33642
     33633     33631     33634     33635     33633     33631     33634     33636
     33633     33631     33634     33642     33634     33636     33637     33638
     33634     33636     33637     33639     33634     33642     33645     33646
     33635     33634     33636     33637     33635     33634     33642     33643
     33635     33634     33642     33644     33635     33634     33642     33645
     33636     33634     33642     33643     33636     33634     33642     33644
     33636     33634     33642     33645     33636     33637     33639     33640
     33636     33637     33639     33641     33636     33637     33639     33651
     33637     33636     33634     33642     33637     33639     33651     33652
     33637     33639     33651     33653     33637     33639     33651     33654
     33638     33637     33639     33640     33638     33637     33639     33641
     33638     33637     33639     33651     33639     33651     33654     33655
     33639     33651     33654     33656     33639     33651     33654     33657
     33640     33639     33651     33652     33640     33639     33651     33653
     33640     33639     33651     33654     33641     33639     33651     33652
     33641     33639     33651     33653     33641     33639     33651     33654
     33642     33645     33646     33647     33642     33645     33646     33648
     33643     33642     33645     33646     33644     33642     33645     33646
     33645     33646     33648     33649     33645     33646     33648     33650
     33645     33646     33648     33698     33646     33648     33698     33699
     33646     33648     33698     33700     33646     33648     33698     33701
     33647     33646     33648     33649     33647     33646     33648     33650
     33647     33646     33648     33698     33648     33698     33701     33702
     33648     33698     33701     33703     33648     33698     33701     33704
     33649     33648     33698     33699     33649     33648     33698     33700
     33649     33648     33698     33701     33650     33648     33698     33699
     33650     33648     33698     33700     33650     33648     33698     33701
     33651     33654     33657     33658     33651     33654     33657     33659
     33651     33654     33657     33660     33652     33651     33654     33655
     33652     33651     33654     33656     33652     33651     33654     33657
     33653     33651     33654     33655     33653     33651     33654     33656
     33653     33651     33654     33657     33654     33657     33660     33661
     33654     33657     33660     33662     33654     33657     33660     33663
     33655     33654     33657     33658     33655     33654     33657     33659
     33655     33654     33657     33660     33656     33654     33657     33658
     33656     33654     33657     33659     33656     33654     33657     33660
     33657     33660     33663     33664     33657     33660     33663     33665
     33657     33660     33663     33666     33658     33657     33660     33661
     33658     33657     33660     33662     33658     33657     33660     33663
     33659     33657     33660     33661     33659     33657     33660     33662
     33659     33657     33660     33663     33660     33663     33666     33667
     33660     33663     33666     33668     33660     33663     33666     33669
     33661     33660     33663     33664     33661     33660     33663     33665
     33661     33660     33663     33666     33662     33660     33663     33664
     33662     33660     33663     33665     33662     33660     33663     33666
     33663     33666     33669     33670     33663     33666     33669     33671
     33664     33663     33666     33667     33664     33663     33666     33668
     33664     33663     33666     33669     33665     33663     33666     33667
     33665     33663     33666     33668     33665     33663     33666     33669
     33666     33669     33671     33672     33666     33669     33671     33673
     33667     33666     33669     33670     33667     33666     33669     33671
     33668     33666     33669     33670     33668     33666     33669     33671
     33669     33671     33673     33674     33669     33671     33673     33675
     33669     33671     33673     33676     33670     33669     33671     33672
     33670     33669     33671     33673     33671     33673     33676     33677
     33671     33673     33676     33678     33671     33673     33676     33679
     33672     33671     33673     33674     33672     33671     33673     33675
     33672     33671     33673     33676     33673     33676     33679     33680
     33673     33676     33679     33681     33673     33676     33679     33682
     33674     33673     33676     33677     33674     33673     33676     33678
     33674     33673     33676     33679     33675     33673     33676     33677
     33675     33673     33676     33678     33675     33673     33676     33679
     33676     33679     33682     33683     33676     33679     33682     33684
     33676     33679     33682     33685     33677     33676     33679     33680
     33677     33676     33679     33681     33677     33676     33679     33682
     33678     33676     33679     33680     33678     33676     33679     33681
     33678     33676     33679     33682     33679     33682     33685     33686
     33679     33682     33685     33687     33679     33682     33685     33688
     33680     33679     33682     33683     33680     33679     33682     33684
     33680     33679     33682     33685     33681     33679     33682     33683
     33681     33679     33682     33684     33681     33679     33682     33685
     33682     33685     33688     33689     33682     33685     33688     33690
     33682     33685     33688     33691     33683     33682     33685     33686
     33683     33682     33685     33687     33683     33682     33685     33688
     33684     33682     33685     33686     33684     33682     33685     33687
     33684     33682     33685     33688     33685     33688     33691     33692
     33685     33688     33691     33693     33685     33688     33691     33694
     33686     33685     33688     33689     33686     33685     33688     33690
     33686     33685     33688     33691     33687     33685     33688     33689
     33687     33685     33688     33690     33687     33685     33688     33691
     33688     33691     33694     33695     33688     33691     33694     33696
     33688     33691     33694     33697     33689     33688     33691     33692
     33689     33688     33691     33693     33689     33688     33691     33694
     33690     33688     33691     33692     33690     33688     33691     33693
     33690     33688     33691     33694     33692     33691     33694     33695
     33692     33691     33694     33696     33692     33691     33694     33697
     33693     33691     33694     33695     33693     33691     33694     33696
     33693     33691     33694     33697     33698     33701     33704     33705
     33698     33701     33704     33706     33698     33701     33704     33707
     33699     33698     33701     33702     33699     33698     33701     33703
     33699     33698     33701     33704     33700     33698     33701     33702
     33700     33698     33701     33703     33700     33698     33701     33704
     33701     33704     33707     33708     33701     33704     33707     33709
     33701     33704     33707     33710     33702     33701     33704     33705
     33702     33701     33704     33706     33702     33701     33704     33707
     33703     33701     33704     33705     33703     33701     33704     33706
     33703     33701     33704     33707     33704     33707     33710     33711
     33704     33707     33710     33712     33704     33707     33710     33713
     33705     33704     33707     33708     33705     33704     33707     33709
     33705     33704     33707     33710     33706     33704     33707     33708
     33706     33704     33707     33709     33706     33704     33707     33710
     33707     33710     33713     33714     33707     33710     33713     33715
     33707     33710     33713     33716     33708     33707     33710     33711
     33708     33707     33710     33712     33708     33707     33710     33713
     33709     33707     33710     33711     33709     33707     33710     33712
     33709     33707     33710     33713     33710     33713     33716     33717
     33710     33713     33716     33718     33710     33713     33716     33719
     33711     33710     33713     33714     33711     33710     33713     33715
     33711     33710     33713     33716     33712     33710     33713     33714
     33712     33710     33713     33715     33712     33710     33713     33716
     33713     33716     33719     33720     33713     33716     33719     33721
     33713     33716     33719     33722     33714     33713     33716     33717
     33714     33713     33716     33718     33714     33713     33716     33719
     33715     33713     33716     33717     33715     33713     33716     33718
     33715     33713     33716     33719     33716     33719     33722     33723
     33716     33719     33722     33724     33716     33719     33722     33725
     33717     33716     33719     33720     33717     33716     33719     33721
     33717     33716     33719     33722     33718     33716     33719     33720
     33718     33716     33719     33721     33718     33716     33719     33722
     33719     33722     33725     33726     33719     33722     33725     33727
     33719     33722     33725     33728     33720     33719     33722     33723
     33720     33719     33722     33724     33720     33719     33722     33725
     33721     33719     33722     33723     33721     33719     33722     33724
     33721     33719     33722     33725     33722     33725     33728     33729
     33722     33725     33728     33730     33722     33725     33728     33731
     33723     33722     33725     33726     33723     33722     33725     33727
     33723     33722     33725     33728     33724     33722     33725     33726
     33724     33722     33725     33727     33724     33722     33725     33728
     33725     33728     33731     33732     33725     33728     33731     33733
     33725     33728     33731     33734     33726     33725     33728     33729
     33726     33725     33728     33730     33726     33725     33728     33731
     33727     33725     33728     33729     33727     33725     33728     33730
     33727     33725     33728     33731     33728     33731     33734     33735
     33728     33731     33734     33736     33728     33731     33734     33737
     33729     33728     33731     33732     33729     33728     33731     33733
     33729     33728     33731     33734     33730     33728     33731     33732
     33730     33728     33731     33733     33730     33728     33731     33734
     33731     33734     33737     33738     33731     33734     33737     33739
     33731     33734     33737     33740     33732     33731     33734     33735
     33732     33731     33734     33736     33732     33731     33734     33737
     33733     33731     33734     33735     33733     33731     33734     33736
     33733     33731     33734     33737     33735     33734     33737     33738
     33735     33734     33737     33739     33735     33734     33737     33740
     33736     33734     33737     33738     33736     33734     33737     33739
     33736     33734     33737     33740     33741     33742     33757     33758
     33741     33742     33757     33759     33741     33742     33757     33763
     33742     33741     33745     33746     33742     33741     33745     33747
     33742     33741     33745     33748     33742     33741     33749     33750
     33742     33741     33749     33751     33742     33741     33749     33752
     33742     33741     33753     33754     33742     33741     33753     33755
     33742     33741     33753     33756     33742     33757     33763     33760
     33743     33742     33741     33745     33743     33742     33741     33749
     33743     33742     33741     33753     33743     33742     33757     33758
     33743     33742     33757     33759     33743     33742     33757     33763
     33744     33742     33741     33745     33744     33742     33741     33749
     33744     33742     33741     33753     33744     33742     33757     33758
     33744     33742     33757     33759     33744     33742     33757     33763
     33745     33741     33742     33757     33745     33741     33749     33750
     33745     33741     33749     33751     33745     33741     33749     33752
     33745     33741     33753     33754     33745     33741     33753     33755
     33745     33741     33753     33756     33746     33745     33741     33749
     33746     33745     33741     33753     33747     33745     33741     33749
     33747     33745     33741     33753     33748     33745     33741     33749
     33748     33745     33741     33753     33749     33741     33742     33757
     33749     33741     33753     33754     33749     33741     33753     33755
     33749     33741     33753     33756     33750     33749     33741     33753
     33751     33749     33741     33753     33752     33749     33741     33753
     33753     33741     33742     33757     33757     33763     33760     33761
     33757     33763     33760     33762     33757     33763     33760     33764
     33758     33757     33763     33760     33759     33757     33763     33760
     33760     33764     33765     33766     33760     33764     33765     33767
     33760     33764     33765     33768     33761     33760     33764     33765
     33762     33760     33764     33765     33763     33760     33764     33765
     33764     33765     33768     33769     33764     33765     33768     33770
     33764     33765     33768     33776     33765     33768     33770     33771
     33765     33768     33776     33777     33765     33768     33776     33778
     33765     33768     33776     33779     33766     33765     33768     33769
     33766     33765     33768     33770     33766     33765     33768     33776
     33767     33765     33768     33769     33767     33765     33768     33770
     33767     33765     33768     33776     33768     33770     33771     33772
     33768     33770     33771     33773     33768     33776     33779     33780
     33769     33768     33770     33771     33769     33768     33776     33777
     33769     33768     33776     33778     33769     33768     33776     33779
     33770     33768     33776     33777     33770     33768     33776     33778
     33770     33768     33776     33779     33770     33771     33773     33774
     33770     33771     33773     33775     33770     33771     33773     33785
     33771     33770     33768     33776     33771     33773     33785     33786
     33771     33773     33785     33787     33771     33773     33785     33788
     33772     33771     33773     33774     33772     33771     33773     33775
     33772     33771     33773     33785     33773     33785     33788     33789
     33773     33785     33788     33790     33773     33785     33788     33791
     33774     33773     33785     33786     33774     33773     33785     33787
     33774     33773     33785     33788     33775     33773     33785     33786
     33775     33773     33785     33787     33775     33773     33785     33788
     33776     33779     33780     33781     33776     33779     33780     33782
     33777     33776     33779     33780     33778     33776     33779     33780
     33779     33780     33782     33783     33779     33780     33782     33784
     33779     33780     33782     33832     33780     33782     33832     33833
     33780     33782     33832     33834     33780     33782     33832     33835
     33781     33780     33782     33783     33781     33780     33782     33784
     33781     33780     33782     33832     33782     33832     33835     33836
     33782     33832     33835     33837     33782     33832     33835     33838
     33783     33782     33832     33833     33783     33782     33832     33834
     33783     33782     33832     33835     33784     33782     33832     33833
     33784     33782     33832     33834     33784     33782     33832     33835
     33785     33788     33791     33792     33785     33788     33791     33793
     33785     33788     33791     33794     33786     33785     33788     33789
     33786     33785     33788     33790     33786     33785     33788     33791
     33787     33785     33788     33789     33787     33785     33788     33790
     33787     33785     33788     33791     33788     33791     33794     33795
     33788     33791     33794     33796     33788     33791     33794     33797
     33789     33788     33791     33792     33789     33788     33791     33793
     33789     33788     33791     33794     33790     33788     33791     33792
     33790     33788     33791     33793     33790     33788     33791     33794
     33791     33794     33797     33798     33791     33794     33797     33799
     33791     33794     33797     33800     33792     33791     33794     33795
     33792     33791     33794     33796     33792     33791     33794     33797
     33793     33791     33794     33795     33793     33791     33794     33796
     33793     33791     33794     33797     33794     33797     33800     33801
     33794     33797     33800     33802     33794     33797     33800     33803
     33795     33794     33797     33798     33795     33794     33797     33799
     33795     33794     33797     33800     33796     33794     33797     33798
     33796     33794     33797     33799     33796     33794     33797     33800
     33797     33800     33803     33804     33797     33800     33803     33805
     33798     33797     33800     33801     33798     33797     33800     33802
     33798     33797     33800     33803     33799     33797     33800     33801
     33799     33797     33800     33802     33799     33797     33800     33803
     33800     33803     33805     33806     33800     33803     33805     33807
     33801     33800     33803     33804     33801     33800     33803     33805
     33802     33800     33803     33804     33802     33800     33803     33805
     33803     33805     33807     33808     33803     33805     33807     33809
     33803     33805     33807     33810     33804     33803     33805     33806
     33804     33803     33805     33807     33805     33807     33810     33811
     33805     33807     33810     33812     33805     33807     33810     33813
     33806     33805     33807     33808     33806     33805     33807     33809
     33806     33805     33807     33810     33807     33810     33813     33814
     33807     33810     33813     33815     33807     33810     33813     33816
     33808     33807     33810     33811     33808     33807     33810     33812
     33808     33807     33810     33813     33809     33807     33810     33811
     33809     33807     33810     33812     33809     33807     33810     33813
     33810     33813     33816     33817     33810     33813     33816     33818
     33810     33813     33816     33819     33811     33810     33813     33814
     33811     33810     33813     33815     33811     33810     33813     33816
     33812     33810     33813     33814     33812     33810     33813     33815
     33812     33810     33813     33816     33813     33816     33819     33820
     33813     33816     33819     33821     33813     33816     33819     33822
     33814     33813     33816     33817     33814     33813     33816     33818
     33814     33813     33816     33819     33815     33813     33816     33817
     33815     33813     33816     33818     33815     33813     33816     33819
     33816     33819     33822     33823     33816     33819     33822     33824
     33816     33819     33822     33825     33817     33816     33819     33820
     33817     33816     33819     33821     33817     33816     33819     33822
     33818     33816     33819     33820     33818     33816     33819     33821
     33818     33816     33819     33822     33819     33822     33825     33826
     33819     33822     33825     33827     33819     33822     33825     33828
     33820     33819     33822     33823     33820     33819     33822     33824
     33820     33819     33822     33825     33821     33819     33822     33823
     33821     33819     33822     33824     33821     33819     33822     33825
     33822     33825     33828     33829     33822     33825     33828     33830
     33822     33825     33828     33831     33823     33822     33825     33826
     33823     33822     33825     33827     33823     33822     33825     33828
     33824     33822     33825     33826     33824     33822     33825     33827
     33824     33822     33825     33828     33826     33825     33828     33829
     33826     33825     33828     33830     33826     33825     33828     33831
     33827     33825     33828     33829     33827     33825     33828     33830
     33827     33825     33828     33831     33832     33835     33838     33839
     33832     33835     33838     33840     33832     33835     33838     33841
     33833     33832     33835     33836     33833     33832     33835     33837
     33833     33832     33835     33838     33834     33832     33835     33836
     33834     33832     33835     33837     33834     33832     33835     33838
     33835     33838     33841     33842     33835     33838     33841     33843
     33835     33838     33841     33844     33836     33835     33838     33839
     33836     33835     33838     33840     33836     33835     33838     33841
     33837     33835     33838     33839     33837     33835     33838     33840
     33837     33835     33838     33841     33838     33841     33844     33845
     33838     33841     33844     33846     33838     33841     33844     33847
     33839     33838     33841     33842     33839     33838     33841     33843
     33839     33838     33841     33844     33840     33838     33841     33842
     33840     33838     33841     33843     33840     33838     33841     33844
     33841     33844     33847     33848     33841     33844     33847     33849
     33841     33844     33847     33850     33842     33841     33844     33845
     33842     33841     33844     33846     33842     33841     33844     33847
     33843     33841     33844     33845     33843     33841     33844     33846
     33843     33841     33844     33847     33844     33847     33850     33851
     33844     33847     33850     33852     33844     33847     33850     33853
     33845     33844     33847     33848     33845     33844     33847     33849
     33845     33844     33847     33850     33846     33844     33847     33848
     33846     33844     33847     33849     33846     33844     33847     33850
     33847     33850     33853     33854     33847     33850     33853     33855
     33847     33850     33853     33856     33848     33847     33850     33851
     33848     33847     33850     33852     33848     33847     33850     33853
     33849     33847     33850     33851     33849     33847     33850     33852
     33849     33847     33850     33853     33850     33853     33856     33857
     33850     33853     33856     33858     33850     33853     33856     33859
     33851     33850     33853     33854     33851     33850     33853     33855
     33851     33850     33853     33856     33852     33850     33853     33854
     33852     33850     33853     33855     33852     33850     33853     33856
     33853     33856     33859     33860     33853     33856     33859     33861
     33853     33856     33859     33862     33854     33853     33856     33857
     33854     33853     33856     33858     33854     33853     33856     33859
     33855     33853     33856     33857     33855     33853     33856     33858
     33855     33853     33856     33859     33856     33859     33862     33863
     33856     33859     33862     33864     33856     33859     33862     33865
     33857     33856     33859     33860     33857     33856     33859     33861
     33857     33856     33859     33862     33858     33856     33859     33860
     33858     33856     33859     33861     33858     33856     33859     33862
     33859     33862     33865     33866     33859     33862     33865     33867
     33859     33862     33865     33868     33860     33859     33862     33863
     33860     33859     33862     33864     33860     33859     33862     33865
     33861     33859     33862     33863     33861     33859     33862     33864
     33861     33859     33862     33865     33862     33865     33868     33869
     33862     33865     33868     33870     33862     33865     33868     33871
     33863     33862     33865     33866     33863     33862     33865     33867
     33863     33862     33865     33868     33864     33862     33865     33866
     33864     33862     33865     33867     33864     33862     33865     33868
     33865     33868     33871     33872     33865     33868     33871     33873
     33865     33868     33871     33874     33866     33865     33868     33869
     33866     33865     33868     33870     33866     33865     33868     33871
     33867     33865     33868     33869     33867     33865     33868     33870
     33867     33865     33868     33871     33869     33868     33871     33872
     33869     33868     33871     33873     33869     33868     33871     33874
     33870     33868     33871     33872     33870     33868     33871     33873
     33870     33868     33871     33874     33875     33876     33891     33892
     33875     33876     33891     33893     33875     33876     33891     33897
     33876     33875     33879     33880     33876     33875     33879     33881
     33876     33875     33879     33882     33876     33875     33883     33884
     33876     33875     33883     33885     33876     33875     33883     33886
     33876     33875     33887     33888     33876     33875     33887     33889
     33876     33875     33887     33890     33876     33891     33897     33894
     33877     33876     33875     33879     33877     33876     33875     33883
     33877     33876     33875     33887     33877     33876     33891     33892
     33877     33876     33891     33893     33877     33876     33891     33897
     33878     33876     33875     33879     33878     33876     33875     33883
     33878     33876     33875     33887     33878     33876     33891     33892
     33878     33876     33891     33893     33878     33876     33891     33897
     33879     33875     33876     33891     33879     33875     33883     33884
     33879     33875     33883     33885     33879     33875     33883     33886
     33879     33875     33887     33888     33879     33875     33887     33889
     33879     33875     33887     33890     33880     33879     33875     33883
     33880     33879     33875     33887     33881     33879     33875     33883
     33881     33879     33875     33887     33882     33879     33875     33883
     33882     33879     33875     33887     33883     33875     33876     33891
     33883     33875     33887     33888     33883     33875     33887     33889
     33883     33875     33887     33890     33884     33883     33875     33887
     33885     33883     33875     33887     33886     33883     33875     33887
     33887     33875     33876     33891     33891     33897     33894     33895
     33891     33897     33894     33896     33891     33897     33894     33898
     33892     33891     33897     33894     33893     33891     33897     33894
     33894     33898     33899     33900     33894     33898     33899     33901
     33894     33898     33899     33902     33895     33894     33898     33899
     33896     33894     33898     33899     33897     33894     33898     33899
     33898     33899     33902     33903     33898     33899     33902     33904
     33898     33899     33902     33910     33899     33902     33904     33905
     33899     33902     33910     33911     33899     33902     33910     33912
     33899     33902     33910     33913     33900     33899     33902     33903
     33900     33899     33902     33904     33900     33899     33902     33910
     33901     33899     33902     33903     33901     33899     33902     33904
     33901     33899     33902     33910     33902     33904     33905     33906
     33902     33904     33905     33907     33902     33910     33913     33914
     33903     33902     33904     33905     33903     33902     33910     33911
     33903     33902     33910     33912     33903     33902     33910     33913
     33904     33902     33910     33911     33904     33902     33910     33912
     33904     33902     33910     33913     33904     33905     33907     33908
     33904     33905     33907     33909     33904     33905     33907     33919
     33905     33904     33902     33910     33905     33907     33919     33920
     33905     33907     33919     33921     33905     33907     33919     33922
     33906     33905     33907     33908     33906     33905     33907     33909
     33906     33905     33907     33919     33907     33919     33922     33923
     33907     33919     33922     33924     33907     33919     33922     33925
     33908     33907     33919     33920     33908     33907     33919     33921
     33908     33907     33919     33922     33909     33907     33919     33920
     33909     33907     33919     33921     33909     33907     33919     33922
     33910     33913     33914     33915     33910     33913     33914     33916
     33911     33910     33913     33914     33912     33910     33913     33914
     33913     33914     33916     33917     33913     33914     33916     33918
     33913     33914     33916     33966     33914     33916     33966     33967
     33914     33916     33966     33968     33914     33916     33966     33969
     33915     33914     33916     33917     33915     33914     33916     33918
     33915     33914     33916     33966     33916     33966     33969     33970
     33916     33966     33969     33971     33916     33966     33969     33972
     33917     33916     33966     33967     33917     33916     33966     33968
     33917     33916     33966     33969     33918     33916     33966     33967
     33918     33916     33966     33968     33918     33916     33966     33969
     33919     33922     33925     33926     33919     33922     33925     33927
     33919     33922     33925     33928     33920     33919     33922     33923
     33920     33919     33922     33924     33920     33919     33922     33925
     33921     33919     33922     33923     33921     33919     33922     33924
     33921     33919     33922     33925     33922     33925     33928     33929
     33922     33925     33928     33930     33922     33925     33928     33931
     33923     33922     33925     33926     33923     33922     33925     33927
     33923     33922     33925     33928     33924     33922     33925     33926
     33924     33922     33925     33927     33924     33922     33925     33928
     33925     33928     33931     33932     33925     33928     33931     33933
     33925     33928     33931     33934     33926     33925     33928     33929
     33926     33925     33928     33930     33926     33925     33928     33931
     33927     33925     33928     33929     33927     33925     33928     33930
     33927     33925     33928     33931     33928     33931     33934     33935
     33928     33931     33934     33936     33928     33931     33934     33937
     33929     33928     33931     33932     33929     33928     33931     33933
     33929     33928     33931     33934     33930     33928     33931     33932
     33930     33928     33931     33933     33930     33928     33931     33934
     33931     33934     33937     33938     33931     33934     33937     33939
     33932     33931     33934     33935     33932     33931     33934     33936
     33932     33931     33934     33937     33933     33931     33934     33935
     33933     33931     33934     33936     33933     33931     33934     33937
     33934     33937     33939     33940     33934     33937     33939     33941
     33935     33934     33937     33938     33935     33934     33937     33939
     33936     33934     33937     33938     33936     33934     33937     33939
     33937     33939     33941     33942     33937     33939     33941     33943
     33937     33939     33941     33944     33938     33937     33939     33940
     33938     33937     33939     33941     33939     33941     33944     33945
     33939     33941     33944     33946     33939     33941     33944     33947
     33940     33939     33941     33942     33940     33939     33941     33943
     33940     33939     33941     33944     33941     33944     33947     33948
     33941     33944     33947     33949     33941     33944     33947     33950
     33942     33941     33944     33945     33942     33941     33944     33946
     33942     33941     33944     33947     33943     33941     33944     33945
     33943     33941     33944     33946     33943     33941     33944     33947
     33944     33947     33950     33951     33944     33947     33950     33952
     33944     33947     33950     33953     33945     33944     33947     33948
     33945     33944     33947     33949     33945     33944     33947     33950
     33946     33944     33947     33948     33946     33944     33947     33949
     33946     33944     33947     33950     33947     33950     33953     33954
     33947     33950     33953     33955     33947     33950     33953     33956
     33948     33947     33950     33951     33948     33947     33950     33952
     33948     33947     33950     33953     33949     33947     33950     33951
     33949     33947     33950     33952     33949     33947     33950     33953
     33950     33953     33956     33957     33950     33953     33956     33958
     33950     33953     33956     33959     33951     33950     33953     33954
     33951     33950     33953     33955     33951     33950     33953     33956
     33952     33950     33953     33954     33952     33950     33953     33955
     33952     33950     33953     33956     33953     33956     33959     33960
     33953     33956     33959     33961     33953     33956     33959     33962
     33954     33953     33956     33957     33954     33953     33956     33958
     33954     33953     33956     33959     33955     33953     33956     33957
     33955     33953     33956     33958     33955     33953     33956     33959
     33956     33959     33962     33963     33956     33959     33962     33964
     33956     33959     33962     33965     33957     33956     33959     33960
     33957     33956     33959     33961     33957     33956     33959     33962
     33958     33956     33959     33960     33958     33956     33959     33961
     33958     33956     33959     33962     33960     33959     33962     33963
     33960     33959     33962     33964     33960     33959     33962     33965
     33961     33959     33962     33963     33961     33959     33962     33964
     33961     33959     33962     33965     33966     33969     33972     33973
     33966     33969     33972     33974     33966     33969     33972     33975
     33967     33966     33969     33970     33967     33966     33969     33971
     33967     33966     33969     33972     33968     33966     33969     33970
     33968     33966     33969     33971     33968     33966     33969     33972
     33969     33972     33975     33976     33969     33972     33975     33977
     33969     33972     33975     33978     33970     33969     33972     33973
     33970     33969     33972     33974     33970     33969     33972     33975
     33971     33969     33972     33973     33971     33969     33972     33974
     33971     33969     33972     33975     33972     33975     33978     33979
     33972     33975     33978     33980     33972     33975     33978     33981
     33973     33972     33975     33976     33973     33972     33975     33977
     33973     33972     33975     33978     33974     33972     33975     33976
     33974     33972     33975     33977     33974     33972     33975     33978
     33975     33978     33981     33982     33975     33978     33981     33983
     33975     33978     33981     33984     33976     33975     33978     33979
     33976     33975     33978     33980     33976     33975     33978     33981
     33977     33975     33978     33979     33977     33975     33978     33980
     33977     33975     33978     33981     33978     33981     33984     33985
     33978     33981     33984     33986     33978     33981     33984     33987
     33979     33978     33981     33982     33979     33978     33981     33983
     33979     33978     33981     33984     33980     33978     33981     33982
     33980     33978     33981     33983     33980     33978     33981     33984
     33981     33984     33987     33988     33981     33984     33987     33989
     33981     33984     33987     33990     33982     33981     33984     33985
     33982     33981     33984     33986     33982     33981     33984     33987
     33983     33981     33984     33985     33983     33981     33984     33986
     33983     33981     33984     33987     33984     33987     33990     33991
     33984     33987     33990     33992     33984     33987     33990     33993
     33985     33984     33987     33988     33985     33984     33987     33989
     33985     33984     33987     33990     33986     33984     33987     33988
     33986     33984     33987     33989     33986     33984     33987     33990
     33987     33990     33993     33994     33987     33990     33993     33995
     33987     33990     33993     33996     33988     33987     33990     33991
     33988     33987     33990     33992     33988     33987     33990     33993
     33989     33987     33990     33991     33989     33987     33990     33992
     33989     33987     33990     33993     33990     33993     33996     33997
     33990     33993     33996     33998     33990     33993     33996     33999
     33991     33990     33993     33994     33991     33990     33993     33995
     33991     33990     33993     33996     33992     33990     33993     33994
     33992     33990     33993     33995     33992     33990     33993     33996
     33993     33996     33999     34000     33993     33996     33999     34001
     33993     33996     33999     34002     33994     33993     33996     33997
     33994     33993     33996     33998     33994     33993     33996     33999
     33995     33993     33996     33997     33995     33993     33996     33998
     33995     33993     33996     33999     33996     33999     34002     34003
     33996     33999     34002     34004     33996     33999     34002     34005
     33997     33996     33999     34000     33997     33996     33999     34001
     33997     33996     33999     34002     33998     33996     33999     34000
     33998     33996     33999     34001     33998     33996     33999     34002
     33999     34002     34005     34006     33999     34002     34005     34007
     33999     34002     34005     34008     34000     33999     34002     34003
     34000     33999     34002     34004     34000     33999     34002     34005
     34001     33999     34002     34003     34001     33999     34002     34004
     34001     33999     34002     34005     34003     34002     34005     34006
     34003     34002     34005     34007     34003     34002     34005     34008
     34004     34002     34005     34006     34004     34002     34005     34007
     34004     34002     34005     34008     34009     34010     34025     34026
     34009     34010     34025     34027     34009     34010     34025     34031
     34010     34009     34013     34014     34010     34009     34013     34015
     34010     34009     34013     34016     34010     34009     34017     34018
     34010     34009     34017     34019     34010     34009     34017     34020
     34010     34009     34021     34022     34010     34009     34021     34023
     34010     34009     34021     34024     34010     34025     34031     34028
     34011     34010     34009     34013     34011     34010     34009     34017
     34011     34010     34009     34021     34011     34010     34025     34026
     34011     34010     34025     34027     34011     34010     34025     34031
     34012     34010     34009     34013     34012     34010     34009     34017
     34012     34010     34009     34021     34012     34010     34025     34026
     34012     34010     34025     34027     34012     34010     34025     34031
     34013     34009     34010     34025     34013     34009     34017     34018
     34013     34009     34017     34019     34013     34009     34017     34020
     34013     34009     34021     34022     34013     34009     34021     34023
     34013     34009     34021     34024     34014     34013     34009     34017
     34014     34013     34009     34021     34015     34013     34009     34017
     34015     34013     34009     34021     34016     34013     34009     34017
     34016     34013     34009     34021     34017     34009     34010     34025
     34017     34009     34021     34022     34017     34009     34021     34023
     34017     34009     34021     34024     34018     34017     34009     34021
     34019     34017     34009     34021     34020     34017     34009     34021
     34021     34009     34010     34025     34025     34031     34028     34029
     34025     34031     34028     34030     34025     34031     34028     34032
     34026     34025     34031     34028     34027     34025     34031     34028
     34028     34032     34033     34034     34028     34032     34033     34035
     34028     34032     34033     34036     34029     34028     34032     34033
     34030     34028     34032     34033     34031     34028     34032     34033
     34032     34033     34036     34037     34032     34033     34036     34038
     34032     34033     34036     34044     34033     34036     34038     34039
     34033     34036     34044     34045     34033     34036     34044     34046
     34033     34036     34044     34047     34034     34033     34036     34037
     34034     34033     34036     34038     34034     34033     34036     34044
     34035     34033     34036     34037     34035     34033     34036     34038
     34035     34033     34036     34044     34036     34038     34039     34040
     34036     34038     34039     34041     34036     34044     34047     34048
     34037     34036     34038     34039     34037     34036     34044     34045
     34037     34036     34044     34046     34037     34036     34044     34047
     34038     34036     34044     34045     34038     34036     34044     34046
     34038     34036     34044     34047     34038     34039     34041     34042
     34038     34039     34041     34043     34038     34039     34041     34053
     34039     34038     34036     34044     34039     34041     34053     34054
     34039     34041     34053     34055     34039     34041     34053     34056
     34040     34039     34041     34042     34040     34039     34041     34043
     34040     34039     34041     34053     34041     34053     34056     34057
     34041     34053     34056     34058     34041     34053     34056     34059
     34042     34041     34053     34054     34042     34041     34053     34055
     34042     34041     34053     34056     34043     34041     34053     34054
     34043     34041     34053     34055     34043     34041     34053     34056
     34044     34047     34048     34049     34044     34047     34048     34050
     34045     34044     34047     34048     34046     34044     34047     34048
     34047     34048     34050     34051     34047     34048     34050     34052
     34047     34048     34050     34100     34048     34050     34100     34101
     34048     34050     34100     34102     34048     34050     34100     34103
     34049     34048     34050     34051     34049     34048     34050     34052
     34049     34048     34050     34100     34050     34100     34103     34104
     34050     34100     34103     34105     34050     34100     34103     34106
     34051     34050     34100     34101     34051     34050     34100     34102
     34051     34050     34100     34103     34052     34050     34100     34101
     34052     34050     34100     34102     34052     34050     34100     34103
     34053     34056     34059     34060     34053     34056     34059     34061
     34053     34056     34059     34062     34054     34053     34056     34057
     34054     34053     34056     34058     34054     34053     34056     34059
     34055     34053     34056     34057     34055     34053     34056     34058
     34055     34053     34056     34059     34056     34059     34062     34063
     34056     34059     34062     34064     34056     34059     34062     34065
     34057     34056     34059     34060     34057     34056     34059     34061
     34057     34056     34059     34062     34058     34056     34059     34060
     34058     34056     34059     34061     34058     34056     34059     34062
     34059     34062     34065     34066     34059     34062     34065     34067
     34059     34062     34065     34068     34060     34059     34062     34063
     34060     34059     34062     34064     34060     34059     34062     34065
     34061     34059     34062     34063     34061     34059     34062     34064
     34061     34059     34062     34065     34062     34065     34068     34069
     34062     34065     34068     34070     34062     34065     34068     34071
     34063     34062     34065     34066     34063     34062     34065     34067
     34063     34062     34065     34068     34064     34062     34065     34066
     34064     34062     34065     34067     34064     34062     34065     34068
     34065     34068     34071     34072     34065     34068     34071     34073
     34066     34065     34068     34069     34066     34065     34068     34070
     34066     34065     34068     34071     34067     34065     34068     34069
     34067     34065     34068     34070     34067     34065     34068     34071
     34068     34071     34073     34074     34068     34071     34073     34075
     34069     34068     34071     34072     34069     34068     34071     34073
     34070     34068     34071     34072     34070     34068     34071     34073
     34071     34073     34075     34076     34071     34073     34075     34077
     34071     34073     34075     34078     34072     34071     34073     34074
     34072     34071     34073     34075     34073     34075     34078     34079
     34073     34075     34078     34080     34073     34075     34078     34081
     34074     34073     34075     34076     34074     34073     34075     34077
     34074     34073     34075     34078     34075     34078     34081     34082
     34075     34078     34081     34083     34075     34078     34081     34084
     34076     34075     34078     34079     34076     34075     34078     34080
     34076     34075     34078     34081     34077     34075     34078     34079
     34077     34075     34078     34080     34077     34075     34078     34081
     34078     34081     34084     34085     34078     34081     34084     34086
     34078     34081     34084     34087     34079     34078     34081     34082
     34079     34078     34081     34083     34079     34078     34081     34084
     34080     34078     34081     34082     34080     34078     34081     34083
     34080     34078     34081     34084     34081     34084     34087     34088
     34081     34084     34087     34089     34081     34084     34087     34090
     34082     34081     34084     34085     34082     34081     34084     34086
     34082     34081     34084     34087     34083     34081     34084     34085
     34083     34081     34084     34086     34083     34081     34084     34087
     34084     34087     34090     34091     34084     34087     34090     34092
     34084     34087     34090     34093     34085     34084     34087     34088
     34085     34084     34087     34089     34085     34084     34087     34090
     34086     34084     34087     34088     34086     34084     34087     34089
     34086     34084     34087     34090     34087     34090     34093     34094
     34087     34090     34093     34095     34087     34090     34093     34096
     34088     34087     34090     34091     34088     34087     34090     34092
     34088     34087     34090     34093     34089     34087     34090     34091
     34089     34087     34090     34092     34089     34087     34090     34093
     34090     34093     34096     34097     34090     34093     34096     34098
     34090     34093     34096     34099     34091     34090     34093     34094
     34091     34090     34093     34095     34091     34090     34093     34096
     34092     34090     34093     34094     34092     34090     34093     34095
     34092     34090     34093     34096     34094     34093     34096     34097
     34094     34093     34096     34098     34094     34093     34096     34099
     34095     34093     34096     34097     34095     34093     34096     34098
     34095     34093     34096     34099     34100     34103     34106     34107
     34100     34103     34106     34108     34100     34103     34106     34109
     34101     34100     34103     34104     34101     34100     34103     34105
     34101     34100     34103     34106     34102     34100     34103     34104
     34102     34100     34103     34105     34102     34100     34103     34106
     34103     34106     34109     34110     34103     34106     34109     34111
     34103     34106     34109     34112     34104     34103     34106     34107
     34104     34103     34106     34108     34104     34103     34106     34109
     34105     34103     34106     34107     34105     34103     34106     34108
     34105     34103     34106     34109     34106     34109     34112     34113
     34106     34109     34112     34114     34106     34109     34112     34115
     34107     34106     34109     34110     34107     34106     34109     34111
     34107     34106     34109     34112     34108     34106     34109     34110
     34108     34106     34109     34111     34108     34106     34109     34112
     34109     34112     34115     34116     34109     34112     34115     34117
     34109     34112     34115     34118     34110     34109     34112     34113
     34110     34109     34112     34114     34110     34109     34112     34115
     34111     34109     34112     34113     34111     34109     34112     34114
     34111     34109     34112     34115     34112     34115     34118     34119
     34112     34115     34118     34120     34112     34115     34118     34121
     34113     34112     34115     34116     34113     34112     34115     34117
     34113     34112     34115     34118     34114     34112     34115     34116
     34114     34112     34115     34117     34114     34112     34115     34118
     34115     34118     34121     34122     34115     34118     34121     34123
     34115     34118     34121     34124     34116     34115     34118     34119
     34116     34115     34118     34120     34116     34115     34118     34121
     34117     34115     34118     34119     34117     34115     34118     34120
     34117     34115     34118     34121     34118     34121     34124     34125
     34118     34121     34124     34126     34118     34121     34124     34127
     34119     34118     34121     34122     34119     34118     34121     34123
     34119     34118     34121     34124     34120     34118     34121     34122
     34120     34118     34121     34123     34120     34118     34121     34124
     34121     34124     34127     34128     34121     34124     34127     34129
     34121     34124     34127     34130     34122     34121     34124     34125
     34122     34121     34124     34126     34122     34121     34124     34127
     34123     34121     34124     34125     34123     34121     34124     34126
     34123     34121     34124     34127     34124     34127     34130     34131
     34124     34127     34130     34132     34124     34127     34130     34133
     34125     34124     34127     34128     34125     34124     34127     34129
     34125     34124     34127     34130     34126     34124     34127     34128
     34126     34124     34127     34129     34126     34124     34127     34130
     34127     34130     34133     34134     34127     34130     34133     34135
     34127     34130     34133     34136     34128     34127     34130     34131
     34128     34127     34130     34132     34128     34127     34130     34133
     34129     34127     34130     34131     34129     34127     34130     34132
     34129     34127     34130     34133     34130     34133     34136     34137
     34130     34133     34136     34138     34130     34133     34136     34139
     34131     34130     34133     34134     34131     34130     34133     34135
     34131     34130     34133     34136     34132     34130     34133     34134
     34132     34130     34133     34135     34132     34130     34133     34136
     34133     34136     34139     34140     34133     34136     34139     34141
     34133     34136     34139     34142     34134     34133     34136     34137
     34134     34133     34136     34138     34134     34133     34136     34139
     34135     34133     34136     34137     34135     34133     34136     34138
     34135     34133     34136     34139     34137     34136     34139     34140
     34137     34136     34139     34141     34137     34136     34139     34142
     34138     34136     34139     34140     34138     34136     34139     34141
     34138     34136     34139     34142     34143     34144     34159     34160
     34143     34144     34159     34161     34143     34144     34159     34165
     34144     34143     34147     34148     34144     34143     34147     34149
     34144     34143     34147     34150     34144     34143     34151     34152
     34144     34143     34151     34153     34144     34143     34151     34154
     34144     34143     34155     34156     34144     34143     34155     34157
     34144     34143     34155     34158     34144     34159     34165     34162
     34145     34144     34143     34147     34145     34144     34143     34151
     34145     34144     34143     34155     34145     34144     34159     34160
     34145     34144     34159     34161     34145     34144     34159     34165
     34146     34144     34143     34147     34146     34144     34143     34151
     34146     34144     34143     34155     34146     34144     34159     34160
     34146     34144     34159     34161     34146     34144     34159     34165
     34147     34143     34144     34159     34147     34143     34151     34152
     34147     34143     34151     34153     34147     34143     34151     34154
     34147     34143     34155     34156     34147     34143     34155     34157
     34147     34143     34155     34158     34148     34147     34143     34151
     34148     34147     34143     34155     34149     34147     34143     34151
     34149     34147     34143     34155     34150     34147     34143     34151
     34150     34147     34143     34155     34151     34143     34144     34159
     34151     34143     34155     34156     34151     34143     34155     34157
     34151     34143     34155     34158     34152     34151     34143     34155
     34153     34151     34143     34155     34154     34151     34143     34155
     34155     34143     34144     34159     34159     34165     34162     34163
     34159     34165     34162     34164     34159     34165     34162     34166
     34160     34159     34165     34162     34161     34159     34165     34162
     34162     34166     34167     34168     34162     34166     34167     34169
     34162     34166     34167     34170     34163     34162     34166     34167
     34164     34162     34166     34167     34165     34162     34166     34167
     34166     34167     34170     34171     34166     34167     34170     34172
     34166     34167     34170     34178     34167     34170     34172     34173
     34167     34170     34178     34179     34167     34170     34178     34180
     34167     34170     34178     34181     34168     34167     34170     34171
     34168     34167     34170     34172     34168     34167     34170     34178
     34169     34167     34170     34171     34169     34167     34170     34172
     34169     34167     34170     34178     34170     34172     34173     34174
     34170     34172     34173     34175     34170     34178     34181     34182
     34171     34170     34172     34173     34171     34170     34178     34179
     34171     34170     34178     34180     34171     34170     34178     34181
     34172     34170     34178     34179     34172     34170     34178     34180
     34172     34170     34178     34181     34172     34173     34175     34176
     34172     34173     34175     34177     34172     34173     34175     34187
     34173     34172     34170     34178     34173     34175     34187     34188
     34173     34175     34187     34189     34173     34175     34187     34190
     34174     34173     34175     34176     34174     34173     34175     34177
     34174     34173     34175     34187     34175     34187     34190     34191
     34175     34187     34190     34192     34175     34187     34190     34193
     34176     34175     34187     34188     34176     34175     34187     34189
     34176     34175     34187     34190     34177     34175     34187     34188
     34177     34175     34187     34189     34177     34175     34187     34190
     34178     34181     34182     34183     34178     34181     34182     34184
     34179     34178     34181     34182     34180     34178     34181     34182
     34181     34182     34184     34185     34181     34182     34184     34186
     34181     34182     34184     34234     34182     34184     34234     34235
     34182     34184     34234     34236     34182     34184     34234     34237
     34183     34182     34184     34185     34183     34182     34184     34186
     34183     34182     34184     34234     34184     34234     34237     34238
     34184     34234     34237     34239     34184     34234     34237     34240
     34185     34184     34234     34235     34185     34184     34234     34236
     34185     34184     34234     34237     34186     34184     34234     34235
     34186     34184     34234     34236     34186     34184     34234     34237
     34187     34190     34193     34194     34187     34190     34193     34195
     34187     34190     34193     34196     34188     34187     34190     34191
     34188     34187     34190     34192     34188     34187     34190     34193
     34189     34187     34190     34191     34189     34187     34190     34192
     34189     34187     34190     34193     34190     34193     34196     34197
     34190     34193     34196     34198     34190     34193     34196     34199
     34191     34190     34193     34194     34191     34190     34193     34195
     34191     34190     34193     34196     34192     34190     34193     34194
     34192     34190     34193     34195     34192     34190     34193     34196
     34193     34196     34199     34200     34193     34196     34199     34201
     34193     34196     34199     34202     34194     34193     34196     34197
     34194     34193     34196     34198     34194     34193     34196     34199
     34195     34193     34196     34197     34195     34193     34196     34198
     34195     34193     34196     34199     34196     34199     34202     34203
     34196     34199     34202     34204     34196     34199     34202     34205
     34197     34196     34199     34200     34197     34196     34199     34201
     34197     34196     34199     34202     34198     34196     34199     34200
     34198     34196     34199     34201     34198     34196     34199     34202
     34199     34202     34205     34206     34199     34202     34205     34207
     34200     34199     34202     34203     34200     34199     34202     34204
     34200     34199     34202     34205     34201     34199     34202     34203
     34201     34199     34202     34204     34201     34199     34202     34205
     34202     34205     34207     34208     34202     34205     34207     34209
     34203     34202     34205     34206     34203     34202     34205     34207
     34204     34202     34205     34206     34204     34202     34205     34207
     34205     34207     34209     34210     34205     34207     34209     34211
     34205     34207     34209     34212     34206     34205     34207     34208
     34206     34205     34207     34209     34207     34209     34212     34213
     34207     34209     34212     34214     34207     34209     34212     34215
     34208     34207     34209     34210     34208     34207     34209     34211
     34208     34207     34209     34212     34209     34212     34215     34216
     34209     34212     34215     34217     34209     34212     34215     34218
     34210     34209     34212     34213     34210     34209     34212     34214
     34210     34209     34212     34215     34211     34209     34212     34213
     34211     34209     34212     34214     34211     34209     34212     34215
     34212     34215     34218     34219     34212     34215     34218     34220
     34212     34215     34218     34221     34213     34212     34215     34216
     34213     34212     34215     34217     34213     34212     34215     34218
     34214     34212     34215     34216     34214     34212     34215     34217
     34214     34212     34215     34218     34215     34218     34221     34222
     34215     34218     34221     34223     34215     34218     34221     34224
     34216     34215     34218     34219     34216     34215     34218     34220
     34216     34215     34218     34221     34217     34215     34218     34219
     34217     34215     34218     34220     34217     34215     34218     34221
     34218     34221     34224     34225     34218     34221     34224     34226
     34218     34221     34224     34227     34219     34218     34221     34222
     34219     34218     34221     34223     34219     34218     34221     34224
     34220     34218     34221     34222     34220     34218     34221     34223
     34220     34218     34221     34224     34221     34224     34227     34228
     34221     34224     34227     34229     34221     34224     34227     34230
     34222     34221     34224     34225     34222     34221     34224     34226
     34222     34221     34224     34227     34223     34221     34224     34225
     34223     34221     34224     34226     34223     34221     34224     34227
     34224     34227     34230     34231     34224     34227     34230     34232
     34224     34227     34230     34233     34225     34224     34227     34228
     34225     34224     34227     34229     34225     34224     34227     34230
     34226     34224     34227     34228     34226     34224     34227     34229
     34226     34224     34227     34230     34228     34227     34230     34231
     34228     34227     34230     34232     34228     34227     34230     34233
     34229     34227     34230     34231     34229     34227     34230     34232
     34229     34227     34230     34233     34234     34237     34240     34241
     34234     34237     34240     34242     34234     34237     34240     34243
     34235     34234     34237     34238     34235     34234     34237     34239
     34235     34234     34237     34240     34236     34234     34237     34238
     34236     34234     34237     34239     34236     34234     34237     34240
     34237     34240     34243     34244     34237     34240     34243     34245
     34237     34240     34243     34246     34238     34237     34240     34241
     34238     34237     34240     34242     34238     34237     34240     34243
     34239     34237     34240     34241     34239     34237     34240     34242
     34239     34237     34240     34243     34240     34243     34246     34247
     34240     34243     34246     34248     34240     34243     34246     34249
     34241     34240     34243     34244     34241     34240     34243     34245
     34241     34240     34243     34246     34242     34240     34243     34244
     34242     34240     34243     34245     34242     34240     34243     34246
     34243     34246     34249     34250     34243     34246     34249     34251
     34243     34246     34249     34252     34244     34243     34246     34247
     34244     34243     34246     34248     34244     34243     34246     34249
     34245     34243     34246     34247     34245     34243     34246     34248
     34245     34243     34246     34249     34246     34249     34252     34253
     34246     34249     34252     34254     34246     34249     34252     34255
     34247     34246     34249     34250     34247     34246     34249     34251
     34247     34246     34249     34252     34248     34246     34249     34250
     34248     34246     34249     34251     34248     34246     34249     34252
     34249     34252     34255     34256     34249     34252     34255     34257
     34249     34252     34255     34258     34250     34249     34252     34253
     34250     34249     34252     34254     34250     34249     34252     34255
     34251     34249     34252     34253     34251     34249     34252     34254
     34251     34249     34252     34255     34252     34255     34258     34259
     34252     34255     34258     34260     34252     34255     34258     34261
     34253     34252     34255     34256     34253     34252     34255     34257
     34253     34252     34255     34258     34254     34252     34255     34256
     34254     34252     34255     34257     34254     34252     34255     34258
     34255     34258     34261     34262     34255     34258     34261     34263
     34255     34258     34261     34264     34256     34255     34258     34259
     34256     34255     34258     34260     34256     34255     34258     34261
     34257     34255     34258     34259     34257     34255     34258     34260
     34257     34255     34258     34261     34258     34261     34264     34265
     34258     34261     34264     34266     34258     34261     34264     34267
     34259     34258     34261     34262     34259     34258     34261     34263
     34259     34258     34261     34264     34260     34258     34261     34262
     34260     34258     34261     34263     34260     34258     34261     34264
     34261     34264     34267     34268     34261     34264     34267     34269
     34261     34264     34267     34270     34262     34261     34264     34265
     34262     34261     34264     34266     34262     34261     34264     34267
     34263     34261     34264     34265     34263     34261     34264     34266
     34263     34261     34264     34267     34264     34267     34270     34271
     34264     34267     34270     34272     34264     34267     34270     34273
     34265     34264     34267     34268     34265     34264     34267     34269
     34265     34264     34267     34270     34266     34264     34267     34268
     34266     34264     34267     34269     34266     34264     34267     34270
     34267     34270     34273     34274     34267     34270     34273     34275
     34267     34270     34273     34276     34268     34267     34270     34271
     34268     34267     34270     34272     34268     34267     34270     34273
     34269     34267     34270     34271     34269     34267     34270     34272
     34269     34267     34270     34273     34271     34270     34273     34274
     34271     34270     34273     34275     34271     34270     34273     34276
     34272     34270     34273     34274     34272     34270     34273     34275
     34272     34270     34273     34276     34277     34278     34293     34294
     34277     34278     34293     34295     34277     34278     34293     34299
     34278     34277     34281     34282     34278     34277     34281     34283
     34278     34277     34281     34284     34278     34277     34285     34286
     34278     34277     34285     34287     34278     34277     34285     34288
     34278     34277     34289     34290     34278     34277     34289     34291
     34278     34277     34289     34292     34278     34293     34299     34296
     34279     34278     34277     34281     34279     34278     34277     34285
     34279     34278     34277     34289     34279     34278     34293     34294
     34279     34278     34293     34295     34279     34278     34293     34299
     34280     34278     34277     34281     34280     34278     34277     34285
     34280     34278     34277     34289     34280     34278     34293     34294
     34280     34278     34293     34295     34280     34278     34293     34299
     34281     34277     34278     34293     34281     34277     34285     34286
     34281     34277     34285     34287     34281     34277     34285     34288
     34281     34277     34289     34290     34281     34277     34289     34291
     34281     34277     34289     34292     34282     34281     34277     34285
     34282     34281     34277     34289     34283     34281     34277     34285
     34283     34281     34277     34289     34284     34281     34277     34285
     34284     34281     34277     34289     34285     34277     34278     34293
     34285     34277     34289     34290     34285     34277     34289     34291
     34285     34277     34289     34292     34286     34285     34277     34289
     34287     34285     34277     34289     34288     34285     34277     34289
     34289     34277     34278     34293     34293     34299     34296     34297
     34293     34299     34296     34298     34293     34299     34296     34300
     34294     34293     34299     34296     34295     34293     34299     34296
     34296     34300     34301     34302     34296     34300     34301     34303
     34296     34300     34301     34304     34297     34296     34300     34301
     34298     34296     34300     34301     34299     34296     34300     34301
     34300     34301     34304     34305     34300     34301     34304     34306
     34300     34301     34304     34312     34301     34304     34306     34307
     34301     34304     34312     34313     34301     34304     34312     34314
     34301     34304     34312     34315     34302     34301     34304     34305
     34302     34301     34304     34306     34302     34301     34304     34312
     34303     34301     34304     34305     34303     34301     34304     34306
     34303     34301     34304     34312     34304     34306     34307     34308
     34304     34306     34307     34309     34304     34312     34315     34316
     34305     34304     34306     34307     34305     34304     34312     34313
     34305     34304     34312     34314     34305     34304     34312     34315
     34306     34304     34312     34313     34306     34304     34312     34314
     34306     34304     34312     34315     34306     34307     34309     34310
     34306     34307     34309     34311     34306     34307     34309     34321
     34307     34306     34304     34312     34307     34309     34321     34322
     34307     34309     34321     34323     34307     34309     34321     34324
     34308     34307     34309     34310     34308     34307     34309     34311
     34308     34307     34309     34321     34309     34321     34324     34325
     34309     34321     34324     34326     34309     34321     34324     34327
     34310     34309     34321     34322     34310     34309     34321     34323
     34310     34309     34321     34324     34311     34309     34321     34322
     34311     34309     34321     34323     34311     34309     34321     34324
     34312     34315     34316     34317     34312     34315     34316     34318
     34313     34312     34315     34316     34314     34312     34315     34316
     34315     34316     34318     34319     34315     34316     34318     34320
     34315     34316     34318     34368     34316     34318     34368     34369
     34316     34318     34368     34370     34316     34318     34368     34371
     34317     34316     34318     34319     34317     34316     34318     34320
     34317     34316     34318     34368     34318     34368     34371     34372
     34318     34368     34371     34373     34318     34368     34371     34374
     34319     34318     34368     34369     34319     34318     34368     34370
     34319     34318     34368     34371     34320     34318     34368     34369
     34320     34318     34368     34370     34320     34318     34368     34371
     34321     34324     34327     34328     34321     34324     34327     34329
     34321     34324     34327     34330     34322     34321     34324     34325
     34322     34321     34324     34326     34322     34321     34324     34327
     34323     34321     34324     34325     34323     34321     34324     34326
     34323     34321     34324     34327     34324     34327     34330     34331
     34324     34327     34330     34332     34324     34327     34330     34333
     34325     34324     34327     34328     34325     34324     34327     34329
     34325     34324     34327     34330     34326     34324     34327     34328
     34326     34324     34327     34329     34326     34324     34327     34330
     34327     34330     34333     34334     34327     34330     34333     34335
     34327     34330     34333     34336     34328     34327     34330     34331
     34328     34327     34330     34332     34328     34327     34330     34333
     34329     34327     34330     34331     34329     34327     34330     34332
     34329     34327     34330     34333     34330     34333     34336     34337
     34330     34333     34336     34338     34330     34333     34336     34339
     34331     34330     34333     34334     34331     34330     34333     34335
     34331     34330     34333     34336     34332     34330     34333     34334
     34332     34330     34333     34335     34332     34330     34333     34336
     34333     34336     34339     34340     34333     34336     34339     34341
     34334     34333     34336     34337     34334     34333     34336     34338
     34334     34333     34336     34339     34335     34333     34336     34337
     34335     34333     34336     34338     34335     34333     34336     34339
     34336     34339     34341     34342     34336     34339     34341     34343
     34337     34336     34339     34340     34337     34336     34339     34341
     34338     34336     34339     34340     34338     34336     34339     34341
     34339     34341     34343     34344     34339     34341     34343     34345
     34339     34341     34343     34346     34340     34339     34341     34342
     34340     34339     34341     34343     34341     34343     34346     34347
     34341     34343     34346     34348     34341     34343     34346     34349
     34342     34341     34343     34344     34342     34341     34343     34345
     34342     34341     34343     34346     34343     34346     34349     34350
     34343     34346     34349     34351     34343     34346     34349     34352
     34344     34343     34346     34347     34344     34343     34346     34348
     34344     34343     34346     34349     34345     34343     34346     34347
     34345     34343     34346     34348     34345     34343     34346     34349
     34346     34349     34352     34353     34346     34349     34352     34354
     34346     34349     34352     34355     34347     34346     34349     34350
     34347     34346     34349     34351     34347     34346     34349     34352
     34348     34346     34349     34350     34348     34346     34349     34351
     34348     34346     34349     34352     34349     34352     34355     34356
     34349     34352     34355     34357     34349     34352     34355     34358
     34350     34349     34352     34353     34350     34349     34352     34354
     34350     34349     34352     34355     34351     34349     34352     34353
     34351     34349     34352     34354     34351     34349     34352     34355
     34352     34355     34358     34359     34352     34355     34358     34360
     34352     34355     34358     34361     34353     34352     34355     34356
     34353     34352     34355     34357     34353     34352     34355     34358
     34354     34352     34355     34356     34354     34352     34355     34357
     34354     34352     34355     34358     34355     34358     34361     34362
     34355     34358     34361     34363     34355     34358     34361     34364
     34356     34355     34358     34359     34356     34355     34358     34360
     34356     34355     34358     34361     34357     34355     34358     34359
     34357     34355     34358     34360     34357     34355     34358     34361
     34358     34361     34364     34365     34358     34361     34364     34366
     34358     34361     34364     34367     34359     34358     34361     34362
     34359     34358     34361     34363     34359     34358     34361     34364
     34360     34358     34361     34362     34360     34358     34361     34363
     34360     34358     34361     34364     34362     34361     34364     34365
     34362     34361     34364     34366     34362     34361     34364     34367
     34363     34361     34364     34365     34363     34361     34364     34366
     34363     34361     34364     34367     34368     34371     34374     34375
     34368     34371     34374     34376     34368     34371     34374     34377
     34369     34368     34371     34372     34369     34368     34371     34373
     34369     34368     34371     34374     34370     34368     34371     34372
     34370     34368     34371     34373     34370     34368     34371     34374
     34371     34374     34377     34378     34371     34374     34377     34379
     34371     34374     34377     34380     34372     34371     34374     34375
     34372     34371     34374     34376     34372     34371     34374     34377
     34373     34371     34374     34375     34373     34371     34374     34376
     34373     34371     34374     34377     34374     34377     34380     34381
     34374     34377     34380     34382     34374     34377     34380     34383
     34375     34374     34377     34378     34375     34374     34377     34379
     34375     34374     34377     34380     34376     34374     34377     34378
     34376     34374     34377     34379     34376     34374     34377     34380
     34377     34380     34383     34384     34377     34380     34383     34385
     34377     34380     34383     34386     34378     34377     34380     34381
     34378     34377     34380     34382     34378     34377     34380     34383
     34379     34377     34380     34381     34379     34377     34380     34382
     34379     34377     34380     34383     34380     34383     34386     34387
     34380     34383     34386     34388     34380     34383     34386     34389
     34381     34380     34383     34384     34381     34380     34383     34385
     34381     34380     34383     34386     34382     34380     34383     34384
     34382     34380     34383     34385     34382     34380     34383     34386
     34383     34386     34389     34390     34383     34386     34389     34391
     34383     34386     34389     34392     34384     34383     34386     34387
     34384     34383     34386     34388     34384     34383     34386     34389
     34385     34383     34386     34387     34385     34383     34386     34388
     34385     34383     34386     34389     34386     34389     34392     34393
     34386     34389     34392     34394     34386     34389     34392     34395
     34387     34386     34389     34390     34387     34386     34389     34391
     34387     34386     34389     34392     34388     34386     34389     34390
     34388     34386     34389     34391     34388     34386     34389     34392
     34389     34392     34395     34396     34389     34392     34395     34397
     34389     34392     34395     34398     34390     34389     34392     34393
     34390     34389     34392     34394     34390     34389     34392     34395
     34391     34389     34392     34393     34391     34389     34392     34394
     34391     34389     34392     34395     34392     34395     34398     34399
     34392     34395     34398     34400     34392     34395     34398     34401
     34393     34392     34395     34396     34393     34392     34395     34397
     34393     34392     34395     34398     34394     34392     34395     34396
     34394     34392     34395     34397     34394     34392     34395     34398
     34395     34398     34401     34402     34395     34398     34401     34403
     34395     34398     34401     34404     34396     34395     34398     34399
     34396     34395     34398     34400     34396     34395     34398     34401
     34397     34395     34398     34399     34397     34395     34398     34400
     34397     34395     34398     34401     34398     34401     34404     34405
     34398     34401     34404     34406     34398     34401     34404     34407
     34399     34398     34401     34402     34399     34398     34401     34403
     34399     34398     34401     34404     34400     34398     34401     34402
     34400     34398     34401     34403     34400     34398     34401     34404
     34401     34404     34407     34408     34401     34404     34407     34409
     34401     34404     34407     34410     34402     34401     34404     34405
     34402     34401     34404     34406     34402     34401     34404     34407
     34403     34401     34404     34405     34403     34401     34404     34406
     34403     34401     34404     34407     34405     34404     34407     34408
     34405     34404     34407     34409     34405     34404     34407     34410
     34406     34404     34407     34408     34406     34404     34407     34409
     34406     34404     34407     34410     34411     34412     34427     34428
     34411     34412     34427     34429     34411     34412     34427     34433
     34412     34411     34415     34416     34412     34411     34415     34417
     34412     34411     34415     34418     34412     34411     34419     34420
     34412     34411     34419     34421     34412     34411     34419     34422
     34412     34411     34423     34424     34412     34411     34423     34425
     34412     34411     34423     34426     34412     34427     34433     34430
     34413     34412     34411     34415     34413     34412     34411     34419
     34413     34412     34411     34423     34413     34412     34427     34428
     34413     34412     34427     34429     34413     34412     34427     34433
     34414     34412     34411     34415     34414     34412     34411     34419
     34414     34412     34411     34423     34414     34412     34427     34428
     34414     34412     34427     34429     34414     34412     34427     34433
     34415     34411     34412     34427     34415     34411     34419     34420
     34415     34411     34419     34421     34415     34411     34419     34422
     34415     34411     34423     34424     34415     34411     34423     34425
     34415     34411     34423     34426     34416     34415     34411     34419
     34416     34415     34411     34423     34417     34415     34411     34419
     34417     34415     34411     34423     34418     34415     34411     34419
     34418     34415     34411     34423     34419     34411     34412     34427
     34419     34411     34423     34424     34419     34411     34423     34425
     34419     34411     34423     34426     34420     34419     34411     34423
     34421     34419     34411     34423     34422     34419     34411     34423
     34423     34411     34412     34427     34427     34433     34430     34431
     34427     34433     34430     34432     34427     34433     34430     34434
     34428     34427     34433     34430     34429     34427     34433     34430
     34430     34434     34435     34436     34430     34434     34435     34437
     34430     34434     34435     34438     34431     34430     34434     34435
     34432     34430     34434     34435     34433     34430     34434     34435
     34434     34435     34438     34439     34434     34435     34438     34440
     34434     34435     34438     34446     34435     34438     34440     34441
     34435     34438     34446     34447     34435     34438     34446     34448
     34435     34438     34446     34449     34436     34435     34438     34439
     34436     34435     34438     34440     34436     34435     34438     34446
     34437     34435     34438     34439     34437     34435     34438     34440
     34437     34435     34438     34446     34438     34440     34441     34442
     34438     34440     34441     34443     34438     34446     34449     34450
     34439     34438     34440     34441     34439     34438     34446     34447
     34439     34438     34446     34448     34439     34438     34446     34449
     34440     34438     34446     34447     34440     34438     34446     34448
     34440     34438     34446     34449     34440     34441     34443     34444
     34440     34441     34443     34445     34440     34441     34443     34455
     34441     34440     34438     34446     34441     34443     34455     34456
     34441     34443     34455     34457     34441     34443     34455     34458
     34442     34441     34443     34444     34442     34441     34443     34445
     34442     34441     34443     34455     34443     34455     34458     34459
     34443     34455     34458     34460     34443     34455     34458     34461
     34444     34443     34455     34456     34444     34443     34455     34457
     34444     34443     34455     34458     34445     34443     34455     34456
     34445     34443     34455     34457     34445     34443     34455     34458
     34446     34449     34450     34451     34446     34449     34450     34452
     34447     34446     34449     34450     34448     34446     34449     34450
     34449     34450     34452     34453     34449     34450     34452     34454
     34449     34450     34452     34502     34450     34452     34502     34503
     34450     34452     34502     34504     34450     34452     34502     34505
     34451     34450     34452     34453     34451     34450     34452     34454
     34451     34450     34452     34502     34452     34502     34505     34506
     34452     34502     34505     34507     34452     34502     34505     34508
     34453     34452     34502     34503     34453     34452     34502     34504
     34453     34452     34502     34505     34454     34452     34502     34503
     34454     34452     34502     34504     34454     34452     34502     34505
     34455     34458     34461     34462     34455     34458     34461     34463
     34455     34458     34461     34464     34456     34455     34458     34459
     34456     34455     34458     34460     34456     34455     34458     34461
     34457     34455     34458     34459     34457     34455     34458     34460
     34457     34455     34458     34461     34458     34461     34464     34465
     34458     34461     34464     34466     34458     34461     34464     34467
     34459     34458     34461     34462     34459     34458     34461     34463
     34459     34458     34461     34464     34460     34458     34461     34462
     34460     34458     34461     34463     34460     34458     34461     34464
     34461     34464     34467     34468     34461     34464     34467     34469
     34461     34464     34467     34470     34462     34461     34464     34465
     34462     34461     34464     34466     34462     34461     34464     34467
     34463     34461     34464     34465     34463     34461     34464     34466
     34463     34461     34464     34467     34464     34467     34470     34471
     34464     34467     34470     34472     34464     34467     34470     34473
     34465     34464     34467     34468     34465     34464     34467     34469
     34465     34464     34467     34470     34466     34464     34467     34468
     34466     34464     34467     34469     34466     34464     34467     34470
     34467     34470     34473     34474     34467     34470     34473     34475
     34468     34467     34470     34471     34468     34467     34470     34472
     34468     34467     34470     34473     34469     34467     34470     34471
     34469     34467     34470     34472     34469     34467     34470     34473
     34470     34473     34475     34476     34470     34473     34475     34477
     34471     34470     34473     34474     34471     34470     34473     34475
     34472     34470     34473     34474     34472     34470     34473     34475
     34473     34475     34477     34478     34473     34475     34477     34479
     34473     34475     34477     34480     34474     34473     34475     34476
     34474     34473     34475     34477     34475     34477     34480     34481
     34475     34477     34480     34482     34475     34477     34480     34483
     34476     34475     34477     34478     34476     34475     34477     34479
     34476     34475     34477     34480     34477     34480     34483     34484
     34477     34480     34483     34485     34477     34480     34483     34486
     34478     34477     34480     34481     34478     34477     34480     34482
     34478     34477     34480     34483     34479     34477     34480     34481
     34479     34477     34480     34482     34479     34477     34480     34483
     34480     34483     34486     34487     34480     34483     34486     34488
     34480     34483     34486     34489     34481     34480     34483     34484
     34481     34480     34483     34485     34481     34480     34483     34486
     34482     34480     34483     34484     34482     34480     34483     34485
     34482     34480     34483     34486     34483     34486     34489     34490
     34483     34486     34489     34491     34483     34486     34489     34492
     34484     34483     34486     34487     34484     34483     34486     34488
     34484     34483     34486     34489     34485     34483     34486     34487
     34485     34483     34486     34488     34485     34483     34486     34489
     34486     34489     34492     34493     34486     34489     34492     34494
     34486     34489     34492     34495     34487     34486     34489     34490
     34487     34486     34489     34491     34487     34486     34489     34492
     34488     34486     34489     34490     34488     34486     34489     34491
     34488     34486     34489     34492     34489     34492     34495     34496
     34489     34492     34495     34497     34489     34492     34495     34498
     34490     34489     34492     34493     34490     34489     34492     34494
     34490     34489     34492     34495     34491     34489     34492     34493
     34491     34489     34492     34494     34491     34489     34492     34495
     34492     34495     34498     34499     34492     34495     34498     34500
     34492     34495     34498     34501     34493     34492     34495     34496
     34493     34492     34495     34497     34493     34492     34495     34498
     34494     34492     34495     34496     34494     34492     34495     34497
     34494     34492     34495     34498     34496     34495     34498     34499
     34496     34495     34498     34500     34496     34495     34498     34501
     34497     34495     34498     34499     34497     34495     34498     34500
     34497     34495     34498     34501     34502     34505     34508     34509
     34502     34505     34508     34510     34502     34505     34508     34511
     34503     34502     34505     34506     34503     34502     34505     34507
     34503     34502     34505     34508     34504     34502     34505     34506
     34504     34502     34505     34507     34504     34502     34505     34508
     34505     34508     34511     34512     34505     34508     34511     34513
     34505     34508     34511     34514     34506     34505     34508     34509
     34506     34505     34508     34510     34506     34505     34508     34511
     34507     34505     34508     34509     34507     34505     34508     34510
     34507     34505     34508     34511     34508     34511     34514     34515
     34508     34511     34514     34516     34508     34511     34514     34517
     34509     34508     34511     34512     34509     34508     34511     34513
     34509     34508     34511     34514     34510     34508     34511     34512
     34510     34508     34511     34513     34510     34508     34511     34514
     34511     34514     34517     34518     34511     34514     34517     34519
     34511     34514     34517     34520     34512     34511     34514     34515
     34512     34511     34514     34516     34512     34511     34514     34517
     34513     34511     34514     34515     34513     34511     34514     34516
     34513     34511     34514     34517     34514     34517     34520     34521
     34514     34517     34520     34522     34514     34517     34520     34523
     34515     34514     34517     34518     34515     34514     34517     34519
     34515     34514     34517     34520     34516     34514     34517     34518
     34516     34514     34517     34519     34516     34514     34517     34520
     34517     34520     34523     34524     34517     34520     34523     34525
     34517     34520     34523     34526     34518     34517     34520     34521
     34518     34517     34520     34522     34518     34517     34520     34523
     34519     34517     34520     34521     34519     34517     34520     34522
     34519     34517     34520     34523     34520     34523     34526     34527
     34520     34523     34526     34528     34520     34523     34526     34529
     34521     34520     34523     34524     34521     34520     34523     34525
     34521     34520     34523     34526     34522     34520     34523     34524
     34522     34520     34523     34525     34522     34520     34523     34526
     34523     34526     34529     34530     34523     34526     34529     34531
     34523     34526     34529     34532     34524     34523     34526     34527
     34524     34523     34526     34528     34524     34523     34526     34529
     34525     34523     34526     34527     34525     34523     34526     34528
     34525     34523     34526     34529     34526     34529     34532     34533
     34526     34529     34532     34534     34526     34529     34532     34535
     34527     34526     34529     34530     34527     34526     34529     34531
     34527     34526     34529     34532     34528     34526     34529     34530
     34528     34526     34529     34531     34528     34526     34529     34532
     34529     34532     34535     34536     34529     34532     34535     34537
     34529     34532     34535     34538     34530     34529     34532     34533
     34530     34529     34532     34534     34530     34529     34532     34535
     34531     34529     34532     34533     34531     34529     34532     34534
     34531     34529     34532     34535     34532     34535     34538     34539
     34532     34535     34538     34540     34532     34535     34538     34541
     34533     34532     34535     34536     34533     34532     34535     34537
     34533     34532     34535     34538     34534     34532     34535     34536
     34534     34532     34535     34537     34534     34532     34535     34538
     34535     34538     34541     34542     34535     34538     34541     34543
     34535     34538     34541     34544     34536     34535     34538     34539
     34536     34535     34538     34540     34536     34535     34538     34541
     34537     34535     34538     34539     34537     34535     34538     34540
     34537     34535     34538     34541     34539     34538     34541     34542
     34539     34538     34541     34543     34539     34538     34541     34544
     34540     34538     34541     34542     34540     34538     34541     34543
     34540     34538     34541     34544     34545     34546     34561     34562
     34545     34546     34561     34563     34545     34546     34561     34567
     34546     34545     34549     34550     34546     34545     34549     34551
     34546     34545     34549     34552     34546     34545     34553     34554
     34546     34545     34553     34555     34546     34545     34553     34556
     34546     34545     34557     34558     34546     34545     34557     34559
     34546     34545     34557     34560     34546     34561     34567     34564
     34547     34546     34545     34549     34547     34546     34545     34553
     34547     34546     34545     34557     34547     34546     34561     34562
     34547     34546     34561     34563     34547     34546     34561     34567
     34548     34546     34545     34549     34548     34546     34545     34553
     34548     34546     34545     34557     34548     34546     34561     34562
     34548     34546     34561     34563     34548     34546     34561     34567
     34549     34545     34546     34561     34549     34545     34553     34554
     34549     34545     34553     34555     34549     34545     34553     34556
     34549     34545     34557     34558     34549     34545     34557     34559
     34549     34545     34557     34560     34550     34549     34545     34553
     34550     34549     34545     34557     34551     34549     34545     34553
     34551     34549     34545     34557     34552     34549     34545     34553
     34552     34549     34545     34557     34553     34545     34546     34561
     34553     34545     34557     34558     34553     34545     34557     34559
     34553     34545     34557     34560     34554     34553     34545     34557
     34555     34553     34545     34557     34556     34553     34545     34557
     34557     34545     34546     34561     34561     34567     34564     34565
     34561     34567     34564     34566     34561     34567     34564     34568
     34562     34561     34567     34564     34563     34561     34567     34564
     34564     34568     34569     34570     34564     34568     34569     34571
     34564     34568     34569     34572     34565     34564     34568     34569
     34566     34564     34568     34569     34567     34564     34568     34569
     34568     34569     34572     34573     34568     34569     34572     34574
     34568     34569     34572     34580     34569     34572     34574     34575
     34569     34572     34580     34581     34569     34572     34580     34582
     34569     34572     34580     34583     34570     34569     34572     34573
     34570     34569     34572     34574     34570     34569     34572     34580
     34571     34569     34572     34573     34571     34569     34572     34574
     34571     34569     34572     34580     34572     34574     34575     34576
     34572     34574     34575     34577     34572     34580     34583     34584
     34573     34572     34574     34575     34573     34572     34580     34581
     34573     34572     34580     34582     34573     34572     34580     34583
     34574     34572     34580     34581     34574     34572     34580     34582
     34574     34572     34580     34583     34574     34575     34577     34578
     34574     34575     34577     34579     34574     34575     34577     34589
     34575     34574     34572     34580     34575     34577     34589     34590
     34575     34577     34589     34591     34575     34577     34589     34592
     34576     34575     34577     34578     34576     34575     34577     34579
     34576     34575     34577     34589     34577     34589     34592     34593
     34577     34589     34592     34594     34577     34589     34592     34595
     34578     34577     34589     34590     34578     34577     34589     34591
     34578     34577     34589     34592     34579     34577     34589     34590
     34579     34577     34589     34591     34579     34577     34589     34592
     34580     34583     34584     34585     34580     34583     34584     34586
     34581     34580     34583     34584     34582     34580     34583     34584
     34583     34584     34586     34587     34583     34584     34586     34588
     34583     34584     34586     34636     34584     34586     34636     34637
     34584     34586     34636     34638     34584     34586     34636     34639
     34585     34584     34586     34587     34585     34584     34586     34588
     34585     34584     34586     34636     34586     34636     34639     34640
     34586     34636     34639     34641     34586     34636     34639     34642
     34587     34586     34636     34637     34587     34586     34636     34638
     34587     34586     34636     34639     34588     34586     34636     34637
     34588     34586     34636     34638     34588     34586     34636     34639
     34589     34592     34595     34596     34589     34592     34595     34597
     34589     34592     34595     34598     34590     34589     34592     34593
     34590     34589     34592     34594     34590     34589     34592     34595
     34591     34589     34592     34593     34591     34589     34592     34594
     34591     34589     34592     34595     34592     34595     34598     34599
     34592     34595     34598     34600     34592     34595     34598     34601
     34593     34592     34595     34596     34593     34592     34595     34597
     34593     34592     34595     34598     34594     34592     34595     34596
     34594     34592     34595     34597     34594     34592     34595     34598
     34595     34598     34601     34602     34595     34598     34601     34603
     34595     34598     34601     34604     34596     34595     34598     34599
     34596     34595     34598     34600     34596     34595     34598     34601
     34597     34595     34598     34599     34597     34595     34598     34600
     34597     34595     34598     34601     34598     34601     34604     34605
     34598     34601     34604     34606     34598     34601     34604     34607
     34599     34598     34601     34602     34599     34598     34601     34603
     34599     34598     34601     34604     34600     34598     34601     34602
     34600     34598     34601     34603     34600     34598     34601     34604
     34601     34604     34607     34608     34601     34604     34607     34609
     34602     34601     34604     34605     34602     34601     34604     34606
     34602     34601     34604     34607     34603     34601     34604     34605
     34603     34601     34604     34606     34603     34601     34604     34607
     34604     34607     34609     34610     34604     34607     34609     34611
     34605     34604     34607     34608     34605     34604     34607     34609
     34606     34604     34607     34608     34606     34604     34607     34609
     34607     34609     34611     34612     34607     34609     34611     34613
     34607     34609     34611     34614     34608     34607     34609     34610
     34608     34607     34609     34611     34609     34611     34614     34615
     34609     34611     34614     34616     34609     34611     34614     34617
     34610     34609     34611     34612     34610     34609     34611     34613
     34610     34609     34611     34614     34611     34614     34617     34618
     34611     34614     34617     34619     34611     34614     34617     34620
     34612     34611     34614     34615     34612     34611     34614     34616
     34612     34611     34614     34617     34613     34611     34614     34615
     34613     34611     34614     34616     34613     34611     34614     34617
     34614     34617     34620     34621     34614     34617     34620     34622
     34614     34617     34620     34623     34615     34614     34617     34618
     34615     34614     34617     34619     34615     34614     34617     34620
     34616     34614     34617     34618     34616     34614     34617     34619
     34616     34614     34617     34620     34617     34620     34623     34624
     34617     34620     34623     34625     34617     34620     34623     34626
     34618     34617     34620     34621     34618     34617     34620     34622
     34618     34617     34620     34623     34619     34617     34620     34621
     34619     34617     34620     34622     34619     34617     34620     34623
     34620     34623     34626     34627     34620     34623     34626     34628
     34620     34623     34626     34629     34621     34620     34623     34624
     34621     34620     34623     34625     34621     34620     34623     34626
     34622     34620     34623     34624     34622     34620     34623     34625
     34622     34620     34623     34626     34623     34626     34629     34630
     34623     34626     34629     34631     34623     34626     34629     34632
     34624     34623     34626     34627     34624     34623     34626     34628
     34624     34623     34626     34629     34625     34623     34626     34627
     34625     34623     34626     34628     34625     34623     34626     34629
     34626     34629     34632     34633     34626     34629     34632     34634
     34626     34629     34632     34635     34627     34626     34629     34630
     34627     34626     34629     34631     34627     34626     34629     34632
     34628     34626     34629     34630     34628     34626     34629     34631
     34628     34626     34629     34632     34630     34629     34632     34633
     34630     34629     34632     34634     34630     34629     34632     34635
     34631     34629     34632     34633     34631     34629     34632     34634
     34631     34629     34632     34635     34636     34639     34642     34643
     34636     34639     34642     34644     34636     34639     34642     34645
     34637     34636     34639     34640     34637     34636     34639     34641
     34637     34636     34639     34642     34638     34636     34639     34640
     34638     34636     34639     34641     34638     34636     34639     34642
     34639     34642     34645     34646     34639     34642     34645     34647
     34639     34642     34645     34648     34640     34639     34642     34643
     34640     34639     34642     34644     34640     34639     34642     34645
     34641     34639     34642     34643     34641     34639     34642     34644
     34641     34639     34642     34645     34642     34645     34648     34649
     34642     34645     34648     34650     34642     34645     34648     34651
     34643     34642     34645     34646     34643     34642     34645     34647
     34643     34642     34645     34648     34644     34642     34645     34646
     34644     34642     34645     34647     34644     34642     34645     34648
     34645     34648     34651     34652     34645     34648     34651     34653
     34645     34648     34651     34654     34646     34645     34648     34649
     34646     34645     34648     34650     34646     34645     34648     34651
     34647     34645     34648     34649     34647     34645     34648     34650
     34647     34645     34648     34651     34648     34651     34654     34655
     34648     34651     34654     34656     34648     34651     34654     34657
     34649     34648     34651     34652     34649     34648     34651     34653
     34649     34648     34651     34654     34650     34648     34651     34652
     34650     34648     34651     34653     34650     34648     34651     34654
     34651     34654     34657     34658     34651     34654     34657     34659
     34651     34654     34657     34660     34652     34651     34654     34655
     34652     34651     34654     34656     34652     34651     34654     34657
     34653     34651     34654     34655     34653     34651     34654     34656
     34653     34651     34654     34657     34654     34657     34660     34661
     34654     34657     34660     34662     34654     34657     34660     34663
     34655     34654     34657     34658     34655     34654     34657     34659
     34655     34654     34657     34660     34656     34654     34657     34658
     34656     34654     34657     34659     34656     34654     34657     34660
     34657     34660     34663     34664     34657     34660     34663     34665
     34657     34660     34663     34666     34658     34657     34660     34661
     34658     34657     34660     34662     34658     34657     34660     34663
     34659     34657     34660     34661     34659     34657     34660     34662
     34659     34657     34660     34663     34660     34663     34666     34667
     34660     34663     34666     34668     34660     34663     34666     34669
     34661     34660     34663     34664     34661     34660     34663     34665
     34661     34660     34663     34666     34662     34660     34663     34664
     34662     34660     34663     34665     34662     34660     34663     34666
     34663     34666     34669     34670     34663     34666     34669     34671
     34663     34666     34669     34672     34664     34663     34666     34667
     34664     34663     34666     34668     34664     34663     34666     34669
     34665     34663     34666     34667     34665     34663     34666     34668
     34665     34663     34666     34669     34666     34669     34672     34673
     34666     34669     34672     34674     34666     34669     34672     34675
     34667     34666     34669     34670     34667     34666     34669     34671
     34667     34666     34669     34672     34668     34666     34669     34670
     34668     34666     34669     34671     34668     34666     34669     34672
     34669     34672     34675     34676     34669     34672     34675     34677
     34669     34672     34675     34678     34670     34669     34672     34673
     34670     34669     34672     34674     34670     34669     34672     34675
     34671     34669     34672     34673     34671     34669     34672     34674
     34671     34669     34672     34675     34673     34672     34675     34676
     34673     34672     34675     34677     34673     34672     34675     34678
     34674     34672     34675     34676     34674     34672     34675     34677
     34674     34672     34675     34678     34679     34680     34695     34696
     34679     34680     34695     34697     34679     34680     34695     34701
     34680     34679     34683     34684     34680     34679     34683     34685
     34680     34679     34683     34686     34680     34679     34687     34688
     34680     34679     34687     34689     34680     34679     34687     34690
     34680     34679     34691     34692     34680     34679     34691     34693
     34680     34679     34691     34694     34680     34695     34701     34698
     34681     34680     34679     34683     34681     34680     34679     34687
     34681     34680     34679     34691     34681     34680     34695     34696
     34681     34680     34695     34697     34681     34680     34695     34701
     34682     34680     34679     34683     34682     34680     34679     34687
     34682     34680     34679     34691     34682     34680     34695     34696
     34682     34680     34695     34697     34682     34680     34695     34701
     34683     34679     34680     34695     34683     34679     34687     34688
     34683     34679     34687     34689     34683     34679     34687     34690
     34683     34679     34691     34692     34683     34679     34691     34693
     34683     34679     34691     34694     34684     34683     34679     34687
     34684     34683     34679     34691     34685     34683     34679     34687
     34685     34683     34679     34691     34686     34683     34679     34687
     34686     34683     34679     34691     34687     34679     34680     34695
     34687     34679     34691     34692     34687     34679     34691     34693
     34687     34679     34691     34694     34688     34687     34679     34691
     34689     34687     34679     34691     34690     34687     34679     34691
     34691     34679     34680     34695     34695     34701     34698     34699
     34695     34701     34698     34700     34695     34701     34698     34702
     34696     34695     34701     34698     34697     34695     34701     34698
     34698     34702     34703     34704     34698     34702     34703     34705
     34698     34702     34703     34706     34699     34698     34702     34703
     34700     34698     34702     34703     34701     34698     34702     34703
     34702     34703     34706     34707     34702     34703     34706     34708
     34702     34703     34706     34714     34703     34706     34708     34709
     34703     34706     34714     34715     34703     34706     34714     34716
     34703     34706     34714     34717     34704     34703     34706     34707
     34704     34703     34706     34708     34704     34703     34706     34714
     34705     34703     34706     34707     34705     34703     34706     34708
     34705     34703     34706     34714     34706     34708     34709     34710
     34706     34708     34709     34711     34706     34714     34717     34718
     34707     34706     34708     34709     34707     34706     34714     34715
     34707     34706     34714     34716     34707     34706     34714     34717
     34708     34706     34714     34715     34708     34706     34714     34716
     34708     34706     34714     34717     34708     34709     34711     34712
     34708     34709     34711     34713     34708     34709     34711     34723
     34709     34708     34706     34714     34709     34711     34723     34724
     34709     34711     34723     34725     34709     34711     34723     34726
     34710     34709     34711     34712     34710     34709     34711     34713
     34710     34709     34711     34723     34711     34723     34726     34727
     34711     34723     34726     34728     34711     34723     34726     34729
     34712     34711     34723     34724     34712     34711     34723     34725
     34712     34711     34723     34726     34713     34711     34723     34724
     34713     34711     34723     34725     34713     34711     34723     34726
     34714     34717     34718     34719     34714     34717     34718     34720
     34715     34714     34717     34718     34716     34714     34717     34718
     34717     34718     34720     34721     34717     34718     34720     34722
     34717     34718     34720     34770     34718     34720     34770     34771
     34718     34720     34770     34772     34718     34720     34770     34773
     34719     34718     34720     34721     34719     34718     34720     34722
     34719     34718     34720     34770     34720     34770     34773     34774
     34720     34770     34773     34775     34720     34770     34773     34776
     34721     34720     34770     34771     34721     34720     34770     34772
     34721     34720     34770     34773     34722     34720     34770     34771
     34722     34720     34770     34772     34722     34720     34770     34773
     34723     34726     34729     34730     34723     34726     34729     34731
     34723     34726     34729     34732     34724     34723     34726     34727
     34724     34723     34726     34728     34724     34723     34726     34729
     34725     34723     34726     34727     34725     34723     34726     34728
     34725     34723     34726     34729     34726     34729     34732     34733
     34726     34729     34732     34734     34726     34729     34732     34735
     34727     34726     34729     34730     34727     34726     34729     34731
     34727     34726     34729     34732     34728     34726     34729     34730
     34728     34726     34729     34731     34728     34726     34729     34732
     34729     34732     34735     34736     34729     34732     34735     34737
     34729     34732     34735     34738     34730     34729     34732     34733
     34730     34729     34732     34734     34730     34729     34732     34735
     34731     34729     34732     34733     34731     34729     34732     34734
     34731     34729     34732     34735     34732     34735     34738     34739
     34732     34735     34738     34740     34732     34735     34738     34741
     34733     34732     34735     34736     34733     34732     34735     34737
     34733     34732     34735     34738     34734     34732     34735     34736
     34734     34732     34735     34737     34734     34732     34735     34738
     34735     34738     34741     34742     34735     34738     34741     34743
     34736     34735     34738     34739     34736     34735     34738     34740
     34736     34735     34738     34741     34737     34735     34738     34739
     34737     34735     34738     34740     34737     34735     34738     34741
     34738     34741     34743     34744     34738     34741     34743     34745
     34739     34738     34741     34742     34739     34738     34741     34743
     34740     34738     34741     34742     34740     34738     34741     34743
     34741     34743     34745     34746     34741     34743     34745     34747
     34741     34743     34745     34748     34742     34741     34743     34744
     34742     34741     34743     34745     34743     34745     34748     34749
     34743     34745     34748     34750     34743     34745     34748     34751
     34744     34743     34745     34746     34744     34743     34745     34747
     34744     34743     34745     34748     34745     34748     34751     34752
     34745     34748     34751     34753     34745     34748     34751     34754
     34746     34745     34748     34749     34746     34745     34748     34750
     34746     34745     34748     34751     34747     34745     34748     34749
     34747     34745     34748     34750     34747     34745     34748     34751
     34748     34751     34754     34755     34748     34751     34754     34756
     34748     34751     34754     34757     34749     34748     34751     34752
     34749     34748     34751     34753     34749     34748     34751     34754
     34750     34748     34751     34752     34750     34748     34751     34753
     34750     34748     34751     34754     34751     34754     34757     34758
     34751     34754     34757     34759     34751     34754     34757     34760
     34752     34751     34754     34755     34752     34751     34754     34756
     34752     34751     34754     34757     34753     34751     34754     34755
     34753     34751     34754     34756     34753     34751     34754     34757
     34754     34757     34760     34761     34754     34757     34760     34762
     34754     34757     34760     34763     34755     34754     34757     34758
     34755     34754     34757     34759     34755     34754     34757     34760
     34756     34754     34757     34758     34756     34754     34757     34759
     34756     34754     34757     34760     34757     34760     34763     34764
     34757     34760     34763     34765     34757     34760     34763     34766
     34758     34757     34760     34761     34758     34757     34760     34762
     34758     34757     34760     34763     34759     34757     34760     34761
     34759     34757     34760     34762     34759     34757     34760     34763
     34760     34763     34766     34767     34760     34763     34766     34768
     34760     34763     34766     34769     34761     34760     34763     34764
     34761     34760     34763     34765     34761     34760     34763     34766
     34762     34760     34763     34764     34762     34760     34763     34765
     34762     34760     34763     34766     34764     34763     34766     34767
     34764     34763     34766     34768     34764     34763     34766     34769
     34765     34763     34766     34767     34765     34763     34766     34768
     34765     34763     34766     34769     34770     34773     34776     34777
     34770     34773     34776     34778     34770     34773     34776     34779
     34771     34770     34773     34774     34771     34770     34773     34775
     34771     34770     34773     34776     34772     34770     34773     34774
     34772     34770     34773     34775     34772     34770     34773     34776
     34773     34776     34779     34780     34773     34776     34779     34781
     34773     34776     34779     34782     34774     34773     34776     34777
     34774     34773     34776     34778     34774     34773     34776     34779
     34775     34773     34776     34777     34775     34773     34776     34778
     34775     34773     34776     34779     34776     34779     34782     34783
     34776     34779     34782     34784     34776     34779     34782     34785
     34777     34776     34779     34780     34777     34776     34779     34781
     34777     34776     34779     34782     34778     34776     34779     34780
     34778     34776     34779     34781     34778     34776     34779     34782
     34779     34782     34785     34786     34779     34782     34785     34787
     34779     34782     34785     34788     34780     34779     34782     34783
     34780     34779     34782     34784     34780     34779     34782     34785
     34781     34779     34782     34783     34781     34779     34782     34784
     34781     34779     34782     34785     34782     34785     34788     34789
     34782     34785     34788     34790     34782     34785     34788     34791
     34783     34782     34785     34786     34783     34782     34785     34787
     34783     34782     34785     34788     34784     34782     34785     34786
     34784     34782     34785     34787     34784     34782     34785     34788
     34785     34788     34791     34792     34785     34788     34791     34793
     34785     34788     34791     34794     34786     34785     34788     34789
     34786     34785     34788     34790     34786     34785     34788     34791
     34787     34785     34788     34789     34787     34785     34788     34790
     34787     34785     34788     34791     34788     34791     34794     34795
     34788     34791     34794     34796     34788     34791     34794     34797
     34789     34788     34791     34792     34789     34788     34791     34793
     34789     34788     34791     34794     34790     34788     34791     34792
     34790     34788     34791     34793     34790     34788     34791     34794
     34791     34794     34797     34798     34791     34794     34797     34799
     34791     34794     34797     34800     34792     34791     34794     34795
     34792     34791     34794     34796     34792     34791     34794     34797
     34793     34791     34794     34795     34793     34791     34794     34796
     34793     34791     34794     34797     34794     34797     34800     34801
     34794     34797     34800     34802     34794     34797     34800     34803
     34795     34794     34797     34798     34795     34794     34797     34799
     34795     34794     34797     34800     34796     34794     34797     34798
     34796     34794     34797     34799     34796     34794     34797     34800
     34797     34800     34803     34804     34797     34800     34803     34805
     34797     34800     34803     34806     34798     34797     34800     34801
     34798     34797     34800     34802     34798     34797     34800     34803
     34799     34797     34800     34801     34799     34797     34800     34802
     34799     34797     34800     34803     34800     34803     34806     34807
     34800     34803     34806     34808     34800     34803     34806     34809
     34801     34800     34803     34804     34801     34800     34803     34805
     34801     34800     34803     34806     34802     34800     34803     34804
     34802     34800     34803     34805     34802     34800     34803     34806
     34803     34806     34809     34810     34803     34806     34809     34811
     34803     34806     34809     34812     34804     34803     34806     34807
     34804     34803     34806     34808     34804     34803     34806     34809
     34805     34803     34806     34807     34805     34803     34806     34808
     34805     34803     34806     34809     34807     34806     34809     34810
     34807     34806     34809     34811     34807     34806     34809     34812
     34808     34806     34809     34810     34808     34806     34809     34811
     34808     34806     34809     34812     34813     34814     34829     34830
     34813     34814     34829     34831     34813     34814     34829     34835
     34814     34813     34817     34818     34814     34813     34817     34819
     34814     34813     34817     34820     34814     34813     34821     34822
     34814     34813     34821     34823     34814     34813     34821     34824
     34814     34813     34825     34826     34814     34813     34825     34827
     34814     34813     34825     34828     34814     34829     34835     34832
     34815     34814     34813     34817     34815     34814     34813     34821
     34815     34814     34813     34825     34815     34814     34829     34830
     34815     34814     34829     34831     34815     34814     34829     34835
     34816     34814     34813     34817     34816     34814     34813     34821
     34816     34814     34813     34825     34816     34814     34829     34830
     34816     34814     34829     34831     34816     34814     34829     34835
     34817     34813     34814     34829     34817     34813     34821     34822
     34817     34813     34821     34823     34817     34813     34821     34824
     34817     34813     34825     34826     34817     34813     34825     34827
     34817     34813     34825     34828     34818     34817     34813     34821
     34818     34817     34813     34825     34819     34817     34813     34821
     34819     34817     34813     34825     34820     34817     34813     34821
     34820     34817     34813     34825     34821     34813     34814     34829
     34821     34813     34825     34826     34821     34813     34825     34827
     34821     34813     34825     34828     34822     34821     34813     34825
     34823     34821     34813     34825     34824     34821     34813     34825
     34825     34813     34814     34829     34829     34835     34832     34833
     34829     34835     34832     34834     34829     34835     34832     34836
     34830     34829     34835     34832     34831     34829     34835     34832
     34832     34836     34837     34838     34832     34836     34837     34839
     34832     34836     34837     34840     34833     34832     34836     34837
     34834     34832     34836     34837     34835     34832     34836     34837
     34836     34837     34840     34841     34836     34837     34840     34842
     34836     34837     34840     34848     34837     34840     34842     34843
     34837     34840     34848     34849     34837     34840     34848     34850
     34837     34840     34848     34851     34838     34837     34840     34841
     34838     34837     34840     34842     34838     34837     34840     34848
     34839     34837     34840     34841     34839     34837     34840     34842
     34839     34837     34840     34848     34840     34842     34843     34844
     34840     34842     34843     34845     34840     34848     34851     34852
     34841     34840     34842     34843     34841     34840     34848     34849
     34841     34840     34848     34850     34841     34840     34848     34851
     34842     34840     34848     34849     34842     34840     34848     34850
     34842     34840     34848     34851     34842     34843     34845     34846
     34842     34843     34845     34847     34842     34843     34845     34857
     34843     34842     34840     34848     34843     34845     34857     34858
     34843     34845     34857     34859     34843     34845     34857     34860
     34844     34843     34845     34846     34844     34843     34845     34847
     34844     34843     34845     34857     34845     34857     34860     34861
     34845     34857     34860     34862     34845     34857     34860     34863
     34846     34845     34857     34858     34846     34845     34857     34859
     34846     34845     34857     34860     34847     34845     34857     34858
     34847     34845     34857     34859     34847     34845     34857     34860
     34848     34851     34852     34853     34848     34851     34852     34854
     34849     34848     34851     34852     34850     34848     34851     34852
     34851     34852     34854     34855     34851     34852     34854     34856
     34851     34852     34854     34904     34852     34854     34904     34905
     34852     34854     34904     34906     34852     34854     34904     34907
     34853     34852     34854     34855     34853     34852     34854     34856
     34853     34852     34854     34904     34854     34904     34907     34908
     34854     34904     34907     34909     34854     34904     34907     34910
     34855     34854     34904     34905     34855     34854     34904     34906
     34855     34854     34904     34907     34856     34854     34904     34905
     34856     34854     34904     34906     34856     34854     34904     34907
     34857     34860     34863     34864     34857     34860     34863     34865
     34857     34860     34863     34866     34858     34857     34860     34861
     34858     34857     34860     34862     34858     34857     34860     34863
     34859     34857     34860     34861     34859     34857     34860     34862
     34859     34857     34860     34863     34860     34863     34866     34867
     34860     34863     34866     34868     34860     34863     34866     34869
     34861     34860     34863     34864     34861     34860     34863     34865
     34861     34860     34863     34866     34862     34860     34863     34864
     34862     34860     34863     34865     34862     34860     34863     34866
     34863     34866     34869     34870     34863     34866     34869     34871
     34863     34866     34869     34872     34864     34863     34866     34867
     34864     34863     34866     34868     34864     34863     34866     34869
     34865     34863     34866     34867     34865     34863     34866     34868
     34865     34863     34866     34869     34866     34869     34872     34873
     34866     34869     34872     34874     34866     34869     34872     34875
     34867     34866     34869     34870     34867     34866     34869     34871
     34867     34866     34869     34872     34868     34866     34869     34870
     34868     34866     34869     34871     34868     34866     34869     34872
     34869     34872     34875     34876     34869     34872     34875     34877
     34870     34869     34872     34873     34870     34869     34872     34874
     34870     34869     34872     34875     34871     34869     34872     34873
     34871     34869     34872     34874     34871     34869     34872     34875
     34872     34875     34877     34878     34872     34875     34877     34879
     34873     34872     34875     34876     34873     34872     34875     34877
     34874     34872     34875     34876     34874     34872     34875     34877
     34875     34877     34879     34880     34875     34877     34879     34881
     34875     34877     34879     34882     34876     34875     34877     34878
     34876     34875     34877     34879     34877     34879     34882     34883
     34877     34879     34882     34884     34877     34879     34882     34885
     34878     34877     34879     34880     34878     34877     34879     34881
     34878     34877     34879     34882     34879     34882     34885     34886
     34879     34882     34885     34887     34879     34882     34885     34888
     34880     34879     34882     34883     34880     34879     34882     34884
     34880     34879     34882     34885     34881     34879     34882     34883
     34881     34879     34882     34884     34881     34879     34882     34885
     34882     34885     34888     34889     34882     34885     34888     34890
     34882     34885     34888     34891     34883     34882     34885     34886
     34883     34882     34885     34887     34883     34882     34885     34888
     34884     34882     34885     34886     34884     34882     34885     34887
     34884     34882     34885     34888     34885     34888     34891     34892
     34885     34888     34891     34893     34885     34888     34891     34894
     34886     34885     34888     34889     34886     34885     34888     34890
     34886     34885     34888     34891     34887     34885     34888     34889
     34887     34885     34888     34890     34887     34885     34888     34891
     34888     34891     34894     34895     34888     34891     34894     34896
     34888     34891     34894     34897     34889     34888     34891     34892
     34889     34888     34891     34893     34889     34888     34891     34894
     34890     34888     34891     34892     34890     34888     34891     34893
     34890     34888     34891     34894     34891     34894     34897     34898
     34891     34894     34897     34899     34891     34894     34897     34900
     34892     34891     34894     34895     34892     34891     34894     34896
     34892     34891     34894     34897     34893     34891     34894     34895
     34893     34891     34894     34896     34893     34891     34894     34897
     34894     34897     34900     34901     34894     34897     34900     34902
     34894     34897     34900     34903     34895     34894     34897     34898
     34895     34894     34897     34899     34895     34894     34897     34900
     34896     34894     34897     34898     34896     34894     34897     34899
     34896     34894     34897     34900     34898     34897     34900     34901
     34898     34897     34900     34902     34898     34897     34900     34903
     34899     34897     34900     34901     34899     34897     34900     34902
     34899     34897     34900     34903     34904     34907     34910     34911
     34904     34907     34910     34912     34904     34907     34910     34913
     34905     34904     34907     34908     34905     34904     34907     34909
     34905     34904     34907     34910     34906     34904     34907     34908
     34906     34904     34907     34909     34906     34904     34907     34910
     34907     34910     34913     34914     34907     34910     34913     34915
     34907     34910     34913     34916     34908     34907     34910     34911
     34908     34907     34910     34912     34908     34907     34910     34913
     34909     34907     34910     34911     34909     34907     34910     34912
     34909     34907     34910     34913     34910     34913     34916     34917
     34910     34913     34916     34918     34910     34913     34916     34919
     34911     34910     34913     34914     34911     34910     34913     34915
     34911     34910     34913     34916     34912     34910     34913     34914
     34912     34910     34913     34915     34912     34910     34913     34916
     34913     34916     34919     34920     34913     34916     34919     34921
     34913     34916     34919     34922     34914     34913     34916     34917
     34914     34913     34916     34918     34914     34913     34916     34919
     34915     34913     34916     34917     34915     34913     34916     34918
     34915     34913     34916     34919     34916     34919     34922     34923
     34916     34919     34922     34924     34916     34919     34922     34925
     34917     34916     34919     34920     34917     34916     34919     34921
     34917     34916     34919     34922     34918     34916     34919     34920
     34918     34916     34919     34921     34918     34916     34919     34922
     34919     34922     34925     34926     34919     34922     34925     34927
     34919     34922     34925     34928     34920     34919     34922     34923
     34920     34919     34922     34924     34920     34919     34922     34925
     34921     34919     34922     34923     34921     34919     34922     34924
     34921     34919     34922     34925     34922     34925     34928     34929
     34922     34925     34928     34930     34922     34925     34928     34931
     34923     34922     34925     34926     34923     34922     34925     34927
     34923     34922     34925     34928     34924     34922     34925     34926
     34924     34922     34925     34927     34924     34922     34925     34928
     34925     34928     34931     34932     34925     34928     34931     34933
     34925     34928     34931     34934     34926     34925     34928     34929
     34926     34925     34928     34930     34926     34925     34928     34931
     34927     34925     34928     34929     34927     34925     34928     34930
     34927     34925     34928     34931     34928     34931     34934     34935
     34928     34931     34934     34936     34928     34931     34934     34937
     34929     34928     34931     34932     34929     34928     34931     34933
     34929     34928     34931     34934     34930     34928     34931     34932
     34930     34928     34931     34933     34930     34928     34931     34934
     34931     34934     34937     34938     34931     34934     34937     34939
     34931     34934     34937     34940     34932     34931     34934     34935
     34932     34931     34934     34936     34932     34931     34934     34937
     34933     34931     34934     34935     34933     34931     34934     34936
     34933     34931     34934     34937     34934     34937     34940     34941
     34934     34937     34940     34942     34934     34937     34940     34943
     34935     34934     34937     34938     34935     34934     34937     34939
     34935     34934     34937     34940     34936     34934     34937     34938
     34936     34934     34937     34939     34936     34934     34937     34940
     34937     34940     34943     34944     34937     34940     34943     34945
     34937     34940     34943     34946     34938     34937     34940     34941
     34938     34937     34940     34942     34938     34937     34940     34943
     34939     34937     34940     34941     34939     34937     34940     34942
     34939     34937     34940     34943     34941     34940     34943     34944
     34941     34940     34943     34945     34941     34940     34943     34946
     34942     34940     34943     34944     34942     34940     34943     34945
     34942     34940     34943     34946     34947     34948     34963     34964
     34947     34948     34963     34965     34947     34948     34963     34969
     34948     34947     34951     34952     34948     34947     34951     34953
     34948     34947     34951     34954     34948     34947     34955     34956
     34948     34947     34955     34957     34948     34947     34955     34958
     34948     34947     34959     34960     34948     34947     34959     34961
     34948     34947     34959     34962     34948     34963     34969     34966
     34949     34948     34947     34951     34949     34948     34947     34955
     34949     34948     34947     34959     34949     34948     34963     34964
     34949     34948     34963     34965     34949     34948     34963     34969
     34950     34948     34947     34951     34950     34948     34947     34955
     34950     34948     34947     34959     34950     34948     34963     34964
     34950     34948     34963     34965     34950     34948     34963     34969
     34951     34947     34948     34963     34951     34947     34955     34956
     34951     34947     34955     34957     34951     34947     34955     34958
     34951     34947     34959     34960     34951     34947     34959     34961
     34951     34947     34959     34962     34952     34951     34947     34955
     34952     34951     34947     34959     34953     34951     34947     34955
     34953     34951     34947     34959     34954     34951     34947     34955
     34954     34951     34947     34959     34955     34947     34948     34963
     34955     34947     34959     34960     34955     34947     34959     34961
     34955     34947     34959     34962     34956     34955     34947     34959
     34957     34955     34947     34959     34958     34955     34947     34959
     34959     34947     34948     34963     34963     34969     34966     34967
     34963     34969     34966     34968     34963     34969     34966     34970
     34964     34963     34969     34966     34965     34963     34969     34966
     34966     34970     34971     34972     34966     34970     34971     34973
     34966     34970     34971     34974     34967     34966     34970     34971
     34968     34966     34970     34971     34969     34966     34970     34971
     34970     34971     34974     34975     34970     34971     34974     34976
     34970     34971     34974     34982     34971     34974     34976     34977
     34971     34974     34982     34983     34971     34974     34982     34984
     34971     34974     34982     34985     34972     34971     34974     34975
     34972     34971     34974     34976     34972     34971     34974     34982
     34973     34971     34974     34975     34973     34971     34974     34976
     34973     34971     34974     34982     34974     34976     34977     34978
     34974     34976     34977     34979     34974     34982     34985     34986
     34975     34974     34976     34977     34975     34974     34982     34983
     34975     34974     34982     34984     34975     34974     34982     34985
     34976     34974     34982     34983     34976     34974     34982     34984
     34976     34974     34982     34985     34976     34977     34979     34980
     34976     34977     34979     34981     34976     34977     34979     34991
     34977     34976     34974     34982     34977     34979     34991     34992
     34977     34979     34991     34993     34977     34979     34991     34994
     34978     34977     34979     34980     34978     34977     34979     34981
     34978     34977     34979     34991     34979     34991     34994     34995
     34979     34991     34994     34996     34979     34991     34994     34997
     34980     34979     34991     34992     34980     34979     34991     34993
     34980     34979     34991     34994     34981     34979     34991     34992
     34981     34979     34991     34993     34981     34979     34991     34994
     34982     34985     34986     34987     34982     34985     34986     34988
     34983     34982     34985     34986     34984     34982     34985     34986
     34985     34986     34988     34989     34985     34986     34988     34990
     34985     34986     34988     35038     34986     34988     35038     35039
     34986     34988     35038     35040     34986     34988     35038     35041
     34987     34986     34988     34989     34987     34986     34988     34990
     34987     34986     34988     35038     34988     35038     35041     35042
     34988     35038     35041     35043     34988     35038     35041     35044
     34989     34988     35038     35039     34989     34988     35038     35040
     34989     34988     35038     35041     34990     34988     35038     35039
     34990     34988     35038     35040     34990     34988     35038     35041
     34991     34994     34997     34998     34991     34994     34997     34999
     34991     34994     34997     35000     34992     34991     34994     34995
     34992     34991     34994     34996     34992     34991     34994     34997
     34993     34991     34994     34995     34993     34991     34994     34996
     34993     34991     34994     34997     34994     34997     35000     35001
     34994     34997     35000     35002     34994     34997     35000     35003
     34995     34994     34997     34998     34995     34994     34997     34999
     34995     34994     34997     35000     34996     34994     34997     34998
     34996     34994     34997     34999     34996     34994     34997     35000
     34997     35000     35003     35004     34997     35000     35003     35005
     34997     35000     35003     35006     34998     34997     35000     35001
     34998     34997     35000     35002     34998     34997     35000     35003
     34999     34997     35000     35001     34999     34997     35000     35002
     34999     34997     35000     35003     35000     35003     35006     35007
     35000     35003     35006     35008     35000     35003     35006     35009
     35001     35000     35003     35004     35001     35000     35003     35005
     35001     35000     35003     35006     35002     35000     35003     35004
     35002     35000     35003     35005     35002     35000     35003     35006
     35003     35006     35009     35010     35003     35006     35009     35011
     35004     35003     35006     35007     35004     35003     35006     35008
     35004     35003     35006     35009     35005     35003     35006     35007
     35005     35003     35006     35008     35005     35003     35006     35009
     35006     35009     35011     35012     35006     35009     35011     35013
     35007     35006     35009     35010     35007     35006     35009     35011
     35008     35006     35009     35010     35008     35006     35009     35011
     35009     35011     35013     35014     35009     35011     35013     35015
     35009     35011     35013     35016     35010     35009     35011     35012
     35010     35009     35011     35013     35011     35013     35016     35017
     35011     35013     35016     35018     35011     35013     35016     35019
     35012     35011     35013     35014     35012     35011     35013     35015
     35012     35011     35013     35016     35013     35016     35019     35020
     35013     35016     35019     35021     35013     35016     35019     35022
     35014     35013     35016     35017     35014     35013     35016     35018
     35014     35013     35016     35019     35015     35013     35016     35017
     35015     35013     35016     35018     35015     35013     35016     35019
     35016     35019     35022     35023     35016     35019     35022     35024
     35016     35019     35022     35025     35017     35016     35019     35020
     35017     35016     35019     35021     35017     35016     35019     35022
     35018     35016     35019     35020     35018     35016     35019     35021
     35018     35016     35019     35022     35019     35022     35025     35026
     35019     35022     35025     35027     35019     35022     35025     35028
     35020     35019     35022     35023     35020     35019     35022     35024
     35020     35019     35022     35025     35021     35019     35022     35023
     35021     35019     35022     35024     35021     35019     35022     35025
     35022     35025     35028     35029     35022     35025     35028     35030
     35022     35025     35028     35031     35023     35022     35025     35026
     35023     35022     35025     35027     35023     35022     35025     35028
     35024     35022     35025     35026     35024     35022     35025     35027
     35024     35022     35025     35028     35025     35028     35031     35032
     35025     35028     35031     35033     35025     35028     35031     35034
     35026     35025     35028     35029     35026     35025     35028     35030
     35026     35025     35028     35031     35027     35025     35028     35029
     35027     35025     35028     35030     35027     35025     35028     35031
     35028     35031     35034     35035     35028     35031     35034     35036
     35028     35031     35034     35037     35029     35028     35031     35032
     35029     35028     35031     35033     35029     35028     35031     35034
     35030     35028     35031     35032     35030     35028     35031     35033
     35030     35028     35031     35034     35032     35031     35034     35035
     35032     35031     35034     35036     35032     35031     35034     35037
     35033     35031     35034     35035     35033     35031     35034     35036
     35033     35031     35034     35037     35038     35041     35044     35045
     35038     35041     35044     35046     35038     35041     35044     35047
     35039     35038     35041     35042     35039     35038     35041     35043
     35039     35038     35041     35044     35040     35038     35041     35042
     35040     35038     35041     35043     35040     35038     35041     35044
     35041     35044     35047     35048     35041     35044     35047     35049
     35041     35044     35047     35050     35042     35041     35044     35045
     35042     35041     35044     35046     35042     35041     35044     35047
     35043     35041     35044     35045     35043     35041     35044     35046
     35043     35041     35044     35047     35044     35047     35050     35051
     35044     35047     35050     35052     35044     35047     35050     35053
     35045     35044     35047     35048     35045     35044     35047     35049
     35045     35044     35047     35050     35046     35044     35047     35048
     35046     35044     35047     35049     35046     35044     35047     35050
     35047     35050     35053     35054     35047     35050     35053     35055
     35047     35050     35053     35056     35048     35047     35050     35051
     35048     35047     35050     35052     35048     35047     35050     35053
     35049     35047     35050     35051     35049     35047     35050     35052
     35049     35047     35050     35053     35050     35053     35056     35057
     35050     35053     35056     35058     35050     35053     35056     35059
     35051     35050     35053     35054     35051     35050     35053     35055
     35051     35050     35053     35056     35052     35050     35053     35054
     35052     35050     35053     35055     35052     35050     35053     35056
     35053     35056     35059     35060     35053     35056     35059     35061
     35053     35056     35059     35062     35054     35053     35056     35057
     35054     35053     35056     35058     35054     35053     35056     35059
     35055     35053     35056     35057     35055     35053     35056     35058
     35055     35053     35056     35059     35056     35059     35062     35063
     35056     35059     35062     35064     35056     35059     35062     35065
     35057     35056     35059     35060     35057     35056     35059     35061
     35057     35056     35059     35062     35058     35056     35059     35060
     35058     35056     35059     35061     35058     35056     35059     35062
     35059     35062     35065     35066     35059     35062     35065     35067
     35059     35062     35065     35068     35060     35059     35062     35063
     35060     35059     35062     35064     35060     35059     35062     35065
     35061     35059     35062     35063     35061     35059     35062     35064
     35061     35059     35062     35065     35062     35065     35068     35069
     35062     35065     35068     35070     35062     35065     35068     35071
     35063     35062     35065     35066     35063     35062     35065     35067
     35063     35062     35065     35068     35064     35062     35065     35066
     35064     35062     35065     35067     35064     35062     35065     35068
     35065     35068     35071     35072     35065     35068     35071     35073
     35065     35068     35071     35074     35066     35065     35068     35069
     35066     35065     35068     35070     35066     35065     35068     35071
     35067     35065     35068     35069     35067     35065     35068     35070
     35067     35065     35068     35071     35068     35071     35074     35075
     35068     35071     35074     35076     35068     35071     35074     35077
     35069     35068     35071     35072     35069     35068     35071     35073
     35069     35068     35071     35074     35070     35068     35071     35072
     35070     35068     35071     35073     35070     35068     35071     35074
     35071     35074     35077     35078     35071     35074     35077     35079
     35071     35074     35077     35080     35072     35071     35074     35075
     35072     35071     35074     35076     35072     35071     35074     35077
     35073     35071     35074     35075     35073     35071     35074     35076
     35073     35071     35074     35077     35075     35074     35077     35078
     35075     35074     35077     35079     35075     35074     35077     35080
     35076     35074     35077     35078     35076     35074     35077     35079
     35076     35074     35077     35080     35081     35082     35097     35098
     35081     35082     35097     35099     35081     35082     35097     35103
     35082     35081     35085     35086     35082     35081     35085     35087
     35082     35081     35085     35088     35082     35081     35089     35090
     35082     35081     35089     35091     35082     35081     35089     35092
     35082     35081     35093     35094     35082     35081     35093     35095
     35082     35081     35093     35096     35082     35097     35103     35100
     35083     35082     35081     35085     35083     35082     35081     35089
     35083     35082     35081     35093     35083     35082     35097     35098
     35083     35082     35097     35099     35083     35082     35097     35103
     35084     35082     35081     35085     35084     35082     35081     35089
     35084     35082     35081     35093     35084     35082     35097     35098
     35084     35082     35097     35099     35084     35082     35097     35103
     35085     35081     35082     35097     35085     35081     35089     35090
     35085     35081     35089     35091     35085     35081     35089     35092
     35085     35081     35093     35094     35085     35081     35093     35095
     35085     35081     35093     35096     35086     35085     35081     35089
     35086     35085     35081     35093     35087     35085     35081     35089
     35087     35085     35081     35093     35088     35085     35081     35089
     35088     35085     35081     35093     35089     35081     35082     35097
     35089     35081     35093     35094     35089     35081     35093     35095
     35089     35081     35093     35096     35090     35089     35081     35093
     35091     35089     35081     35093     35092     35089     35081     35093
     35093     35081     35082     35097     35097     35103     35100     35101
     35097     35103     35100     35102     35097     35103     35100     35104
     35098     35097     35103     35100     35099     35097     35103     35100
     35100     35104     35105     35106     35100     35104     35105     35107
     35100     35104     35105     35108     35101     35100     35104     35105
     35102     35100     35104     35105     35103     35100     35104     35105
     35104     35105     35108     35109     35104     35105     35108     35110
     35104     35105     35108     35116     35105     35108     35110     35111
     35105     35108     35116     35117     35105     35108     35116     35118
     35105     35108     35116     35119     35106     35105     35108     35109
     35106     35105     35108     35110     35106     35105     35108     35116
     35107     35105     35108     35109     35107     35105     35108     35110
     35107     35105     35108     35116     35108     35110     35111     35112
     35108     35110     35111     35113     35108     35116     35119     35120
     35109     35108     35110     35111     35109     35108     35116     35117
     35109     35108     35116     35118     35109     35108     35116     35119
     35110     35108     35116     35117     35110     35108     35116     35118
     35110     35108     35116     35119     35110     35111     35113     35114
     35110     35111     35113     35115     35110     35111     35113     35125
     35111     35110     35108     35116     35111     35113     35125     35126
     35111     35113     35125     35127     35111     35113     35125     35128
     35112     35111     35113     35114     35112     35111     35113     35115
     35112     35111     35113     35125     35113     35125     35128     35129
     35113     35125     35128     35130     35113     35125     35128     35131
     35114     35113     35125     35126     35114     35113     35125     35127
     35114     35113     35125     35128     35115     35113     35125     35126
     35115     35113     35125     35127     35115     35113     35125     35128
     35116     35119     35120     35121     35116     35119     35120     35122
     35117     35116     35119     35120     35118     35116     35119     35120
     35119     35120     35122     35123     35119     35120     35122     35124
     35119     35120     35122     35172     35120     35122     35172     35173
     35120     35122     35172     35174     35120     35122     35172     35175
     35121     35120     35122     35123     35121     35120     35122     35124
     35121     35120     35122     35172     35122     35172     35175     35176
     35122     35172     35175     35177     35122     35172     35175     35178
     35123     35122     35172     35173     35123     35122     35172     35174
     35123     35122     35172     35175     35124     35122     35172     35173
     35124     35122     35172     35174     35124     35122     35172     35175
     35125     35128     35131     35132     35125     35128     35131     35133
     35125     35128     35131     35134     35126     35125     35128     35129
     35126     35125     35128     35130     35126     35125     35128     35131
     35127     35125     35128     35129     35127     35125     35128     35130
     35127     35125     35128     35131     35128     35131     35134     35135
     35128     35131     35134     35136     35128     35131     35134     35137
     35129     35128     35131     35132     35129     35128     35131     35133
     35129     35128     35131     35134     35130     35128     35131     35132
     35130     35128     35131     35133     35130     35128     35131     35134
     35131     35134     35137     35138     35131     35134     35137     35139
     35131     35134     35137     35140     35132     35131     35134     35135
     35132     35131     35134     35136     35132     35131     35134     35137
     35133     35131     35134     35135     35133     35131     35134     35136
     35133     35131     35134     35137     35134     35137     35140     35141
     35134     35137     35140     35142     35134     35137     35140     35143
     35135     35134     35137     35138     35135     35134     35137     35139
     35135     35134     35137     35140     35136     35134     35137     35138
     35136     35134     35137     35139     35136     35134     35137     35140
     35137     35140     35143     35144     35137     35140     35143     35145
     35138     35137     35140     35141     35138     35137     35140     35142
     35138     35137     35140     35143     35139     35137     35140     35141
     35139     35137     35140     35142     35139     35137     35140     35143
     35140     35143     35145     35146     35140     35143     35145     35147
     35141     35140     35143     35144     35141     35140     35143     35145
     35142     35140     35143     35144     35142     35140     35143     35145
     35143     35145     35147     35148     35143     35145     35147     35149
     35143     35145     35147     35150     35144     35143     35145     35146
     35144     35143     35145     35147     35145     35147     35150     35151
     35145     35147     35150     35152     35145     35147     35150     35153
     35146     35145     35147     35148     35146     35145     35147     35149
     35146     35145     35147     35150     35147     35150     35153     35154
     35147     35150     35153     35155     35147     35150     35153     35156
     35148     35147     35150     35151     35148     35147     35150     35152
     35148     35147     35150     35153     35149     35147     35150     35151
     35149     35147     35150     35152     35149     35147     35150     35153
     35150     35153     35156     35157     35150     35153     35156     35158
     35150     35153     35156     35159     35151     35150     35153     35154
     35151     35150     35153     35155     35151     35150     35153     35156
     35152     35150     35153     35154     35152     35150     35153     35155
     35152     35150     35153     35156     35153     35156     35159     35160
     35153     35156     35159     35161     35153     35156     35159     35162
     35154     35153     35156     35157     35154     35153     35156     35158
     35154     35153     35156     35159     35155     35153     35156     35157
     35155     35153     35156     35158     35155     35153     35156     35159
     35156     35159     35162     35163     35156     35159     35162     35164
     35156     35159     35162     35165     35157     35156     35159     35160
     35157     35156     35159     35161     35157     35156     35159     35162
     35158     35156     35159     35160     35158     35156     35159     35161
     35158     35156     35159     35162     35159     35162     35165     35166
     35159     35162     35165     35167     35159     35162     35165     35168
     35160     35159     35162     35163     35160     35159     35162     35164
     35160     35159     35162     35165     35161     35159     35162     35163
     35161     35159     35162     35164     35161     35159     35162     35165
     35162     35165     35168     35169     35162     35165     35168     35170
     35162     35165     35168     35171     35163     35162     35165     35166
     35163     35162     35165     35167     35163     35162     35165     35168
     35164     35162     35165     35166     35164     35162     35165     35167
     35164     35162     35165     35168     35166     35165     35168     35169
     35166     35165     35168     35170     35166     35165     35168     35171
     35167     35165     35168     35169     35167     35165     35168     35170
     35167     35165     35168     35171     35172     35175     35178     35179
     35172     35175     35178     35180     35172     35175     35178     35181
     35173     35172     35175     35176     35173     35172     35175     35177
     35173     35172     35175     35178     35174     35172     35175     35176
     35174     35172     35175     35177     35174     35172     35175     35178
     35175     35178     35181     35182     35175     35178     35181     35183
     35175     35178     35181     35184     35176     35175     35178     35179
     35176     35175     35178     35180     35176     35175     35178     35181
     35177     35175     35178     35179     35177     35175     35178     35180
     35177     35175     35178     35181     35178     35181     35184     35185
     35178     35181     35184     35186     35178     35181     35184     35187
     35179     35178     35181     35182     35179     35178     35181     35183
     35179     35178     35181     35184     35180     35178     35181     35182
     35180     35178     35181     35183     35180     35178     35181     35184
     35181     35184     35187     35188     35181     35184     35187     35189
     35181     35184     35187     35190     35182     35181     35184     35185
     35182     35181     35184     35186     35182     35181     35184     35187
     35183     35181     35184     35185     35183     35181     35184     35186
     35183     35181     35184     35187     35184     35187     35190     35191
     35184     35187     35190     35192     35184     35187     35190     35193
     35185     35184     35187     35188     35185     35184     35187     35189
     35185     35184     35187     35190     35186     35184     35187     35188
     35186     35184     35187     35189     35186     35184     35187     35190
     35187     35190     35193     35194     35187     35190     35193     35195
     35187     35190     35193     35196     35188     35187     35190     35191
     35188     35187     35190     35192     35188     35187     35190     35193
     35189     35187     35190     35191     35189     35187     35190     35192
     35189     35187     35190     35193     35190     35193     35196     35197
     35190     35193     35196     35198     35190     35193     35196     35199
     35191     35190     35193     35194     35191     35190     35193     35195
     35191     35190     35193     35196     35192     35190     35193     35194
     35192     35190     35193     35195     35192     35190     35193     35196
     35193     35196     35199     35200     35193     35196     35199     35201
     35193     35196     35199     35202     35194     35193     35196     35197
     35194     35193     35196     35198     35194     35193     35196     35199
     35195     35193     35196     35197     35195     35193     35196     35198
     35195     35193     35196     35199     35196     35199     35202     35203
     35196     35199     35202     35204     35196     35199     35202     35205
     35197     35196     35199     35200     35197     35196     35199     35201
     35197     35196     35199     35202     35198     35196     35199     35200
     35198     35196     35199     35201     35198     35196     35199     35202
     35199     35202     35205     35206     35199     35202     35205     35207
     35199     35202     35205     35208     35200     35199     35202     35203
     35200     35199     35202     35204     35200     35199     35202     35205
     35201     35199     35202     35203     35201     35199     35202     35204
     35201     35199     35202     35205     35202     35205     35208     35209
     35202     35205     35208     35210     35202     35205     35208     35211
     35203     35202     35205     35206     35203     35202     35205     35207
     35203     35202     35205     35208     35204     35202     35205     35206
     35204     35202     35205     35207     35204     35202     35205     35208
     35205     35208     35211     35212     35205     35208     35211     35213
     35205     35208     35211     35214     35206     35205     35208     35209
     35206     35205     35208     35210     35206     35205     35208     35211
     35207     35205     35208     35209     35207     35205     35208     35210
     35207     35205     35208     35211     35209     35208     35211     35212
     35209     35208     35211     35213     35209     35208     35211     35214
     35210     35208     35211     35212     35210     35208     35211     35213
     35210     35208     35211     35214     35215     35216     35231     35232
     35215     35216     35231     35233     35215     35216     35231     35237
     35216     35215     35219     35220     35216     35215     35219     35221
     35216     35215     35219     35222     35216     35215     35223     35224
     35216     35215     35223     35225     35216     35215     35223     35226
     35216     35215     35227     35228     35216     35215     35227     35229
     35216     35215     35227     35230     35216     35231     35237     35234
     35217     35216     35215     35219     35217     35216     35215     35223
     35217     35216     35215     35227     35217     35216     35231     35232
     35217     35216     35231     35233     35217     35216     35231     35237
     35218     35216     35215     35219     35218     35216     35215     35223
     35218     35216     35215     35227     35218     35216     35231     35232
     35218     35216     35231     35233     35218     35216     35231     35237
     35219     35215     35216     35231     35219     35215     35223     35224
     35219     35215     35223     35225     35219     35215     35223     35226
     35219     35215     35227     35228     35219     35215     35227     35229
     35219     35215     35227     35230     35220     35219     35215     35223
     35220     35219     35215     35227     35221     35219     35215     35223
     35221     35219     35215     35227     35222     35219     35215     35223
     35222     35219     35215     35227     35223     35215     35216     35231
     35223     35215     35227     35228     35223     35215     35227     35229
     35223     35215     35227     35230     35224     35223     35215     35227
     35225     35223     35215     35227     35226     35223     35215     35227
     35227     35215     35216     35231     35231     35237     35234     35235
     35231     35237     35234     35236     35231     35237     35234     35238
     35232     35231     35237     35234     35233     35231     35237     35234
     35234     35238     35239     35240     35234     35238     35239     35241
     35234     35238     35239     35242     35235     35234     35238     35239
     35236     35234     35238     35239     35237     35234     35238     35239
     35238     35239     35242     35243     35238     35239     35242     35244
     35238     35239     35242     35250     35239     35242     35244     35245
     35239     35242     35250     35251     35239     35242     35250     35252
     35239     35242     35250     35253     35240     35239     35242     35243
     35240     35239     35242     35244     35240     35239     35242     35250
     35241     35239     35242     35243     35241     35239     35242     35244
     35241     35239     35242     35250     35242     35244     35245     35246
     35242     35244     35245     35247     35242     35250     35253     35254
     35243     35242     35244     35245     35243     35242     35250     35251
     35243     35242     35250     35252     35243     35242     35250     35253
     35244     35242     35250     35251     35244     35242     35250     35252
     35244     35242     35250     35253     35244     35245     35247     35248
     35244     35245     35247     35249     35244     35245     35247     35259
     35245     35244     35242     35250     35245     35247     35259     35260
     35245     35247     35259     35261     35245     35247     35259     35262
     35246     35245     35247     35248     35246     35245     35247     35249
     35246     35245     35247     35259     35247     35259     35262     35263
     35247     35259     35262     35264     35247     35259     35262     35265
     35248     35247     35259     35260     35248     35247     35259     35261
     35248     35247     35259     35262     35249     35247     35259     35260
     35249     35247     35259     35261     35249     35247     35259     35262
     35250     35253     35254     35255     35250     35253     35254     35256
     35251     35250     35253     35254     35252     35250     35253     35254
     35253     35254     35256     35257     35253     35254     35256     35258
     35253     35254     35256     35306     35254     35256     35306     35307
     35254     35256     35306     35308     35254     35256     35306     35309
     35255     35254     35256     35257     35255     35254     35256     35258
     35255     35254     35256     35306     35256     35306     35309     35310
     35256     35306     35309     35311     35256     35306     35309     35312
     35257     35256     35306     35307     35257     35256     35306     35308
     35257     35256     35306     35309     35258     35256     35306     35307
     35258     35256     35306     35308     35258     35256     35306     35309
     35259     35262     35265     35266     35259     35262     35265     35267
     35259     35262     35265     35268     35260     35259     35262     35263
     35260     35259     35262     35264     35260     35259     35262     35265
     35261     35259     35262     35263     35261     35259     35262     35264
     35261     35259     35262     35265     35262     35265     35268     35269
     35262     35265     35268     35270     35262     35265     35268     35271
     35263     35262     35265     35266     35263     35262     35265     35267
     35263     35262     35265     35268     35264     35262     35265     35266
     35264     35262     35265     35267     35264     35262     35265     35268
     35265     35268     35271     35272     35265     35268     35271     35273
     35265     35268     35271     35274     35266     35265     35268     35269
     35266     35265     35268     35270     35266     35265     35268     35271
     35267     35265     35268     35269     35267     35265     35268     35270
     35267     35265     35268     35271     35268     35271     35274     35275
     35268     35271     35274     35276     35268     35271     35274     35277
     35269     35268     35271     35272     35269     35268     35271     35273
     35269     35268     35271     35274     35270     35268     35271     35272
     35270     35268     35271     35273     35270     35268     35271     35274
     35271     35274     35277     35278     35271     35274     35277     35279
     35272     35271     35274     35275     35272     35271     35274     35276
     35272     35271     35274     35277     35273     35271     35274     35275
     35273     35271     35274     35276     35273     35271     35274     35277
     35274     35277     35279     35280     35274     35277     35279     35281
     35275     35274     35277     35278     35275     35274     35277     35279
     35276     35274     35277     35278     35276     35274     35277     35279
     35277     35279     35281     35282     35277     35279     35281     35283
     35277     35279     35281     35284     35278     35277     35279     35280
     35278     35277     35279     35281     35279     35281     35284     35285
     35279     35281     35284     35286     35279     35281     35284     35287
     35280     35279     35281     35282     35280     35279     35281     35283
     35280     35279     35281     35284     35281     35284     35287     35288
     35281     35284     35287     35289     35281     35284     35287     35290
     35282     35281     35284     35285     35282     35281     35284     35286
     35282     35281     35284     35287     35283     35281     35284     35285
     35283     35281     35284     35286     35283     35281     35284     35287
     35284     35287     35290     35291     35284     35287     35290     35292
     35284     35287     35290     35293     35285     35284     35287     35288
     35285     35284     35287     35289     35285     35284     35287     35290
     35286     35284     35287     35288     35286     35284     35287     35289
     35286     35284     35287     35290     35287     35290     35293     35294
     35287     35290     35293     35295     35287     35290     35293     35296
     35288     35287     35290     35291     35288     35287     35290     35292
     35288     35287     35290     35293     35289     35287     35290     35291
     35289     35287     35290     35292     35289     35287     35290     35293
     35290     35293     35296     35297     35290     35293     35296     35298
     35290     35293     35296     35299     35291     35290     35293     35294
     35291     35290     35293     35295     35291     35290     35293     35296
     35292     35290     35293     35294     35292     35290     35293     35295
     35292     35290     35293     35296     35293     35296     35299     35300
     35293     35296     35299     35301     35293     35296     35299     35302
     35294     35293     35296     35297     35294     35293     35296     35298
     35294     35293     35296     35299     35295     35293     35296     35297
     35295     35293     35296     35298     35295     35293     35296     35299
     35296     35299     35302     35303     35296     35299     35302     35304
     35296     35299     35302     35305     35297     35296     35299     35300
     35297     35296     35299     35301     35297     35296     35299     35302
     35298     35296     35299     35300     35298     35296     35299     35301
     35298     35296     35299     35302     35300     35299     35302     35303
     35300     35299     35302     35304     35300     35299     35302     35305
     35301     35299     35302     35303     35301     35299     35302     35304
     35301     35299     35302     35305     35306     35309     35312     35313
     35306     35309     35312     35314     35306     35309     35312     35315
     35307     35306     35309     35310     35307     35306     35309     35311
     35307     35306     35309     35312     35308     35306     35309     35310
     35308     35306     35309     35311     35308     35306     35309     35312
     35309     35312     35315     35316     35309     35312     35315     35317
     35309     35312     35315     35318     35310     35309     35312     35313
     35310     35309     35312     35314     35310     35309     35312     35315
     35311     35309     35312     35313     35311     35309     35312     35314
     35311     35309     35312     35315     35312     35315     35318     35319
     35312     35315     35318     35320     35312     35315     35318     35321
     35313     35312     35315     35316     35313     35312     35315     35317
     35313     35312     35315     35318     35314     35312     35315     35316
     35314     35312     35315     35317     35314     35312     35315     35318
     35315     35318     35321     35322     35315     35318     35321     35323
     35315     35318     35321     35324     35316     35315     35318     35319
     35316     35315     35318     35320     35316     35315     35318     35321
     35317     35315     35318     35319     35317     35315     35318     35320
     35317     35315     35318     35321     35318     35321     35324     35325
     35318     35321     35324     35326     35318     35321     35324     35327
     35319     35318     35321     35322     35319     35318     35321     35323
     35319     35318     35321     35324     35320     35318     35321     35322
     35320     35318     35321     35323     35320     35318     35321     35324
     35321     35324     35327     35328     35321     35324     35327     35329
     35321     35324     35327     35330     35322     35321     35324     35325
     35322     35321     35324     35326     35322     35321     35324     35327
     35323     35321     35324     35325     35323     35321     35324     35326
     35323     35321     35324     35327     35324     35327     35330     35331
     35324     35327     35330     35332     35324     35327     35330     35333
     35325     35324     35327     35328     35325     35324     35327     35329
     35325     35324     35327     35330     35326     35324     35327     35328
     35326     35324     35327     35329     35326     35324     35327     35330
     35327     35330     35333     35334     35327     35330     35333     35335
     35327     35330     35333     35336     35328     35327     35330     35331
     35328     35327     35330     35332     35328     35327     35330     35333
     35329     35327     35330     35331     35329     35327     35330     35332
     35329     35327     35330     35333     35330     35333     35336     35337
     35330     35333     35336     35338     35330     35333     35336     35339
     35331     35330     35333     35334     35331     35330     35333     35335
     35331     35330     35333     35336     35332     35330     35333     35334
     35332     35330     35333     35335     35332     35330     35333     35336
     35333     35336     35339     35340     35333     35336     35339     35341
     35333     35336     35339     35342     35334     35333     35336     35337
     35334     35333     35336     35338     35334     35333     35336     35339
     35335     35333     35336     35337     35335     35333     35336     35338
     35335     35333     35336     35339     35336     35339     35342     35343
     35336     35339     35342     35344     35336     35339     35342     35345
     35337     35336     35339     35340     35337     35336     35339     35341
     35337     35336     35339     35342     35338     35336     35339     35340
     35338     35336     35339     35341     35338     35336     35339     35342
     35339     35342     35345     35346     35339     35342     35345     35347
     35339     35342     35345     35348     35340     35339     35342     35343
     35340     35339     35342     35344     35340     35339     35342     35345
     35341     35339     35342     35343     35341     35339     35342     35344
     35341     35339     35342     35345     35343     35342     35345     35346
     35343     35342     35345     35347     35343     35342     35345     35348
     35344     35342     35345     35346     35344     35342     35345     35347
     35344     35342     35345     35348     35349     35350     35365     35366
     35349     35350     35365     35367     35349     35350     35365     35371
     35350     35349     35353     35354     35350     35349     35353     35355
     35350     35349     35353     35356     35350     35349     35357     35358
     35350     35349     35357     35359     35350     35349     35357     35360
     35350     35349     35361     35362     35350     35349     35361     35363
     35350     35349     35361     35364     35350     35365     35371     35368
     35351     35350     35349     35353     35351     35350     35349     35357
     35351     35350     35349     35361     35351     35350     35365     35366
     35351     35350     35365     35367     35351     35350     35365     35371
     35352     35350     35349     35353     35352     35350     35349     35357
     35352     35350     35349     35361     35352     35350     35365     35366
     35352     35350     35365     35367     35352     35350     35365     35371
     35353     35349     35350     35365     35353     35349     35357     35358
     35353     35349     35357     35359     35353     35349     35357     35360
     35353     35349     35361     35362     35353     35349     35361     35363
     35353     35349     35361     35364     35354     35353     35349     35357
     35354     35353     35349     35361     35355     35353     35349     35357
     35355     35353     35349     35361     35356     35353     35349     35357
     35356     35353     35349     35361     35357     35349     35350     35365
     35357     35349     35361     35362     35357     35349     35361     35363
     35357     35349     35361     35364     35358     35357     35349     35361
     35359     35357     35349     35361     35360     35357     35349     35361
     35361     35349     35350     35365     35365     35371     35368     35369
     35365     35371     35368     35370     35365     35371     35368     35372
     35366     35365     35371     35368     35367     35365     35371     35368
     35368     35372     35373     35374     35368     35372     35373     35375
     35368     35372     35373     35376     35369     35368     35372     35373
     35370     35368     35372     35373     35371     35368     35372     35373
     35372     35373     35376     35377     35372     35373     35376     35378
     35372     35373     35376     35384     35373     35376     35378     35379
     35373     35376     35384     35385     35373     35376     35384     35386
     35373     35376     35384     35387     35374     35373     35376     35377
     35374     35373     35376     35378     35374     35373     35376     35384
     35375     35373     35376     35377     35375     35373     35376     35378
     35375     35373     35376     35384     35376     35378     35379     35380
     35376     35378     35379     35381     35376     35384     35387     35388
     35377     35376     35378     35379     35377     35376     35384     35385
     35377     35376     35384     35386     35377     35376     35384     35387
     35378     35376     35384     35385     35378     35376     35384     35386
     35378     35376     35384     35387     35378     35379     35381     35382
     35378     35379     35381     35383     35378     35379     35381     35393
     35379     35378     35376     35384     35379     35381     35393     35394
     35379     35381     35393     35395     35379     35381     35393     35396
     35380     35379     35381     35382     35380     35379     35381     35383
     35380     35379     35381     35393     35381     35393     35396     35397
     35381     35393     35396     35398     35381     35393     35396     35399
     35382     35381     35393     35394     35382     35381     35393     35395
     35382     35381     35393     35396     35383     35381     35393     35394
     35383     35381     35393     35395     35383     35381     35393     35396
     35384     35387     35388     35389     35384     35387     35388     35390
     35385     35384     35387     35388     35386     35384     35387     35388
     35387     35388     35390     35391     35387     35388     35390     35392
     35387     35388     35390     35440     35388     35390     35440     35441
     35388     35390     35440     35442     35388     35390     35440     35443
     35389     35388     35390     35391     35389     35388     35390     35392
     35389     35388     35390     35440     35390     35440     35443     35444
     35390     35440     35443     35445     35390     35440     35443     35446
     35391     35390     35440     35441     35391     35390     35440     35442
     35391     35390     35440     35443     35392     35390     35440     35441
     35392     35390     35440     35442     35392     35390     35440     35443
     35393     35396     35399     35400     35393     35396     35399     35401
     35393     35396     35399     35402     35394     35393     35396     35397
     35394     35393     35396     35398     35394     35393     35396     35399
     35395     35393     35396     35397     35395     35393     35396     35398
     35395     35393     35396     35399     35396     35399     35402     35403
     35396     35399     35402     35404     35396     35399     35402     35405
     35397     35396     35399     35400     35397     35396     35399     35401
     35397     35396     35399     35402     35398     35396     35399     35400
     35398     35396     35399     35401     35398     35396     35399     35402
     35399     35402     35405     35406     35399     35402     35405     35407
     35399     35402     35405     35408     35400     35399     35402     35403
     35400     35399     35402     35404     35400     35399     35402     35405
     35401     35399     35402     35403     35401     35399     35402     35404
     35401     35399     35402     35405     35402     35405     35408     35409
     35402     35405     35408     35410     35402     35405     35408     35411
     35403     35402     35405     35406     35403     35402     35405     35407
     35403     35402     35405     35408     35404     35402     35405     35406
     35404     35402     35405     35407     35404     35402     35405     35408
     35405     35408     35411     35412     35405     35408     35411     35413
     35406     35405     35408     35409     35406     35405     35408     35410
     35406     35405     35408     35411     35407     35405     35408     35409
     35407     35405     35408     35410     35407     35405     35408     35411
     35408     35411     35413     35414     35408     35411     35413     35415
     35409     35408     35411     35412     35409     35408     35411     35413
     35410     35408     35411     35412     35410     35408     35411     35413
     35411     35413     35415     35416     35411     35413     35415     35417
     35411     35413     35415     35418     35412     35411     35413     35414
     35412     35411     35413     35415     35413     35415     35418     35419
     35413     35415     35418     35420     35413     35415     35418     35421
     35414     35413     35415     35416     35414     35413     35415     35417
     35414     35413     35415     35418     35415     35418     35421     35422
     35415     35418     35421     35423     35415     35418     35421     35424
     35416     35415     35418     35419     35416     35415     35418     35420
     35416     35415     35418     35421     35417     35415     35418     35419
     35417     35415     35418     35420     35417     35415     35418     35421
     35418     35421     35424     35425     35418     35421     35424     35426
     35418     35421     35424     35427     35419     35418     35421     35422
     35419     35418     35421     35423     35419     35418     35421     35424
     35420     35418     35421     35422     35420     35418     35421     35423
     35420     35418     35421     35424     35421     35424     35427     35428
     35421     35424     35427     35429     35421     35424     35427     35430
     35422     35421     35424     35425     35422     35421     35424     35426
     35422     35421     35424     35427     35423     35421     35424     35425
     35423     35421     35424     35426     35423     35421     35424     35427
     35424     35427     35430     35431     35424     35427     35430     35432
     35424     35427     35430     35433     35425     35424     35427     35428
     35425     35424     35427     35429     35425     35424     35427     35430
     35426     35424     35427     35428     35426     35424     35427     35429
     35426     35424     35427     35430     35427     35430     35433     35434
     35427     35430     35433     35435     35427     35430     35433     35436
     35428     35427     35430     35431     35428     35427     35430     35432
     35428     35427     35430     35433     35429     35427     35430     35431
     35429     35427     35430     35432     35429     35427     35430     35433
     35430     35433     35436     35437     35430     35433     35436     35438
     35430     35433     35436     35439     35431     35430     35433     35434
     35431     35430     35433     35435     35431     35430     35433     35436
     35432     35430     35433     35434     35432     35430     35433     35435
     35432     35430     35433     35436     35434     35433     35436     35437
     35434     35433     35436     35438     35434     35433     35436     35439
     35435     35433     35436     35437     35435     35433     35436     35438
     35435     35433     35436     35439     35440     35443     35446     35447
     35440     35443     35446     35448     35440     35443     35446     35449
     35441     35440     35443     35444     35441     35440     35443     35445
     35441     35440     35443     35446     35442     35440     35443     35444
     35442     35440     35443     35445     35442     35440     35443     35446
     35443     35446     35449     35450     35443     35446     35449     35451
     35443     35446     35449     35452     35444     35443     35446     35447
     35444     35443     35446     35448     35444     35443     35446     35449
     35445     35443     35446     35447     35445     35443     35446     35448
     35445     35443     35446     35449     35446     35449     35452     35453
     35446     35449     35452     35454     35446     35449     35452     35455
     35447     35446     35449     35450     35447     35446     35449     35451
     35447     35446     35449     35452     35448     35446     35449     35450
     35448     35446     35449     35451     35448     35446     35449     35452
     35449     35452     35455     35456     35449     35452     35455     35457
     35449     35452     35455     35458     35450     35449     35452     35453
     35450     35449     35452     35454     35450     35449     35452     35455
     35451     35449     35452     35453     35451     35449     35452     35454
     35451     35449     35452     35455     35452     35455     35458     35459
     35452     35455     35458     35460     35452     35455     35458     35461
     35453     35452     35455     35456     35453     35452     35455     35457
     35453     35452     35455     35458     35454     35452     35455     35456
     35454     35452     35455     35457     35454     35452     35455     35458
     35455     35458     35461     35462     35455     35458     35461     35463
     35455     35458     35461     35464     35456     35455     35458     35459
     35456     35455     35458     35460     35456     35455     35458     35461
     35457     35455     35458     35459     35457     35455     35458     35460
     35457     35455     35458     35461     35458     35461     35464     35465
     35458     35461     35464     35466     35458     35461     35464     35467
     35459     35458     35461     35462     35459     35458     35461     35463
     35459     35458     35461     35464     35460     35458     35461     35462
     35460     35458     35461     35463     35460     35458     35461     35464
     35461     35464     35467     35468     35461     35464     35467     35469
     35461     35464     35467     35470     35462     35461     35464     35465
     35462     35461     35464     35466     35462     35461     35464     35467
     35463     35461     35464     35465     35463     35461     35464     35466
     35463     35461     35464     35467     35464     35467     35470     35471
     35464     35467     35470     35472     35464     35467     35470     35473
     35465     35464     35467     35468     35465     35464     35467     35469
     35465     35464     35467     35470     35466     35464     35467     35468
     35466     35464     35467     35469     35466     35464     35467     35470
     35467     35470     35473     35474     35467     35470     35473     35475
     35467     35470     35473     35476     35468     35467     35470     35471
     35468     35467     35470     35472     35468     35467     35470     35473
     35469     35467     35470     35471     35469     35467     35470     35472
     35469     35467     35470     35473     35470     35473     35476     35477
     35470     35473     35476     35478     35470     35473     35476     35479
     35471     35470     35473     35474     35471     35470     35473     35475
     35471     35470     35473     35476     35472     35470     35473     35474
     35472     35470     35473     35475     35472     35470     35473     35476
     35473     35476     35479     35480     35473     35476     35479     35481
     35473     35476     35479     35482     35474     35473     35476     35477
     35474     35473     35476     35478     35474     35473     35476     35479
     35475     35473     35476     35477     35475     35473     35476     35478
     35475     35473     35476     35479     35477     35476     35479     35480
     35477     35476     35479     35481     35477     35476     35479     35482
     35478     35476     35479     35480     35478     35476     35479     35481
     35478     35476     35479     35482     35483     35484     35499     35500
     35483     35484     35499     35501     35483     35484     35499     35505
     35484     35483     35487     35488     35484     35483     35487     35489
     35484     35483     35487     35490     35484     35483     35491     35492
     35484     35483     35491     35493     35484     35483     35491     35494
     35484     35483     35495     35496     35484     35483     35495     35497
     35484     35483     35495     35498     35484     35499     35505     35502
     35485     35484     35483     35487     35485     35484     35483     35491
     35485     35484     35483     35495     35485     35484     35499     35500
     35485     35484     35499     35501     35485     35484     35499     35505
     35486     35484     35483     35487     35486     35484     35483     35491
     35486     35484     35483     35495     35486     35484     35499     35500
     35486     35484     35499     35501     35486     35484     35499     35505
     35487     35483     35484     35499     35487     35483     35491     35492
     35487     35483     35491     35493     35487     35483     35491     35494
     35487     35483     35495     35496     35487     35483     35495     35497
     35487     35483     35495     35498     35488     35487     35483     35491
     35488     35487     35483     35495     35489     35487     35483     35491
     35489     35487     35483     35495     35490     35487     35483     35491
     35490     35487     35483     35495     35491     35483     35484     35499
     35491     35483     35495     35496     35491     35483     35495     35497
     35491     35483     35495     35498     35492     35491     35483     35495
     35493     35491     35483     35495     35494     35491     35483     35495
     35495     35483     35484     35499     35499     35505     35502     35503
     35499     35505     35502     35504     35499     35505     35502     35506
     35500     35499     35505     35502     35501     35499     35505     35502
     35502     35506     35507     35508     35502     35506     35507     35509
     35502     35506     35507     35510     35503     35502     35506     35507
     35504     35502     35506     35507     35505     35502     35506     35507
     35506     35507     35510     35511     35506     35507     35510     35512
     35506     35507     35510     35518     35507     35510     35512     35513
     35507     35510     35518     35519     35507     35510     35518     35520
     35507     35510     35518     35521     35508     35507     35510     35511
     35508     35507     35510     35512     35508     35507     35510     35518
     35509     35507     35510     35511     35509     35507     35510     35512
     35509     35507     35510     35518     35510     35512     35513     35514
     35510     35512     35513     35515     35510     35518     35521     35522
     35511     35510     35512     35513     35511     35510     35518     35519
     35511     35510     35518     35520     35511     35510     35518     35521
     35512     35510     35518     35519     35512     35510     35518     35520
     35512     35510     35518     35521     35512     35513     35515     35516
     35512     35513     35515     35517     35512     35513     35515     35527
     35513     35512     35510     35518     35513     35515     35527     35528
     35513     35515     35527     35529     35513     35515     35527     35530
     35514     35513     35515     35516     35514     35513     35515     35517
     35514     35513     35515     35527     35515     35527     35530     35531
     35515     35527     35530     35532     35515     35527     35530     35533
     35516     35515     35527     35528     35516     35515     35527     35529
     35516     35515     35527     35530     35517     35515     35527     35528
     35517     35515     35527     35529     35517     35515     35527     35530
     35518     35521     35522     35523     35518     35521     35522     35524
     35519     35518     35521     35522     35520     35518     35521     35522
     35521     35522     35524     35525     35521     35522     35524     35526
     35521     35522     35524     35574     35522     35524     35574     35575
     35522     35524     35574     35576     35522     35524     35574     35577
     35523     35522     35524     35525     35523     35522     35524     35526
     35523     35522     35524     35574     35524     35574     35577     35578
     35524     35574     35577     35579     35524     35574     35577     35580
     35525     35524     35574     35575     35525     35524     35574     35576
     35525     35524     35574     35577     35526     35524     35574     35575
     35526     35524     35574     35576     35526     35524     35574     35577
     35527     35530     35533     35534     35527     35530     35533     35535
     35527     35530     35533     35536     35528     35527     35530     35531
     35528     35527     35530     35532     35528     35527     35530     35533
     35529     35527     35530     35531     35529     35527     35530     35532
     35529     35527     35530     35533     35530     35533     35536     35537
     35530     35533     35536     35538     35530     35533     35536     35539
     35531     35530     35533     35534     35531     35530     35533     35535
     35531     35530     35533     35536     35532     35530     35533     35534
     35532     35530     35533     35535     35532     35530     35533     35536
     35533     35536     35539     35540     35533     35536     35539     35541
     35533     35536     35539     35542     35534     35533     35536     35537
     35534     35533     35536     35538     35534     35533     35536     35539
     35535     35533     35536     35537     35535     35533     35536     35538
     35535     35533     35536     35539     35536     35539     35542     35543
     35536     35539     35542     35544     35536     35539     35542     35545
     35537     35536     35539     35540     35537     35536     35539     35541
     35537     35536     35539     35542     35538     35536     35539     35540
     35538     35536     35539     35541     35538     35536     35539     35542
     35539     35542     35545     35546     35539     35542     35545     35547
     35540     35539     35542     35543     35540     35539     35542     35544
     35540     35539     35542     35545     35541     35539     35542     35543
     35541     35539     35542     35544     35541     35539     35542     35545
     35542     35545     35547     35548     35542     35545     35547     35549
     35543     35542     35545     35546     35543     35542     35545     35547
     35544     35542     35545     35546     35544     35542     35545     35547
     35545     35547     35549     35550     35545     35547     35549     35551
     35545     35547     35549     35552     35546     35545     35547     35548
     35546     35545     35547     35549     35547     35549     35552     35553
     35547     35549     35552     35554     35547     35549     35552     35555
     35548     35547     35549     35550     35548     35547     35549     35551
     35548     35547     35549     35552     35549     35552     35555     35556
     35549     35552     35555     35557     35549     35552     35555     35558
     35550     35549     35552     35553     35550     35549     35552     35554
     35550     35549     35552     35555     35551     35549     35552     35553
     35551     35549     35552     35554     35551     35549     35552     35555
     35552     35555     35558     35559     35552     35555     35558     35560
     35552     35555     35558     35561     35553     35552     35555     35556
     35553     35552     35555     35557     35553     35552     35555     35558
     35554     35552     35555     35556     35554     35552     35555     35557
     35554     35552     35555     35558     35555     35558     35561     35562
     35555     35558     35561     35563     35555     35558     35561     35564
     35556     35555     35558     35559     35556     35555     35558     35560
     35556     35555     35558     35561     35557     35555     35558     35559
     35557     35555     35558     35560     35557     35555     35558     35561
     35558     35561     35564     35565     35558     35561     35564     35566
     35558     35561     35564     35567     35559     35558     35561     35562
     35559     35558     35561     35563     35559     35558     35561     35564
     35560     35558     35561     35562     35560     35558     35561     35563
     35560     35558     35561     35564     35561     35564     35567     35568
     35561     35564     35567     35569     35561     35564     35567     35570
     35562     35561     35564     35565     35562     35561     35564     35566
     35562     35561     35564     35567     35563     35561     35564     35565
     35563     35561     35564     35566     35563     35561     35564     35567
     35564     35567     35570     35571     35564     35567     35570     35572
     35564     35567     35570     35573     35565     35564     35567     35568
     35565     35564     35567     35569     35565     35564     35567     35570
     35566     35564     35567     35568     35566     35564     35567     35569
     35566     35564     35567     35570     35568     35567     35570     35571
     35568     35567     35570     35572     35568     35567     35570     35573
     35569     35567     35570     35571     35569     35567     35570     35572
     35569     35567     35570     35573     35574     35577     35580     35581
     35574     35577     35580     35582     35574     35577     35580     35583
     35575     35574     35577     35578     35575     35574     35577     35579
     35575     35574     35577     35580     35576     35574     35577     35578
     35576     35574     35577     35579     35576     35574     35577     35580
     35577     35580     35583     35584     35577     35580     35583     35585
     35577     35580     35583     35586     35578     35577     35580     35581
     35578     35577     35580     35582     35578     35577     35580     35583
     35579     35577     35580     35581     35579     35577     35580     35582
     35579     35577     35580     35583     35580     35583     35586     35587
     35580     35583     35586     35588     35580     35583     35586     35589
     35581     35580     35583     35584     35581     35580     35583     35585
     35581     35580     35583     35586     35582     35580     35583     35584
     35582     35580     35583     35585     35582     35580     35583     35586
     35583     35586     35589     35590     35583     35586     35589     35591
     35583     35586     35589     35592     35584     35583     35586     35587
     35584     35583     35586     35588     35584     35583     35586     35589
     35585     35583     35586     35587     35585     35583     35586     35588
     35585     35583     35586     35589     35586     35589     35592     35593
     35586     35589     35592     35594     35586     35589     35592     35595
     35587     35586     35589     35590     35587     35586     35589     35591
     35587     35586     35589     35592     35588     35586     35589     35590
     35588     35586     35589     35591     35588     35586     35589     35592
     35589     35592     35595     35596     35589     35592     35595     35597
     35589     35592     35595     35598     35590     35589     35592     35593
     35590     35589     35592     35594     35590     35589     35592     35595
     35591     35589     35592     35593     35591     35589     35592     35594
     35591     35589     35592     35595     35592     35595     35598     35599
     35592     35595     35598     35600     35592     35595     35598     35601
     35593     35592     35595     35596     35593     35592     35595     35597
     35593     35592     35595     35598     35594     35592     35595     35596
     35594     35592     35595     35597     35594     35592     35595     35598
     35595     35598     35601     35602     35595     35598     35601     35603
     35595     35598     35601     35604     35596     35595     35598     35599
     35596     35595     35598     35600     35596     35595     35598     35601
     35597     35595     35598     35599     35597     35595     35598     35600
     35597     35595     35598     35601     35598     35601     35604     35605
     35598     35601     35604     35606     35598     35601     35604     35607
     35599     35598     35601     35602     35599     35598     35601     35603
     35599     35598     35601     35604     35600     35598     35601     35602
     35600     35598     35601     35603     35600     35598     35601     35604
     35601     35604     35607     35608     35601     35604     35607     35609
     35601     35604     35607     35610     35602     35601     35604     35605
     35602     35601     35604     35606     35602     35601     35604     35607
     35603     35601     35604     35605     35603     35601     35604     35606
     35603     35601     35604     35607     35604     35607     35610     35611
     35604     35607     35610     35612     35604     35607     35610     35613
     35605     35604     35607     35608     35605     35604     35607     35609
     35605     35604     35607     35610     35606     35604     35607     35608
     35606     35604     35607     35609     35606     35604     35607     35610
     35607     35610     35613     35614     35607     35610     35613     35615
     35607     35610     35613     35616     35608     35607     35610     35611
     35608     35607     35610     35612     35608     35607     35610     35613
     35609     35607     35610     35611     35609     35607     35610     35612
     35609     35607     35610     35613     35611     35610     35613     35614
     35611     35610     35613     35615     35611     35610     35613     35616
     35612     35610     35613     35614     35612     35610     35613     35615
     35612     35610     35613     35616     35617     35618     35633     35634
     35617     35618     35633     35635     35617     35618     35633     35639
     35618     35617     35621     35622     35618     35617     35621     35623
     35618     35617     35621     35624     35618     35617     35625     35626
     35618     35617     35625     35627     35618     35617     35625     35628
     35618     35617     35629     35630     35618     35617     35629     35631
     35618     35617     35629     35632     35618     35633     35639     35636
     35619     35618     35617     35621     35619     35618     35617     35625
     35619     35618     35617     35629     35619     35618     35633     35634
     35619     35618     35633     35635     35619     35618     35633     35639
     35620     35618     35617     35621     35620     35618     35617     35625
     35620     35618     35617     35629     35620     35618     35633     35634
     35620     35618     35633     35635     35620     35618     35633     35639
     35621     35617     35618     35633     35621     35617     35625     35626
     35621     35617     35625     35627     35621     35617     35625     35628
     35621     35617     35629     35630     35621     35617     35629     35631
     35621     35617     35629     35632     35622     35621     35617     35625
     35622     35621     35617     35629     35623     35621     35617     35625
     35623     35621     35617     35629     35624     35621     35617     35625
     35624     35621     35617     35629     35625     35617     35618     35633
     35625     35617     35629     35630     35625     35617     35629     35631
     35625     35617     35629     35632     35626     35625     35617     35629
     35627     35625     35617     35629     35628     35625     35617     35629
     35629     35617     35618     35633     35633     35639     35636     35637
     35633     35639     35636     35638     35633     35639     35636     35640
     35634     35633     35639     35636     35635     35633     35639     35636
     35636     35640     35641     35642     35636     35640     35641     35643
     35636     35640     35641     35644     35637     35636     35640     35641
     35638     35636     35640     35641     35639     35636     35640     35641
     35640     35641     35644     35645     35640     35641     35644     35646
     35640     35641     35644     35652     35641     35644     35646     35647
     35641     35644     35652     35653     35641     35644     35652     35654
     35641     35644     35652     35655     35642     35641     35644     35645
     35642     35641     35644     35646     35642     35641     35644     35652
     35643     35641     35644     35645     35643     35641     35644     35646
     35643     35641     35644     35652     35644     35646     35647     35648
     35644     35646     35647     35649     35644     35652     35655     35656
     35645     35644     35646     35647     35645     35644     35652     35653
     35645     35644     35652     35654     35645     35644     35652     35655
     35646     35644     35652     35653     35646     35644     35652     35654
     35646     35644     35652     35655     35646     35647     35649     35650
     35646     35647     35649     35651     35646     35647     35649     35661
     35647     35646     35644     35652     35647     35649     35661     35662
     35647     35649     35661     35663     35647     35649     35661     35664
     35648     35647     35649     35650     35648     35647     35649     35651
     35648     35647     35649     35661     35649     35661     35664     35665
     35649     35661     35664     35666     35649     35661     35664     35667
     35650     35649     35661     35662     35650     35649     35661     35663
     35650     35649     35661     35664     35651     35649     35661     35662
     35651     35649     35661     35663     35651     35649     35661     35664
     35652     35655     35656     35657     35652     35655     35656     35658
     35653     35652     35655     35656     35654     35652     35655     35656
     35655     35656     35658     35659     35655     35656     35658     35660
     35655     35656     35658     35708     35656     35658     35708     35709
     35656     35658     35708     35710     35656     35658     35708     35711
     35657     35656     35658     35659     35657     35656     35658     35660
     35657     35656     35658     35708     35658     35708     35711     35712
     35658     35708     35711     35713     35658     35708     35711     35714
     35659     35658     35708     35709     35659     35658     35708     35710
     35659     35658     35708     35711     35660     35658     35708     35709
     35660     35658     35708     35710     35660     35658     35708     35711
     35661     35664     35667     35668     35661     35664     35667     35669
     35661     35664     35667     35670     35662     35661     35664     35665
     35662     35661     35664     35666     35662     35661     35664     35667
     35663     35661     35664     35665     35663     35661     35664     35666
     35663     35661     35664     35667     35664     35667     35670     35671
     35664     35667     35670     35672     35664     35667     35670     35673
     35665     35664     35667     35668     35665     35664     35667     35669
     35665     35664     35667     35670     35666     35664     35667     35668
     35666     35664     35667     35669     35666     35664     35667     35670
     35667     35670     35673     35674     35667     35670     35673     35675
     35667     35670     35673     35676     35668     35667     35670     35671
     35668     35667     35670     35672     35668     35667     35670     35673
     35669     35667     35670     35671     35669     35667     35670     35672
     35669     35667     35670     35673     35670     35673     35676     35677
     35670     35673     35676     35678     35670     35673     35676     35679
     35671     35670     35673     35674     35671     35670     35673     35675
     35671     35670     35673     35676     35672     35670     35673     35674
     35672     35670     35673     35675     35672     35670     35673     35676
     35673     35676     35679     35680     35673     35676     35679     35681
     35674     35673     35676     35677     35674     35673     35676     35678
     35674     35673     35676     35679     35675     35673     35676     35677
     35675     35673     35676     35678     35675     35673     35676     35679
     35676     35679     35681     35682     35676     35679     35681     35683
     35677     35676     35679     35680     35677     35676     35679     35681
     35678     35676     35679     35680     35678     35676     35679     35681
     35679     35681     35683     35684     35679     35681     35683     35685
     35679     35681     35683     35686     35680     35679     35681     35682
     35680     35679     35681     35683     35681     35683     35686     35687
     35681     35683     35686     35688     35681     35683     35686     35689
     35682     35681     35683     35684     35682     35681     35683     35685
     35682     35681     35683     35686     35683     35686     35689     35690
     35683     35686     35689     35691     35683     35686     35689     35692
     35684     35683     35686     35687     35684     35683     35686     35688
     35684     35683     35686     35689     35685     35683     35686     35687
     35685     35683     35686     35688     35685     35683     35686     35689
     35686     35689     35692     35693     35686     35689     35692     35694
     35686     35689     35692     35695     35687     35686     35689     35690
     35687     35686     35689     35691     35687     35686     35689     35692
     35688     35686     35689     35690     35688     35686     35689     35691
     35688     35686     35689     35692     35689     35692     35695     35696
     35689     35692     35695     35697     35689     35692     35695     35698
     35690     35689     35692     35693     35690     35689     35692     35694
     35690     35689     35692     35695     35691     35689     35692     35693
     35691     35689     35692     35694     35691     35689     35692     35695
     35692     35695     35698     35699     35692     35695     35698     35700
     35692     35695     35698     35701     35693     35692     35695     35696
     35693     35692     35695     35697     35693     35692     35695     35698
     35694     35692     35695     35696     35694     35692     35695     35697
     35694     35692     35695     35698     35695     35698     35701     35702
     35695     35698     35701     35703     35695     35698     35701     35704
     35696     35695     35698     35699     35696     35695     35698     35700
     35696     35695     35698     35701     35697     35695     35698     35699
     35697     35695     35698     35700     35697     35695     35698     35701
     35698     35701     35704     35705     35698     35701     35704     35706
     35698     35701     35704     35707     35699     35698     35701     35702
     35699     35698     35701     35703     35699     35698     35701     35704
     35700     35698     35701     35702     35700     35698     35701     35703
     35700     35698     35701     35704     35702     35701     35704     35705
     35702     35701     35704     35706     35702     35701     35704     35707
     35703     35701     35704     35705     35703     35701     35704     35706
     35703     35701     35704     35707     35708     35711     35714     35715
     35708     35711     35714     35716     35708     35711     35714     35717
     35709     35708     35711     35712     35709     35708     35711     35713
     35709     35708     35711     35714     35710     35708     35711     35712
     35710     35708     35711     35713     35710     35708     35711     35714
     35711     35714     35717     35718     35711     35714     35717     35719
     35711     35714     35717     35720     35712     35711     35714     35715
     35712     35711     35714     35716     35712     35711     35714     35717
     35713     35711     35714     35715     35713     35711     35714     35716
     35713     35711     35714     35717     35714     35717     35720     35721
     35714     35717     35720     35722     35714     35717     35720     35723
     35715     35714     35717     35718     35715     35714     35717     35719
     35715     35714     35717     35720     35716     35714     35717     35718
     35716     35714     35717     35719     35716     35714     35717     35720
     35717     35720     35723     35724     35717     35720     35723     35725
     35717     35720     35723     35726     35718     35717     35720     35721
     35718     35717     35720     35722     35718     35717     35720     35723
     35719     35717     35720     35721     35719     35717     35720     35722
     35719     35717     35720     35723     35720     35723     35726     35727
     35720     35723     35726     35728     35720     35723     35726     35729
     35721     35720     35723     35724     35721     35720     35723     35725
     35721     35720     35723     35726     35722     35720     35723     35724
     35722     35720     35723     35725     35722     35720     35723     35726
     35723     35726     35729     35730     35723     35726     35729     35731
     35723     35726     35729     35732     35724     35723     35726     35727
     35724     35723     35726     35728     35724     35723     35726     35729
     35725     35723     35726     35727     35725     35723     35726     35728
     35725     35723     35726     35729     35726     35729     35732     35733
     35726     35729     35732     35734     35726     35729     35732     35735
     35727     35726     35729     35730     35727     35726     35729     35731
     35727     35726     35729     35732     35728     35726     35729     35730
     35728     35726     35729     35731     35728     35726     35729     35732
     35729     35732     35735     35736     35729     35732     35735     35737
     35729     35732     35735     35738     35730     35729     35732     35733
     35730     35729     35732     35734     35730     35729     35732     35735
     35731     35729     35732     35733     35731     35729     35732     35734
     35731     35729     35732     35735     35732     35735     35738     35739
     35732     35735     35738     35740     35732     35735     35738     35741
     35733     35732     35735     35736     35733     35732     35735     35737
     35733     35732     35735     35738     35734     35732     35735     35736
     35734     35732     35735     35737     35734     35732     35735     35738
     35735     35738     35741     35742     35735     35738     35741     35743
     35735     35738     35741     35744     35736     35735     35738     35739
     35736     35735     35738     35740     35736     35735     35738     35741
     35737     35735     35738     35739     35737     35735     35738     35740
     35737     35735     35738     35741     35738     35741     35744     35745
     35738     35741     35744     35746     35738     35741     35744     35747
     35739     35738     35741     35742     35739     35738     35741     35743
     35739     35738     35741     35744     35740     35738     35741     35742
     35740     35738     35741     35743     35740     35738     35741     35744
     35741     35744     35747     35748     35741     35744     35747     35749
     35741     35744     35747     35750     35742     35741     35744     35745
     35742     35741     35744     35746     35742     35741     35744     35747
     35743     35741     35744     35745     35743     35741     35744     35746
     35743     35741     35744     35747     35745     35744     35747     35748
     35745     35744     35747     35749     35745     35744     35747     35750
     35746     35744     35747     35748     35746     35744     35747     35749
     35746     35744     35747     35750     35751     35752     35767     35768
     35751     35752     35767     35769     35751     35752     35767     35773
     35752     35751     35755     35756     35752     35751     35755     35757
     35752     35751     35755     35758     35752     35751     35759     35760
     35752     35751     35759     35761     35752     35751     35759     35762
     35752     35751     35763     35764     35752     35751     35763     35765
     35752     35751     35763     35766     35752     35767     35773     35770
     35753     35752     35751     35755     35753     35752     35751     35759
     35753     35752     35751     35763     35753     35752     35767     35768
     35753     35752     35767     35769     35753     35752     35767     35773
     35754     35752     35751     35755     35754     35752     35751     35759
     35754     35752     35751     35763     35754     35752     35767     35768
     35754     35752     35767     35769     35754     35752     35767     35773
     35755     35751     35752     35767     35755     35751     35759     35760
     35755     35751     35759     35761     35755     35751     35759     35762
     35755     35751     35763     35764     35755     35751     35763     35765
     35755     35751     35763     35766     35756     35755     35751     35759
     35756     35755     35751     35763     35757     35755     35751     35759
     35757     35755     35751     35763     35758     35755     35751     35759
     35758     35755     35751     35763     35759     35751     35752     35767
     35759     35751     35763     35764     35759     35751     35763     35765
     35759     35751     35763     35766     35760     35759     35751     35763
     35761     35759     35751     35763     35762     35759     35751     35763
     35763     35751     35752     35767     35767     35773     35770     35771
     35767     35773     35770     35772     35767     35773     35770     35774
     35768     35767     35773     35770     35769     35767     35773     35770
     35770     35774     35775     35776     35770     35774     35775     35777
     35770     35774     35775     35778     35771     35770     35774     35775
     35772     35770     35774     35775     35773     35770     35774     35775
     35774     35775     35778     35779     35774     35775     35778     35780
     35774     35775     35778     35786     35775     35778     35780     35781
     35775     35778     35786     35787     35775     35778     35786     35788
     35775     35778     35786     35789     35776     35775     35778     35779
     35776     35775     35778     35780     35776     35775     35778     35786
     35777     35775     35778     35779     35777     35775     35778     35780
     35777     35775     35778     35786     35778     35780     35781     35782
     35778     35780     35781     35783     35778     35786     35789     35790
     35779     35778     35780     35781     35779     35778     35786     35787
     35779     35778     35786     35788     35779     35778     35786     35789
     35780     35778     35786     35787     35780     35778     35786     35788
     35780     35778     35786     35789     35780     35781     35783     35784
     35780     35781     35783     35785     35780     35781     35783     35795
     35781     35780     35778     35786     35781     35783     35795     35796
     35781     35783     35795     35797     35781     35783     35795     35798
     35782     35781     35783     35784     35782     35781     35783     35785
     35782     35781     35783     35795     35783     35795     35798     35799
     35783     35795     35798     35800     35783     35795     35798     35801
     35784     35783     35795     35796     35784     35783     35795     35797
     35784     35783     35795     35798     35785     35783     35795     35796
     35785     35783     35795     35797     35785     35783     35795     35798
     35786     35789     35790     35791     35786     35789     35790     35792
     35787     35786     35789     35790     35788     35786     35789     35790
     35789     35790     35792     35793     35789     35790     35792     35794
     35789     35790     35792     35842     35790     35792     35842     35843
     35790     35792     35842     35844     35790     35792     35842     35845
     35791     35790     35792     35793     35791     35790     35792     35794
     35791     35790     35792     35842     35792     35842     35845     35846
     35792     35842     35845     35847     35792     35842     35845     35848
     35793     35792     35842     35843     35793     35792     35842     35844
     35793     35792     35842     35845     35794     35792     35842     35843
     35794     35792     35842     35844     35794     35792     35842     35845
     35795     35798     35801     35802     35795     35798     35801     35803
     35795     35798     35801     35804     35796     35795     35798     35799
     35796     35795     35798     35800     35796     35795     35798     35801
     35797     35795     35798     35799     35797     35795     35798     35800
     35797     35795     35798     35801     35798     35801     35804     35805
     35798     35801     35804     35806     35798     35801     35804     35807
     35799     35798     35801     35802     35799     35798     35801     35803
     35799     35798     35801     35804     35800     35798     35801     35802
     35800     35798     35801     35803     35800     35798     35801     35804
     35801     35804     35807     35808     35801     35804     35807     35809
     35801     35804     35807     35810     35802     35801     35804     35805
     35802     35801     35804     35806     35802     35801     35804     35807
     35803     35801     35804     35805     35803     35801     35804     35806
     35803     35801     35804     35807     35804     35807     35810     35811
     35804     35807     35810     35812     35804     35807     35810     35813
     35805     35804     35807     35808     35805     35804     35807     35809
     35805     35804     35807     35810     35806     35804     35807     35808
     35806     35804     35807     35809     35806     35804     35807     35810
     35807     35810     35813     35814     35807     35810     35813     35815
     35808     35807     35810     35811     35808     35807     35810     35812
     35808     35807     35810     35813     35809     35807     35810     35811
     35809     35807     35810     35812     35809     35807     35810     35813
     35810     35813     35815     35816     35810     35813     35815     35817
     35811     35810     35813     35814     35811     35810     35813     35815
     35812     35810     35813     35814     35812     35810     35813     35815
     35813     35815     35817     35818     35813     35815     35817     35819
     35813     35815     35817     35820     35814     35813     35815     35816
     35814     35813     35815     35817     35815     35817     35820     35821
     35815     35817     35820     35822     35815     35817     35820     35823
     35816     35815     35817     35818     35816     35815     35817     35819
     35816     35815     35817     35820     35817     35820     35823     35824
     35817     35820     35823     35825     35817     35820     35823     35826
     35818     35817     35820     35821     35818     35817     35820     35822
     35818     35817     35820     35823     35819     35817     35820     35821
     35819     35817     35820     35822     35819     35817     35820     35823
     35820     35823     35826     35827     35820     35823     35826     35828
     35820     35823     35826     35829     35821     35820     35823     35824
     35821     35820     35823     35825     35821     35820     35823     35826
     35822     35820     35823     35824     35822     35820     35823     35825
     35822     35820     35823     35826     35823     35826     35829     35830
     35823     35826     35829     35831     35823     35826     35829     35832
     35824     35823     35826     35827     35824     35823     35826     35828
     35824     35823     35826     35829     35825     35823     35826     35827
     35825     35823     35826     35828     35825     35823     35826     35829
     35826     35829     35832     35833     35826     35829     35832     35834
     35826     35829     35832     35835     35827     35826     35829     35830
     35827     35826     35829     35831     35827     35826     35829     35832
     35828     35826     35829     35830     35828     35826     35829     35831
     35828     35826     35829     35832     35829     35832     35835     35836
     35829     35832     35835     35837     35829     35832     35835     35838
     35830     35829     35832     35833     35830     35829     35832     35834
     35830     35829     35832     35835     35831     35829     35832     35833
     35831     35829     35832     35834     35831     35829     35832     35835
     35832     35835     35838     35839     35832     35835     35838     35840
     35832     35835     35838     35841     35833     35832     35835     35836
     35833     35832     35835     35837     35833     35832     35835     35838
     35834     35832     35835     35836     35834     35832     35835     35837
     35834     35832     35835     35838     35836     35835     35838     35839
     35836     35835     35838     35840     35836     35835     35838     35841
     35837     35835     35838     35839     35837     35835     35838     35840
     35837     35835     35838     35841     35842     35845     35848     35849
     35842     35845     35848     35850     35842     35845     35848     35851
     35843     35842     35845     35846     35843     35842     35845     35847
     35843     35842     35845     35848     35844     35842     35845     35846
     35844     35842     35845     35847     35844     35842     35845     35848
     35845     35848     35851     35852     35845     35848     35851     35853
     35845     35848     35851     35854     35846     35845     35848     35849
     35846     35845     35848     35850     35846     35845     35848     35851
     35847     35845     35848     35849     35847     35845     35848     35850
     35847     35845     35848     35851     35848     35851     35854     35855
     35848     35851     35854     35856     35848     35851     35854     35857
     35849     35848     35851     35852     35849     35848     35851     35853
     35849     35848     35851     35854     35850     35848     35851     35852
     35850     35848     35851     35853     35850     35848     35851     35854
     35851     35854     35857     35858     35851     35854     35857     35859
     35851     35854     35857     35860     35852     35851     35854     35855
     35852     35851     35854     35856     35852     35851     35854     35857
     35853     35851     35854     35855     35853     35851     35854     35856
     35853     35851     35854     35857     35854     35857     35860     35861
     35854     35857     35860     35862     35854     35857     35860     35863
     35855     35854     35857     35858     35855     35854     35857     35859
     35855     35854     35857     35860     35856     35854     35857     35858
     35856     35854     35857     35859     35856     35854     35857     35860
     35857     35860     35863     35864     35857     35860     35863     35865
     35857     35860     35863     35866     35858     35857     35860     35861
     35858     35857     35860     35862     35858     35857     35860     35863
     35859     35857     35860     35861     35859     35857     35860     35862
     35859     35857     35860     35863     35860     35863     35866     35867
     35860     35863     35866     35868     35860     35863     35866     35869
     35861     35860     35863     35864     35861     35860     35863     35865
     35861     35860     35863     35866     35862     35860     35863     35864
     35862     35860     35863     35865     35862     35860     35863     35866
     35863     35866     35869     35870     35863     35866     35869     35871
     35863     35866     35869     35872     35864     35863     35866     35867
     35864     35863     35866     35868     35864     35863     35866     35869
     35865     35863     35866     35867     35865     35863     35866     35868
     35865     35863     35866     35869     35866     35869     35872     35873
     35866     35869     35872     35874     35866     35869     35872     35875
     35867     35866     35869     35870     35867     35866     35869     35871
     35867     35866     35869     35872     35868     35866     35869     35870
     35868     35866     35869     35871     35868     35866     35869     35872
     35869     35872     35875     35876     35869     35872     35875     35877
     35869     35872     35875     35878     35870     35869     35872     35873
     35870     35869     35872     35874     35870     35869     35872     35875
     35871     35869     35872     35873     35871     35869     35872     35874
     35871     35869     35872     35875     35872     35875     35878     35879
     35872     35875     35878     35880     35872     35875     35878     35881
     35873     35872     35875     35876     35873     35872     35875     35877
     35873     35872     35875     35878     35874     35872     35875     35876
     35874     35872     35875     35877     35874     35872     35875     35878
     35875     35878     35881     35882     35875     35878     35881     35883
     35875     35878     35881     35884     35876     35875     35878     35879
     35876     35875     35878     35880     35876     35875     35878     35881
     35877     35875     35878     35879     35877     35875     35878     35880
     35877     35875     35878     35881     35879     35878     35881     35882
     35879     35878     35881     35883     35879     35878     35881     35884
     35880     35878     35881     35882     35880     35878     35881     35883
     35880     35878     35881     35884     35885     35886     35901     35902
     35885     35886     35901     35903     35885     35886     35901     35907
     35886     35885     35889     35890     35886     35885     35889     35891
     35886     35885     35889     35892     35886     35885     35893     35894
     35886     35885     35893     35895     35886     35885     35893     35896
     35886     35885     35897     35898     35886     35885     35897     35899
     35886     35885     35897     35900     35886     35901     35907     35904
     35887     35886     35885     35889     35887     35886     35885     35893
     35887     35886     35885     35897     35887     35886     35901     35902
     35887     35886     35901     35903     35887     35886     35901     35907
     35888     35886     35885     35889     35888     35886     35885     35893
     35888     35886     35885     35897     35888     35886     35901     35902
     35888     35886     35901     35903     35888     35886     35901     35907
     35889     35885     35886     35901     35889     35885     35893     35894
     35889     35885     35893     35895     35889     35885     35893     35896
     35889     35885     35897     35898     35889     35885     35897     35899
     35889     35885     35897     35900     35890     35889     35885     35893
     35890     35889     35885     35897     35891     35889     35885     35893
     35891     35889     35885     35897     35892     35889     35885     35893
     35892     35889     35885     35897     35893     35885     35886     35901
     35893     35885     35897     35898     35893     35885     35897     35899
     35893     35885     35897     35900     35894     35893     35885     35897
     35895     35893     35885     35897     35896     35893     35885     35897
     35897     35885     35886     35901     35901     35907     35904     35905
     35901     35907     35904     35906     35901     35907     35904     35908
     35902     35901     35907     35904     35903     35901     35907     35904
     35904     35908     35909     35910     35904     35908     35909     35911
     35904     35908     35909     35912     35905     35904     35908     35909
     35906     35904     35908     35909     35907     35904     35908     35909
     35908     35909     35912     35913     35908     35909     35912     35914
     35908     35909     35912     35920     35909     35912     35914     35915
     35909     35912     35920     35921     35909     35912     35920     35922
     35909     35912     35920     35923     35910     35909     35912     35913
     35910     35909     35912     35914     35910     35909     35912     35920
     35911     35909     35912     35913     35911     35909     35912     35914
     35911     35909     35912     35920     35912     35914     35915     35916
     35912     35914     35915     35917     35912     35920     35923     35924
     35913     35912     35914     35915     35913     35912     35920     35921
     35913     35912     35920     35922     35913     35912     35920     35923
     35914     35912     35920     35921     35914     35912     35920     35922
     35914     35912     35920     35923     35914     35915     35917     35918
     35914     35915     35917     35919     35914     35915     35917     35929
     35915     35914     35912     35920     35915     35917     35929     35930
     35915     35917     35929     35931     35915     35917     35929     35932
     35916     35915     35917     35918     35916     35915     35917     35919
     35916     35915     35917     35929     35917     35929     35932     35933
     35917     35929     35932     35934     35917     35929     35932     35935
     35918     35917     35929     35930     35918     35917     35929     35931
     35918     35917     35929     35932     35919     35917     35929     35930
     35919     35917     35929     35931     35919     35917     35929     35932
     35920     35923     35924     35925     35920     35923     35924     35926
     35921     35920     35923     35924     35922     35920     35923     35924
     35923     35924     35926     35927     35923     35924     35926     35928
     35923     35924     35926     35976     35924     35926     35976     35977
     35924     35926     35976     35978     35924     35926     35976     35979
     35925     35924     35926     35927     35925     35924     35926     35928
     35925     35924     35926     35976     35926     35976     35979     35980
     35926     35976     35979     35981     35926     35976     35979     35982
     35927     35926     35976     35977     35927     35926     35976     35978
     35927     35926     35976     35979     35928     35926     35976     35977
     35928     35926     35976     35978     35928     35926     35976     35979
     35929     35932     35935     35936     35929     35932     35935     35937
     35929     35932     35935     35938     35930     35929     35932     35933
     35930     35929     35932     35934     35930     35929     35932     35935
     35931     35929     35932     35933     35931     35929     35932     35934
     35931     35929     35932     35935     35932     35935     35938     35939
     35932     35935     35938     35940     35932     35935     35938     35941
     35933     35932     35935     35936     35933     35932     35935     35937
     35933     35932     35935     35938     35934     35932     35935     35936
     35934     35932     35935     35937     35934     35932     35935     35938
     35935     35938     35941     35942     35935     35938     35941     35943
     35935     35938     35941     35944     35936     35935     35938     35939
     35936     35935     35938     35940     35936     35935     35938     35941
     35937     35935     35938     35939     35937     35935     35938     35940
     35937     35935     35938     35941     35938     35941     35944     35945
     35938     35941     35944     35946     35938     35941     35944     35947
     35939     35938     35941     35942     35939     35938     35941     35943
     35939     35938     35941     35944     35940     35938     35941     35942
     35940     35938     35941     35943     35940     35938     35941     35944
     35941     35944     35947     35948     35941     35944     35947     35949
     35942     35941     35944     35945     35942     35941     35944     35946
     35942     35941     35944     35947     35943     35941     35944     35945
     35943     35941     35944     35946     35943     35941     35944     35947
     35944     35947     35949     35950     35944     35947     35949     35951
     35945     35944     35947     35948     35945     35944     35947     35949
     35946     35944     35947     35948     35946     35944     35947     35949
     35947     35949     35951     35952     35947     35949     35951     35953
     35947     35949     35951     35954     35948     35947     35949     35950
     35948     35947     35949     35951     35949     35951     35954     35955
     35949     35951     35954     35956     35949     35951     35954     35957
     35950     35949     35951     35952     35950     35949     35951     35953
     35950     35949     35951     35954     35951     35954     35957     35958
     35951     35954     35957     35959     35951     35954     35957     35960
     35952     35951     35954     35955     35952     35951     35954     35956
     35952     35951     35954     35957     35953     35951     35954     35955
     35953     35951     35954     35956     35953     35951     35954     35957
     35954     35957     35960     35961     35954     35957     35960     35962
     35954     35957     35960     35963     35955     35954     35957     35958
     35955     35954     35957     35959     35955     35954     35957     35960
     35956     35954     35957     35958     35956     35954     35957     35959
     35956     35954     35957     35960     35957     35960     35963     35964
     35957     35960     35963     35965     35957     35960     35963     35966
     35958     35957     35960     35961     35958     35957     35960     35962
     35958     35957     35960     35963     35959     35957     35960     35961
     35959     35957     35960     35962     35959     35957     35960     35963
     35960     35963     35966     35967     35960     35963     35966     35968
     35960     35963     35966     35969     35961     35960     35963     35964
     35961     35960     35963     35965     35961     35960     35963     35966
     35962     35960     35963     35964     35962     35960     35963     35965
     35962     35960     35963     35966     35963     35966     35969     35970
     35963     35966     35969     35971     35963     35966     35969     35972
     35964     35963     35966     35967     35964     35963     35966     35968
     35964     35963     35966     35969     35965     35963     35966     35967
     35965     35963     35966     35968     35965     35963     35966     35969
     35966     35969     35972     35973     35966     35969     35972     35974
     35966     35969     35972     35975     35967     35966     35969     35970
     35967     35966     35969     35971     35967     35966     35969     35972
     35968     35966     35969     35970     35968     35966     35969     35971
     35968     35966     35969     35972     35970     35969     35972     35973
     35970     35969     35972     35974     35970     35969     35972     35975
     35971     35969     35972     35973     35971     35969     35972     35974
     35971     35969     35972     35975     35976     35979     35982     35983
     35976     35979     35982     35984     35976     35979     35982     35985
     35977     35976     35979     35980     35977     35976     35979     35981
     35977     35976     35979     35982     35978     35976     35979     35980
     35978     35976     35979     35981     35978     35976     35979     35982
     35979     35982     35985     35986     35979     35982     35985     35987
     35979     35982     35985     35988     35980     35979     35982     35983
     35980     35979     35982     35984     35980     35979     35982     35985
     35981     35979     35982     35983     35981     35979     35982     35984
     35981     35979     35982     35985     35982     35985     35988     35989
     35982     35985     35988     35990     35982     35985     35988     35991
     35983     35982     35985     35986     35983     35982     35985     35987
     35983     35982     35985     35988     35984     35982     35985     35986
     35984     35982     35985     35987     35984     35982     35985     35988
     35985     35988     35991     35992     35985     35988     35991     35993
     35985     35988     35991     35994     35986     35985     35988     35989
     35986     35985     35988     35990     35986     35985     35988     35991
     35987     35985     35988     35989     35987     35985     35988     35990
     35987     35985     35988     35991     35988     35991     35994     35995
     35988     35991     35994     35996     35988     35991     35994     35997
     35989     35988     35991     35992     35989     35988     35991     35993
     35989     35988     35991     35994     35990     35988     35991     35992
     35990     35988     35991     35993     35990     35988     35991     35994
     35991     35994     35997     35998     35991     35994     35997     35999
     35991     35994     35997     36000     35992     35991     35994     35995
     35992     35991     35994     35996     35992     35991     35994     35997
     35993     35991     35994     35995     35993     35991     35994     35996
     35993     35991     35994     35997     35994     35997     36000     36001
     35994     35997     36000     36002     35994     35997     36000     36003
     35995     35994     35997     35998     35995     35994     35997     35999
     35995     35994     35997     36000     35996     35994     35997     35998
     35996     35994     35997     35999     35996     35994     35997     36000
     35997     36000     36003     36004     35997     36000     36003     36005
     35997     36000     36003     36006     35998     35997     36000     36001
     35998     35997     36000     36002     35998     35997     36000     36003
     35999     35997     36000     36001     35999     35997     36000     36002
     35999     35997     36000     36003     36000     36003     36006     36007
     36000     36003     36006     36008     36000     36003     36006     36009
     36001     36000     36003     36004     36001     36000     36003     36005
     36001     36000     36003     36006     36002     36000     36003     36004
     36002     36000     36003     36005     36002     36000     36003     36006
     36003     36006     36009     36010     36003     36006     36009     36011
     36003     36006     36009     36012     36004     36003     36006     36007
     36004     36003     36006     36008     36004     36003     36006     36009
     36005     36003     36006     36007     36005     36003     36006     36008
     36005     36003     36006     36009     36006     36009     36012     36013
     36006     36009     36012     36014     36006     36009     36012     36015
     36007     36006     36009     36010     36007     36006     36009     36011
     36007     36006     36009     36012     36008     36006     36009     36010
     36008     36006     36009     36011     36008     36006     36009     36012
     36009     36012     36015     36016     36009     36012     36015     36017
     36009     36012     36015     36018     36010     36009     36012     36013
     36010     36009     36012     36014     36010     36009     36012     36015
     36011     36009     36012     36013     36011     36009     36012     36014
     36011     36009     36012     36015     36013     36012     36015     36016
     36013     36012     36015     36017     36013     36012     36015     36018
     36014     36012     36015     36016     36014     36012     36015     36017
     36014     36012     36015     36018     36019     36020     36035     36036
     36019     36020     36035     36037     36019     36020     36035     36041
     36020     36019     36023     36024     36020     36019     36023     36025
     36020     36019     36023     36026     36020     36019     36027     36028
     36020     36019     36027     36029     36020     36019     36027     36030
     36020     36019     36031     36032     36020     36019     36031     36033
     36020     36019     36031     36034     36020     36035     36041     36038
     36021     36020     36019     36023     36021     36020     36019     36027
     36021     36020     36019     36031     36021     36020     36035     36036
     36021     36020     36035     36037     36021     36020     36035     36041
     36022     36020     36019     36023     36022     36020     36019     36027
     36022     36020     36019     36031     36022     36020     36035     36036
     36022     36020     36035     36037     36022     36020     36035     36041
     36023     36019     36020     36035     36023     36019     36027     36028
     36023     36019     36027     36029     36023     36019     36027     36030
     36023     36019     36031     36032     36023     36019     36031     36033
     36023     36019     36031     36034     36024     36023     36019     36027
     36024     36023     36019     36031     36025     36023     36019     36027
     36025     36023     36019     36031     36026     36023     36019     36027
     36026     36023     36019     36031     36027     36019     36020     36035
     36027     36019     36031     36032     36027     36019     36031     36033
     36027     36019     36031     36034     36028     36027     36019     36031
     36029     36027     36019     36031     36030     36027     36019     36031
     36031     36019     36020     36035     36035     36041     36038     36039
     36035     36041     36038     36040     36035     36041     36038     36042
     36036     36035     36041     36038     36037     36035     36041     36038
     36038     36042     36043     36044     36038     36042     36043     36045
     36038     36042     36043     36046     36039     36038     36042     36043
     36040     36038     36042     36043     36041     36038     36042     36043
     36042     36043     36046     36047     36042     36043     36046     36048
     36042     36043     36046     36054     36043     36046     36048     36049
     36043     36046     36054     36055     36043     36046     36054     36056
     36043     36046     36054     36057     36044     36043     36046     36047
     36044     36043     36046     36048     36044     36043     36046     36054
     36045     36043     36046     36047     36045     36043     36046     36048
     36045     36043     36046     36054     36046     36048     36049     36050
     36046     36048     36049     36051     36046     36054     36057     36058
     36047     36046     36048     36049     36047     36046     36054     36055
     36047     36046     36054     36056     36047     36046     36054     36057
     36048     36046     36054     36055     36048     36046     36054     36056
     36048     36046     36054     36057     36048     36049     36051     36052
     36048     36049     36051     36053     36048     36049     36051     36063
     36049     36048     36046     36054     36049     36051     36063     36064
     36049     36051     36063     36065     36049     36051     36063     36066
     36050     36049     36051     36052     36050     36049     36051     36053
     36050     36049     36051     36063     36051     36063     36066     36067
     36051     36063     36066     36068     36051     36063     36066     36069
     36052     36051     36063     36064     36052     36051     36063     36065
     36052     36051     36063     36066     36053     36051     36063     36064
     36053     36051     36063     36065     36053     36051     36063     36066
     36054     36057     36058     36059     36054     36057     36058     36060
     36055     36054     36057     36058     36056     36054     36057     36058
     36057     36058     36060     36061     36057     36058     36060     36062
     36057     36058     36060     36110     36058     36060     36110     36111
     36058     36060     36110     36112     36058     36060     36110     36113
     36059     36058     36060     36061     36059     36058     36060     36062
     36059     36058     36060     36110     36060     36110     36113     36114
     36060     36110     36113     36115     36060     36110     36113     36116
     36061     36060     36110     36111     36061     36060     36110     36112
     36061     36060     36110     36113     36062     36060     36110     36111
     36062     36060     36110     36112     36062     36060     36110     36113
     36063     36066     36069     36070     36063     36066     36069     36071
     36063     36066     36069     36072     36064     36063     36066     36067
     36064     36063     36066     36068     36064     36063     36066     36069
     36065     36063     36066     36067     36065     36063     36066     36068
     36065     36063     36066     36069     36066     36069     36072     36073
     36066     36069     36072     36074     36066     36069     36072     36075
     36067     36066     36069     36070     36067     36066     36069     36071
     36067     36066     36069     36072     36068     36066     36069     36070
     36068     36066     36069     36071     36068     36066     36069     36072
     36069     36072     36075     36076     36069     36072     36075     36077
     36069     36072     36075     36078     36070     36069     36072     36073
     36070     36069     36072     36074     36070     36069     36072     36075
     36071     36069     36072     36073     36071     36069     36072     36074
     36071     36069     36072     36075     36072     36075     36078     36079
     36072     36075     36078     36080     36072     36075     36078     36081
     36073     36072     36075     36076     36073     36072     36075     36077
     36073     36072     36075     36078     36074     36072     36075     36076
     36074     36072     36075     36077     36074     36072     36075     36078
     36075     36078     36081     36082     36075     36078     36081     36083
     36076     36075     36078     36079     36076     36075     36078     36080
     36076     36075     36078     36081     36077     36075     36078     36079
     36077     36075     36078     36080     36077     36075     36078     36081
     36078     36081     36083     36084     36078     36081     36083     36085
     36079     36078     36081     36082     36079     36078     36081     36083
     36080     36078     36081     36082     36080     36078     36081     36083
     36081     36083     36085     36086     36081     36083     36085     36087
     36081     36083     36085     36088     36082     36081     36083     36084
     36082     36081     36083     36085     36083     36085     36088     36089
     36083     36085     36088     36090     36083     36085     36088     36091
     36084     36083     36085     36086     36084     36083     36085     36087
     36084     36083     36085     36088     36085     36088     36091     36092
     36085     36088     36091     36093     36085     36088     36091     36094
     36086     36085     36088     36089     36086     36085     36088     36090
     36086     36085     36088     36091     36087     36085     36088     36089
     36087     36085     36088     36090     36087     36085     36088     36091
     36088     36091     36094     36095     36088     36091     36094     36096
     36088     36091     36094     36097     36089     36088     36091     36092
     36089     36088     36091     36093     36089     36088     36091     36094
     36090     36088     36091     36092     36090     36088     36091     36093
     36090     36088     36091     36094     36091     36094     36097     36098
     36091     36094     36097     36099     36091     36094     36097     36100
     36092     36091     36094     36095     36092     36091     36094     36096
     36092     36091     36094     36097     36093     36091     36094     36095
     36093     36091     36094     36096     36093     36091     36094     36097
     36094     36097     36100     36101     36094     36097     36100     36102
     36094     36097     36100     36103     36095     36094     36097     36098
     36095     36094     36097     36099     36095     36094     36097     36100
     36096     36094     36097     36098     36096     36094     36097     36099
     36096     36094     36097     36100     36097     36100     36103     36104
     36097     36100     36103     36105     36097     36100     36103     36106
     36098     36097     36100     36101     36098     36097     36100     36102
     36098     36097     36100     36103     36099     36097     36100     36101
     36099     36097     36100     36102     36099     36097     36100     36103
     36100     36103     36106     36107     36100     36103     36106     36108
     36100     36103     36106     36109     36101     36100     36103     36104
     36101     36100     36103     36105     36101     36100     36103     36106
     36102     36100     36103     36104     36102     36100     36103     36105
     36102     36100     36103     36106     36104     36103     36106     36107
     36104     36103     36106     36108     36104     36103     36106     36109
     36105     36103     36106     36107     36105     36103     36106     36108
     36105     36103     36106     36109     36110     36113     36116     36117
     36110     36113     36116     36118     36110     36113     36116     36119
     36111     36110     36113     36114     36111     36110     36113     36115
     36111     36110     36113     36116     36112     36110     36113     36114
     36112     36110     36113     36115     36112     36110     36113     36116
     36113     36116     36119     36120     36113     36116     36119     36121
     36113     36116     36119     36122     36114     36113     36116     36117
     36114     36113     36116     36118     36114     36113     36116     36119
     36115     36113     36116     36117     36115     36113     36116     36118
     36115     36113     36116     36119     36116     36119     36122     36123
     36116     36119     36122     36124     36116     36119     36122     36125
     36117     36116     36119     36120     36117     36116     36119     36121
     36117     36116     36119     36122     36118     36116     36119     36120
     36118     36116     36119     36121     36118     36116     36119     36122
     36119     36122     36125     36126     36119     36122     36125     36127
     36119     36122     36125     36128     36120     36119     36122     36123
     36120     36119     36122     36124     36120     36119     36122     36125
     36121     36119     36122     36123     36121     36119     36122     36124
     36121     36119     36122     36125     36122     36125     36128     36129
     36122     36125     36128     36130     36122     36125     36128     36131
     36123     36122     36125     36126     36123     36122     36125     36127
     36123     36122     36125     36128     36124     36122     36125     36126
     36124     36122     36125     36127     36124     36122     36125     36128
     36125     36128     36131     36132     36125     36128     36131     36133
     36125     36128     36131     36134     36126     36125     36128     36129
     36126     36125     36128     36130     36126     36125     36128     36131
     36127     36125     36128     36129     36127     36125     36128     36130
     36127     36125     36128     36131     36128     36131     36134     36135
     36128     36131     36134     36136     36128     36131     36134     36137
     36129     36128     36131     36132     36129     36128     36131     36133
     36129     36128     36131     36134     36130     36128     36131     36132
     36130     36128     36131     36133     36130     36128     36131     36134
     36131     36134     36137     36138     36131     36134     36137     36139
     36131     36134     36137     36140     36132     36131     36134     36135
     36132     36131     36134     36136     36132     36131     36134     36137
     36133     36131     36134     36135     36133     36131     36134     36136
     36133     36131     36134     36137     36134     36137     36140     36141
     36134     36137     36140     36142     36134     36137     36140     36143
     36135     36134     36137     36138     36135     36134     36137     36139
     36135     36134     36137     36140     36136     36134     36137     36138
     36136     36134     36137     36139     36136     36134     36137     36140
     36137     36140     36143     36144     36137     36140     36143     36145
     36137     36140     36143     36146     36138     36137     36140     36141
     36138     36137     36140     36142     36138     36137     36140     36143
     36139     36137     36140     36141     36139     36137     36140     36142
     36139     36137     36140     36143     36140     36143     36146     36147
     36140     36143     36146     36148     36140     36143     36146     36149
     36141     36140     36143     36144     36141     36140     36143     36145
     36141     36140     36143     36146     36142     36140     36143     36144
     36142     36140     36143     36145     36142     36140     36143     36146
     36143     36146     36149     36150     36143     36146     36149     36151
     36143     36146     36149     36152     36144     36143     36146     36147
     36144     36143     36146     36148     36144     36143     36146     36149
     36145     36143     36146     36147     36145     36143     36146     36148
     36145     36143     36146     36149     36147     36146     36149     36150
     36147     36146     36149     36151     36147     36146     36149     36152
     36148     36146     36149     36150     36148     36146     36149     36151
     36148     36146     36149     36152     36153     36154     36169     36170
     36153     36154     36169     36171     36153     36154     36169     36175
     36154     36153     36157     36158     36154     36153     36157     36159
     36154     36153     36157     36160     36154     36153     36161     36162
     36154     36153     36161     36163     36154     36153     36161     36164
     36154     36153     36165     36166     36154     36153     36165     36167
     36154     36153     36165     36168     36154     36169     36175     36172
     36155     36154     36153     36157     36155     36154     36153     36161
     36155     36154     36153     36165     36155     36154     36169     36170
     36155     36154     36169     36171     36155     36154     36169     36175
     36156     36154     36153     36157     36156     36154     36153     36161
     36156     36154     36153     36165     36156     36154     36169     36170
     36156     36154     36169     36171     36156     36154     36169     36175
     36157     36153     36154     36169     36157     36153     36161     36162
     36157     36153     36161     36163     36157     36153     36161     36164
     36157     36153     36165     36166     36157     36153     36165     36167
     36157     36153     36165     36168     36158     36157     36153     36161
     36158     36157     36153     36165     36159     36157     36153     36161
     36159     36157     36153     36165     36160     36157     36153     36161
     36160     36157     36153     36165     36161     36153     36154     36169
     36161     36153     36165     36166     36161     36153     36165     36167
     36161     36153     36165     36168     36162     36161     36153     36165
     36163     36161     36153     36165     36164     36161     36153     36165
     36165     36153     36154     36169     36169     36175     36172     36173
     36169     36175     36172     36174     36169     36175     36172     36176
     36170     36169     36175     36172     36171     36169     36175     36172
     36172     36176     36177     36178     36172     36176     36177     36179
     36172     36176     36177     36180     36173     36172     36176     36177
     36174     36172     36176     36177     36175     36172     36176     36177
     36176     36177     36180     36181     36176     36177     36180     36182
     36176     36177     36180     36188     36177     36180     36182     36183
     36177     36180     36188     36189     36177     36180     36188     36190
     36177     36180     36188     36191     36178     36177     36180     36181
     36178     36177     36180     36182     36178     36177     36180     36188
     36179     36177     36180     36181     36179     36177     36180     36182
     36179     36177     36180     36188     36180     36182     36183     36184
     36180     36182     36183     36185     36180     36188     36191     36192
     36181     36180     36182     36183     36181     36180     36188     36189
     36181     36180     36188     36190     36181     36180     36188     36191
     36182     36180     36188     36189     36182     36180     36188     36190
     36182     36180     36188     36191     36182     36183     36185     36186
     36182     36183     36185     36187     36182     36183     36185     36197
     36183     36182     36180     36188     36183     36185     36197     36198
     36183     36185     36197     36199     36183     36185     36197     36200
     36184     36183     36185     36186     36184     36183     36185     36187
     36184     36183     36185     36197     36185     36197     36200     36201
     36185     36197     36200     36202     36185     36197     36200     36203
     36186     36185     36197     36198     36186     36185     36197     36199
     36186     36185     36197     36200     36187     36185     36197     36198
     36187     36185     36197     36199     36187     36185     36197     36200
     36188     36191     36192     36193     36188     36191     36192     36194
     36189     36188     36191     36192     36190     36188     36191     36192
     36191     36192     36194     36195     36191     36192     36194     36196
     36191     36192     36194     36244     36192     36194     36244     36245
     36192     36194     36244     36246     36192     36194     36244     36247
     36193     36192     36194     36195     36193     36192     36194     36196
     36193     36192     36194     36244     36194     36244     36247     36248
     36194     36244     36247     36249     36194     36244     36247     36250
     36195     36194     36244     36245     36195     36194     36244     36246
     36195     36194     36244     36247     36196     36194     36244     36245
     36196     36194     36244     36246     36196     36194     36244     36247
     36197     36200     36203     36204     36197     36200     36203     36205
     36197     36200     36203     36206     36198     36197     36200     36201
     36198     36197     36200     36202     36198     36197     36200     36203
     36199     36197     36200     36201     36199     36197     36200     36202
     36199     36197     36200     36203     36200     36203     36206     36207
     36200     36203     36206     36208     36200     36203     36206     36209
     36201     36200     36203     36204     36201     36200     36203     36205
     36201     36200     36203     36206     36202     36200     36203     36204
     36202     36200     36203     36205     36202     36200     36203     36206
     36203     36206     36209     36210     36203     36206     36209     36211
     36203     36206     36209     36212     36204     36203     36206     36207
     36204     36203     36206     36208     36204     36203     36206     36209
     36205     36203     36206     36207     36205     36203     36206     36208
     36205     36203     36206     36209     36206     36209     36212     36213
     36206     36209     36212     36214     36206     36209     36212     36215
     36207     36206     36209     36210     36207     36206     36209     36211
     36207     36206     36209     36212     36208     36206     36209     36210
     36208     36206     36209     36211     36208     36206     36209     36212
     36209     36212     36215     36216     36209     36212     36215     36217
     36210     36209     36212     36213     36210     36209     36212     36214
     36210     36209     36212     36215     36211     36209     36212     36213
     36211     36209     36212     36214     36211     36209     36212     36215
     36212     36215     36217     36218     36212     36215     36217     36219
     36213     36212     36215     36216     36213     36212     36215     36217
     36214     36212     36215     36216     36214     36212     36215     36217
     36215     36217     36219     36220     36215     36217     36219     36221
     36215     36217     36219     36222     36216     36215     36217     36218
     36216     36215     36217     36219     36217     36219     36222     36223
     36217     36219     36222     36224     36217     36219     36222     36225
     36218     36217     36219     36220     36218     36217     36219     36221
     36218     36217     36219     36222     36219     36222     36225     36226
     36219     36222     36225     36227     36219     36222     36225     36228
     36220     36219     36222     36223     36220     36219     36222     36224
     36220     36219     36222     36225     36221     36219     36222     36223
     36221     36219     36222     36224     36221     36219     36222     36225
     36222     36225     36228     36229     36222     36225     36228     36230
     36222     36225     36228     36231     36223     36222     36225     36226
     36223     36222     36225     36227     36223     36222     36225     36228
     36224     36222     36225     36226     36224     36222     36225     36227
     36224     36222     36225     36228     36225     36228     36231     36232
     36225     36228     36231     36233     36225     36228     36231     36234
     36226     36225     36228     36229     36226     36225     36228     36230
     36226     36225     36228     36231     36227     36225     36228     36229
     36227     36225     36228     36230     36227     36225     36228     36231
     36228     36231     36234     36235     36228     36231     36234     36236
     36228     36231     36234     36237     36229     36228     36231     36232
     36229     36228     36231     36233     36229     36228     36231     36234
     36230     36228     36231     36232     36230     36228     36231     36233
     36230     36228     36231     36234     36231     36234     36237     36238
     36231     36234     36237     36239     36231     36234     36237     36240
     36232     36231     36234     36235     36232     36231     36234     36236
     36232     36231     36234     36237     36233     36231     36234     36235
     36233     36231     36234     36236     36233     36231     36234     36237
     36234     36237     36240     36241     36234     36237     36240     36242
     36234     36237     36240     36243     36235     36234     36237     36238
     36235     36234     36237     36239     36235     36234     36237     36240
     36236     36234     36237     36238     36236     36234     36237     36239
     36236     36234     36237     36240     36238     36237     36240     36241
     36238     36237     36240     36242     36238     36237     36240     36243
     36239     36237     36240     36241     36239     36237     36240     36242
     36239     36237     36240     36243     36244     36247     36250     36251
     36244     36247     36250     36252     36244     36247     36250     36253
     36245     36244     36247     36248     36245     36244     36247     36249
     36245     36244     36247     36250     36246     36244     36247     36248
     36246     36244     36247     36249     36246     36244     36247     36250
     36247     36250     36253     36254     36247     36250     36253     36255
     36247     36250     36253     36256     36248     36247     36250     36251
     36248     36247     36250     36252     36248     36247     36250     36253
     36249     36247     36250     36251     36249     36247     36250     36252
     36249     36247     36250     36253     36250     36253     36256     36257
     36250     36253     36256     36258     36250     36253     36256     36259
     36251     36250     36253     36254     36251     36250     36253     36255
     36251     36250     36253     36256     36252     36250     36253     36254
     36252     36250     36253     36255     36252     36250     36253     36256
     36253     36256     36259     36260     36253     36256     36259     36261
     36253     36256     36259     36262     36254     36253     36256     36257
     36254     36253     36256     36258     36254     36253     36256     36259
     36255     36253     36256     36257     36255     36253     36256     36258
     36255     36253     36256     36259     36256     36259     36262     36263
     36256     36259     36262     36264     36256     36259     36262     36265
     36257     36256     36259     36260     36257     36256     36259     36261
     36257     36256     36259     36262     36258     36256     36259     36260
     36258     36256     36259     36261     36258     36256     36259     36262
     36259     36262     36265     36266     36259     36262     36265     36267
     36259     36262     36265     36268     36260     36259     36262     36263
     36260     36259     36262     36264     36260     36259     36262     36265
     36261     36259     36262     36263     36261     36259     36262     36264
     36261     36259     36262     36265     36262     36265     36268     36269
     36262     36265     36268     36270     36262     36265     36268     36271
     36263     36262     36265     36266     36263     36262     36265     36267
     36263     36262     36265     36268     36264     36262     36265     36266
     36264     36262     36265     36267     36264     36262     36265     36268
     36265     36268     36271     36272     36265     36268     36271     36273
     36265     36268     36271     36274     36266     36265     36268     36269
     36266     36265     36268     36270     36266     36265     36268     36271
     36267     36265     36268     36269     36267     36265     36268     36270
     36267     36265     36268     36271     36268     36271     36274     36275
     36268     36271     36274     36276     36268     36271     36274     36277
     36269     36268     36271     36272     36269     36268     36271     36273
     36269     36268     36271     36274     36270     36268     36271     36272
     36270     36268     36271     36273     36270     36268     36271     36274
     36271     36274     36277     36278     36271     36274     36277     36279
     36271     36274     36277     36280     36272     36271     36274     36275
     36272     36271     36274     36276     36272     36271     36274     36277
     36273     36271     36274     36275     36273     36271     36274     36276
     36273     36271     36274     36277     36274     36277     36280     36281
     36274     36277     36280     36282     36274     36277     36280     36283
     36275     36274     36277     36278     36275     36274     36277     36279
     36275     36274     36277     36280     36276     36274     36277     36278
     36276     36274     36277     36279     36276     36274     36277     36280
     36277     36280     36283     36284     36277     36280     36283     36285
     36277     36280     36283     36286     36278     36277     36280     36281
     36278     36277     36280     36282     36278     36277     36280     36283
     36279     36277     36280     36281     36279     36277     36280     36282
     36279     36277     36280     36283     36281     36280     36283     36284
     36281     36280     36283     36285     36281     36280     36283     36286
     36282     36280     36283     36284     36282     36280     36283     36285
     36282     36280     36283     36286     36287     36288     36303     36304
     36287     36288     36303     36305     36287     36288     36303     36309
     36288     36287     36291     36292     36288     36287     36291     36293
     36288     36287     36291     36294     36288     36287     36295     36296
     36288     36287     36295     36297     36288     36287     36295     36298
     36288     36287     36299     36300     36288     36287     36299     36301
     36288     36287     36299     36302     36288     36303     36309     36306
     36289     36288     36287     36291     36289     36288     36287     36295
     36289     36288     36287     36299     36289     36288     36303     36304
     36289     36288     36303     36305     36289     36288     36303     36309
     36290     36288     36287     36291     36290     36288     36287     36295
     36290     36288     36287     36299     36290     36288     36303     36304
     36290     36288     36303     36305     36290     36288     36303     36309
     36291     36287     36288     36303     36291     36287     36295     36296
     36291     36287     36295     36297     36291     36287     36295     36298
     36291     36287     36299     36300     36291     36287     36299     36301
     36291     36287     36299     36302     36292     36291     36287     36295
     36292     36291     36287     36299     36293     36291     36287     36295
     36293     36291     36287     36299     36294     36291     36287     36295
     36294     36291     36287     36299     36295     36287     36288     36303
     36295     36287     36299     36300     36295     36287     36299     36301
     36295     36287     36299     36302     36296     36295     36287     36299
     36297     36295     36287     36299     36298     36295     36287     36299
     36299     36287     36288     36303     36303     36309     36306     36307
     36303     36309     36306     36308     36303     36309     36306     36310
     36304     36303     36309     36306     36305     36303     36309     36306
     36306     36310     36311     36312     36306     36310     36311     36313
     36306     36310     36311     36314     36307     36306     36310     36311
     36308     36306     36310     36311     36309     36306     36310     36311
     36310     36311     36314     36315     36310     36311     36314     36316
     36310     36311     36314     36322     36311     36314     36316     36317
     36311     36314     36322     36323     36311     36314     36322     36324
     36311     36314     36322     36325     36312     36311     36314     36315
     36312     36311     36314     36316     36312     36311     36314     36322
     36313     36311     36314     36315     36313     36311     36314     36316
     36313     36311     36314     36322     36314     36316     36317     36318
     36314     36316     36317     36319     36314     36322     36325     36326
     36315     36314     36316     36317     36315     36314     36322     36323
     36315     36314     36322     36324     36315     36314     36322     36325
     36316     36314     36322     36323     36316     36314     36322     36324
     36316     36314     36322     36325     36316     36317     36319     36320
     36316     36317     36319     36321     36316     36317     36319     36331
     36317     36316     36314     36322     36317     36319     36331     36332
     36317     36319     36331     36333     36317     36319     36331     36334
     36318     36317     36319     36320     36318     36317     36319     36321
     36318     36317     36319     36331     36319     36331     36334     36335
     36319     36331     36334     36336     36319     36331     36334     36337
     36320     36319     36331     36332     36320     36319     36331     36333
     36320     36319     36331     36334     36321     36319     36331     36332
     36321     36319     36331     36333     36321     36319     36331     36334
     36322     36325     36326     36327     36322     36325     36326     36328
     36323     36322     36325     36326     36324     36322     36325     36326
     36325     36326     36328     36329     36325     36326     36328     36330
     36325     36326     36328     36378     36326     36328     36378     36379
     36326     36328     36378     36380     36326     36328     36378     36381
     36327     36326     36328     36329     36327     36326     36328     36330
     36327     36326     36328     36378     36328     36378     36381     36382
     36328     36378     36381     36383     36328     36378     36381     36384
     36329     36328     36378     36379     36329     36328     36378     36380
     36329     36328     36378     36381     36330     36328     36378     36379
     36330     36328     36378     36380     36330     36328     36378     36381
     36331     36334     36337     36338     36331     36334     36337     36339
     36331     36334     36337     36340     36332     36331     36334     36335
     36332     36331     36334     36336     36332     36331     36334     36337
     36333     36331     36334     36335     36333     36331     36334     36336
     36333     36331     36334     36337     36334     36337     36340     36341
     36334     36337     36340     36342     36334     36337     36340     36343
     36335     36334     36337     36338     36335     36334     36337     36339
     36335     36334     36337     36340     36336     36334     36337     36338
     36336     36334     36337     36339     36336     36334     36337     36340
     36337     36340     36343     36344     36337     36340     36343     36345
     36337     36340     36343     36346     36338     36337     36340     36341
     36338     36337     36340     36342     36338     36337     36340     36343
     36339     36337     36340     36341     36339     36337     36340     36342
     36339     36337     36340     36343     36340     36343     36346     36347
     36340     36343     36346     36348     36340     36343     36346     36349
     36341     36340     36343     36344     36341     36340     36343     36345
     36341     36340     36343     36346     36342     36340     36343     36344
     36342     36340     36343     36345     36342     36340     36343     36346
     36343     36346     36349     36350     36343     36346     36349     36351
     36344     36343     36346     36347     36344     36343     36346     36348
     36344     36343     36346     36349     36345     36343     36346     36347
     36345     36343     36346     36348     36345     36343     36346     36349
     36346     36349     36351     36352     36346     36349     36351     36353
     36347     36346     36349     36350     36347     36346     36349     36351
     36348     36346     36349     36350     36348     36346     36349     36351
     36349     36351     36353     36354     36349     36351     36353     36355
     36349     36351     36353     36356     36350     36349     36351     36352
     36350     36349     36351     36353     36351     36353     36356     36357
     36351     36353     36356     36358     36351     36353     36356     36359
     36352     36351     36353     36354     36352     36351     36353     36355
     36352     36351     36353     36356     36353     36356     36359     36360
     36353     36356     36359     36361     36353     36356     36359     36362
     36354     36353     36356     36357     36354     36353     36356     36358
     36354     36353     36356     36359     36355     36353     36356     36357
     36355     36353     36356     36358     36355     36353     36356     36359
     36356     36359     36362     36363     36356     36359     36362     36364
     36356     36359     36362     36365     36357     36356     36359     36360
     36357     36356     36359     36361     36357     36356     36359     36362
     36358     36356     36359     36360     36358     36356     36359     36361
     36358     36356     36359     36362     36359     36362     36365     36366
     36359     36362     36365     36367     36359     36362     36365     36368
     36360     36359     36362     36363     36360     36359     36362     36364
     36360     36359     36362     36365     36361     36359     36362     36363
     36361     36359     36362     36364     36361     36359     36362     36365
     36362     36365     36368     36369     36362     36365     36368     36370
     36362     36365     36368     36371     36363     36362     36365     36366
     36363     36362     36365     36367     36363     36362     36365     36368
     36364     36362     36365     36366     36364     36362     36365     36367
     36364     36362     36365     36368     36365     36368     36371     36372
     36365     36368     36371     36373     36365     36368     36371     36374
     36366     36365     36368     36369     36366     36365     36368     36370
     36366     36365     36368     36371     36367     36365     36368     36369
     36367     36365     36368     36370     36367     36365     36368     36371
     36368     36371     36374     36375     36368     36371     36374     36376
     36368     36371     36374     36377     36369     36368     36371     36372
     36369     36368     36371     36373     36369     36368     36371     36374
     36370     36368     36371     36372     36370     36368     36371     36373
     36370     36368     36371     36374     36372     36371     36374     36375
     36372     36371     36374     36376     36372     36371     36374     36377
     36373     36371     36374     36375     36373     36371     36374     36376
     36373     36371     36374     36377     36378     36381     36384     36385
     36378     36381     36384     36386     36378     36381     36384     36387
     36379     36378     36381     36382     36379     36378     36381     36383
     36379     36378     36381     36384     36380     36378     36381     36382
     36380     36378     36381     36383     36380     36378     36381     36384
     36381     36384     36387     36388     36381     36384     36387     36389
     36381     36384     36387     36390     36382     36381     36384     36385
     36382     36381     36384     36386     36382     36381     36384     36387
     36383     36381     36384     36385     36383     36381     36384     36386
     36383     36381     36384     36387     36384     36387     36390     36391
     36384     36387     36390     36392     36384     36387     36390     36393
     36385     36384     36387     36388     36385     36384     36387     36389
     36385     36384     36387     36390     36386     36384     36387     36388
     36386     36384     36387     36389     36386     36384     36387     36390
     36387     36390     36393     36394     36387     36390     36393     36395
     36387     36390     36393     36396     36388     36387     36390     36391
     36388     36387     36390     36392     36388     36387     36390     36393
     36389     36387     36390     36391     36389     36387     36390     36392
     36389     36387     36390     36393     36390     36393     36396     36397
     36390     36393     36396     36398     36390     36393     36396     36399
     36391     36390     36393     36394     36391     36390     36393     36395
     36391     36390     36393     36396     36392     36390     36393     36394
     36392     36390     36393     36395     36392     36390     36393     36396
     36393     36396     36399     36400     36393     36396     36399     36401
     36393     36396     36399     36402     36394     36393     36396     36397
     36394     36393     36396     36398     36394     36393     36396     36399
     36395     36393     36396     36397     36395     36393     36396     36398
     36395     36393     36396     36399     36396     36399     36402     36403
     36396     36399     36402     36404     36396     36399     36402     36405
     36397     36396     36399     36400     36397     36396     36399     36401
     36397     36396     36399     36402     36398     36396     36399     36400
     36398     36396     36399     36401     36398     36396     36399     36402
     36399     36402     36405     36406     36399     36402     36405     36407
     36399     36402     36405     36408     36400     36399     36402     36403
     36400     36399     36402     36404     36400     36399     36402     36405
     36401     36399     36402     36403     36401     36399     36402     36404
     36401     36399     36402     36405     36402     36405     36408     36409
     36402     36405     36408     36410     36402     36405     36408     36411
     36403     36402     36405     36406     36403     36402     36405     36407
     36403     36402     36405     36408     36404     36402     36405     36406
     36404     36402     36405     36407     36404     36402     36405     36408
     36405     36408     36411     36412     36405     36408     36411     36413
     36405     36408     36411     36414     36406     36405     36408     36409
     36406     36405     36408     36410     36406     36405     36408     36411
     36407     36405     36408     36409     36407     36405     36408     36410
     36407     36405     36408     36411     36408     36411     36414     36415
     36408     36411     36414     36416     36408     36411     36414     36417
     36409     36408     36411     36412     36409     36408     36411     36413
     36409     36408     36411     36414     36410     36408     36411     36412
     36410     36408     36411     36413     36410     36408     36411     36414
     36411     36414     36417     36418     36411     36414     36417     36419
     36411     36414     36417     36420     36412     36411     36414     36415
     36412     36411     36414     36416     36412     36411     36414     36417
     36413     36411     36414     36415     36413     36411     36414     36416
     36413     36411     36414     36417     36415     36414     36417     36418
     36415     36414     36417     36419     36415     36414     36417     36420
     36416     36414     36417     36418     36416     36414     36417     36419
     36416     36414     36417     36420     36421     36422     36437     36438
     36421     36422     36437     36439     36421     36422     36437     36443
     36422     36421     36425     36426     36422     36421     36425     36427
     36422     36421     36425     36428     36422     36421     36429     36430
     36422     36421     36429     36431     36422     36421     36429     36432
     36422     36421     36433     36434     36422     36421     36433     36435
     36422     36421     36433     36436     36422     36437     36443     36440
     36423     36422     36421     36425     36423     36422     36421     36429
     36423     36422     36421     36433     36423     36422     36437     36438
     36423     36422     36437     36439     36423     36422     36437     36443
     36424     36422     36421     36425     36424     36422     36421     36429
     36424     36422     36421     36433     36424     36422     36437     36438
     36424     36422     36437     36439     36424     36422     36437     36443
     36425     36421     36422     36437     36425     36421     36429     36430
     36425     36421     36429     36431     36425     36421     36429     36432
     36425     36421     36433     36434     36425     36421     36433     36435
     36425     36421     36433     36436     36426     36425     36421     36429
     36426     36425     36421     36433     36427     36425     36421     36429
     36427     36425     36421     36433     36428     36425     36421     36429
     36428     36425     36421     36433     36429     36421     36422     36437
     36429     36421     36433     36434     36429     36421     36433     36435
     36429     36421     36433     36436     36430     36429     36421     36433
     36431     36429     36421     36433     36432     36429     36421     36433
     36433     36421     36422     36437     36437     36443     36440     36441
     36437     36443     36440     36442     36437     36443     36440     36444
     36438     36437     36443     36440     36439     36437     36443     36440
     36440     36444     36445     36446     36440     36444     36445     36447
     36440     36444     36445     36448     36441     36440     36444     36445
     36442     36440     36444     36445     36443     36440     36444     36445
     36444     36445     36448     36449     36444     36445     36448     36450
     36444     36445     36448     36456     36445     36448     36450     36451
     36445     36448     36456     36457     36445     36448     36456     36458
     36445     36448     36456     36459     36446     36445     36448     36449
     36446     36445     36448     36450     36446     36445     36448     36456
     36447     36445     36448     36449     36447     36445     36448     36450
     36447     36445     36448     36456     36448     36450     36451     36452
     36448     36450     36451     36453     36448     36456     36459     36460
     36449     36448     36450     36451     36449     36448     36456     36457
     36449     36448     36456     36458     36449     36448     36456     36459
     36450     36448     36456     36457     36450     36448     36456     36458
     36450     36448     36456     36459     36450     36451     36453     36454
     36450     36451     36453     36455     36450     36451     36453     36465
     36451     36450     36448     36456     36451     36453     36465     36466
     36451     36453     36465     36467     36451     36453     36465     36468
     36452     36451     36453     36454     36452     36451     36453     36455
     36452     36451     36453     36465     36453     36465     36468     36469
     36453     36465     36468     36470     36453     36465     36468     36471
     36454     36453     36465     36466     36454     36453     36465     36467
     36454     36453     36465     36468     36455     36453     36465     36466
     36455     36453     36465     36467     36455     36453     36465     36468
     36456     36459     36460     36461     36456     36459     36460     36462
     36457     36456     36459     36460     36458     36456     36459     36460
     36459     36460     36462     36463     36459     36460     36462     36464
     36459     36460     36462     36512     36460     36462     36512     36513
     36460     36462     36512     36514     36460     36462     36512     36515
     36461     36460     36462     36463     36461     36460     36462     36464
     36461     36460     36462     36512     36462     36512     36515     36516
     36462     36512     36515     36517     36462     36512     36515     36518
     36463     36462     36512     36513     36463     36462     36512     36514
     36463     36462     36512     36515     36464     36462     36512     36513
     36464     36462     36512     36514     36464     36462     36512     36515
     36465     36468     36471     36472     36465     36468     36471     36473
     36465     36468     36471     36474     36466     36465     36468     36469
     36466     36465     36468     36470     36466     36465     36468     36471
     36467     36465     36468     36469     36467     36465     36468     36470
     36467     36465     36468     36471     36468     36471     36474     36475
     36468     36471     36474     36476     36468     36471     36474     36477
     36469     36468     36471     36472     36469     36468     36471     36473
     36469     36468     36471     36474     36470     36468     36471     36472
     36470     36468     36471     36473     36470     36468     36471     36474
     36471     36474     36477     36478     36471     36474     36477     36479
     36471     36474     36477     36480     36472     36471     36474     36475
     36472     36471     36474     36476     36472     36471     36474     36477
     36473     36471     36474     36475     36473     36471     36474     36476
     36473     36471     36474     36477     36474     36477     36480     36481
     36474     36477     36480     36482     36474     36477     36480     36483
     36475     36474     36477     36478     36475     36474     36477     36479
     36475     36474     36477     36480     36476     36474     36477     36478
     36476     36474     36477     36479     36476     36474     36477     36480
     36477     36480     36483     36484     36477     36480     36483     36485
     36478     36477     36480     36481     36478     36477     36480     36482
     36478     36477     36480     36483     36479     36477     36480     36481
     36479     36477     36480     36482     36479     36477     36480     36483
     36480     36483     36485     36486     36480     36483     36485     36487
     36481     36480     36483     36484     36481     36480     36483     36485
     36482     36480     36483     36484     36482     36480     36483     36485
     36483     36485     36487     36488     36483     36485     36487     36489
     36483     36485     36487     36490     36484     36483     36485     36486
     36484     36483     36485     36487     36485     36487     36490     36491
     36485     36487     36490     36492     36485     36487     36490     36493
     36486     36485     36487     36488     36486     36485     36487     36489
     36486     36485     36487     36490     36487     36490     36493     36494
     36487     36490     36493     36495     36487     36490     36493     36496
     36488     36487     36490     36491     36488     36487     36490     36492
     36488     36487     36490     36493     36489     36487     36490     36491
     36489     36487     36490     36492     36489     36487     36490     36493
     36490     36493     36496     36497     36490     36493     36496     36498
     36490     36493     36496     36499     36491     36490     36493     36494
     36491     36490     36493     36495     36491     36490     36493     36496
     36492     36490     36493     36494     36492     36490     36493     36495
     36492     36490     36493     36496     36493     36496     36499     36500
     36493     36496     36499     36501     36493     36496     36499     36502
     36494     36493     36496     36497     36494     36493     36496     36498
     36494     36493     36496     36499     36495     36493     36496     36497
     36495     36493     36496     36498     36495     36493     36496     36499
     36496     36499     36502     36503     36496     36499     36502     36504
     36496     36499     36502     36505     36497     36496     36499     36500
     36497     36496     36499     36501     36497     36496     36499     36502
     36498     36496     36499     36500     36498     36496     36499     36501
     36498     36496     36499     36502     36499     36502     36505     36506
     36499     36502     36505     36507     36499     36502     36505     36508
     36500     36499     36502     36503     36500     36499     36502     36504
     36500     36499     36502     36505     36501     36499     36502     36503
     36501     36499     36502     36504     36501     36499     36502     36505
     36502     36505     36508     36509     36502     36505     36508     36510
     36502     36505     36508     36511     36503     36502     36505     36506
     36503     36502     36505     36507     36503     36502     36505     36508
     36504     36502     36505     36506     36504     36502     36505     36507
     36504     36502     36505     36508     36506     36505     36508     36509
     36506     36505     36508     36510     36506     36505     36508     36511
     36507     36505     36508     36509     36507     36505     36508     36510
     36507     36505     36508     36511     36512     36515     36518     36519
     36512     36515     36518     36520     36512     36515     36518     36521
     36513     36512     36515     36516     36513     36512     36515     36517
     36513     36512     36515     36518     36514     36512     36515     36516
     36514     36512     36515     36517     36514     36512     36515     36518
     36515     36518     36521     36522     36515     36518     36521     36523
     36515     36518     36521     36524     36516     36515     36518     36519
     36516     36515     36518     36520     36516     36515     36518     36521
     36517     36515     36518     36519     36517     36515     36518     36520
     36517     36515     36518     36521     36518     36521     36524     36525
     36518     36521     36524     36526     36518     36521     36524     36527
     36519     36518     36521     36522     36519     36518     36521     36523
     36519     36518     36521     36524     36520     36518     36521     36522
     36520     36518     36521     36523     36520     36518     36521     36524
     36521     36524     36527     36528     36521     36524     36527     36529
     36521     36524     36527     36530     36522     36521     36524     36525
     36522     36521     36524     36526     36522     36521     36524     36527
     36523     36521     36524     36525     36523     36521     36524     36526
     36523     36521     36524     36527     36524     36527     36530     36531
     36524     36527     36530     36532     36524     36527     36530     36533
     36525     36524     36527     36528     36525     36524     36527     36529
     36525     36524     36527     36530     36526     36524     36527     36528
     36526     36524     36527     36529     36526     36524     36527     36530
     36527     36530     36533     36534     36527     36530     36533     36535
     36527     36530     36533     36536     36528     36527     36530     36531
     36528     36527     36530     36532     36528     36527     36530     36533
     36529     36527     36530     36531     36529     36527     36530     36532
     36529     36527     36530     36533     36530     36533     36536     36537
     36530     36533     36536     36538     36530     36533     36536     36539
     36531     36530     36533     36534     36531     36530     36533     36535
     36531     36530     36533     36536     36532     36530     36533     36534
     36532     36530     36533     36535     36532     36530     36533     36536
     36533     36536     36539     36540     36533     36536     36539     36541
     36533     36536     36539     36542     36534     36533     36536     36537
     36534     36533     36536     36538     36534     36533     36536     36539
     36535     36533     36536     36537     36535     36533     36536     36538
     36535     36533     36536     36539     36536     36539     36542     36543
     36536     36539     36542     36544     36536     36539     36542     36545
     36537     36536     36539     36540     36537     36536     36539     36541
     36537     36536     36539     36542     36538     36536     36539     36540
     36538     36536     36539     36541     36538     36536     36539     36542
     36539     36542     36545     36546     36539     36542     36545     36547
     36539     36542     36545     36548     36540     36539     36542     36543
     36540     36539     36542     36544     36540     36539     36542     36545
     36541     36539     36542     36543     36541     36539     36542     36544
     36541     36539     36542     36545     36542     36545     36548     36549
     36542     36545     36548     36550     36542     36545     36548     36551
     36543     36542     36545     36546     36543     36542     36545     36547
     36543     36542     36545     36548     36544     36542     36545     36546
     36544     36542     36545     36547     36544     36542     36545     36548
     36545     36548     36551     36552     36545     36548     36551     36553
     36545     36548     36551     36554     36546     36545     36548     36549
     36546     36545     36548     36550     36546     36545     36548     36551
     36547     36545     36548     36549     36547     36545     36548     36550
     36547     36545     36548     36551     36549     36548     36551     36552
     36549     36548     36551     36553     36549     36548     36551     36554
     36550     36548     36551     36552     36550     36548     36551     36553
     36550     36548     36551     36554     36555     36556     36571     36572
     36555     36556     36571     36573     36555     36556     36571     36577
     36556     36555     36559     36560     36556     36555     36559     36561
     36556     36555     36559     36562     36556     36555     36563     36564
     36556     36555     36563     36565     36556     36555     36563     36566
     36556     36555     36567     36568     36556     36555     36567     36569
     36556     36555     36567     36570     36556     36571     36577     36574
     36557     36556     36555     36559     36557     36556     36555     36563
     36557     36556     36555     36567     36557     36556     36571     36572
     36557     36556     36571     36573     36557     36556     36571     36577
     36558     36556     36555     36559     36558     36556     36555     36563
     36558     36556     36555     36567     36558     36556     36571     36572
     36558     36556     36571     36573     36558     36556     36571     36577
     36559     36555     36556     36571     36559     36555     36563     36564
     36559     36555     36563     36565     36559     36555     36563     36566
     36559     36555     36567     36568     36559     36555     36567     36569
     36559     36555     36567     36570     36560     36559     36555     36563
     36560     36559     36555     36567     36561     36559     36555     36563
     36561     36559     36555     36567     36562     36559     36555     36563
     36562     36559     36555     36567     36563     36555     36556     36571
     36563     36555     36567     36568     36563     36555     36567     36569
     36563     36555     36567     36570     36564     36563     36555     36567
     36565     36563     36555     36567     36566     36563     36555     36567
     36567     36555     36556     36571     36571     36577     36574     36575
     36571     36577     36574     36576     36571     36577     36574     36578
     36572     36571     36577     36574     36573     36571     36577     36574
     36574     36578     36579     36580     36574     36578     36579     36581
     36574     36578     36579     36582     36575     36574     36578     36579
     36576     36574     36578     36579     36577     36574     36578     36579
     36578     36579     36582     36583     36578     36579     36582     36584
     36578     36579     36582     36590     36579     36582     36584     36585
     36579     36582     36590     36591     36579     36582     36590     36592
     36579     36582     36590     36593     36580     36579     36582     36583
     36580     36579     36582     36584     36580     36579     36582     36590
     36581     36579     36582     36583     36581     36579     36582     36584
     36581     36579     36582     36590     36582     36584     36585     36586
     36582     36584     36585     36587     36582     36590     36593     36594
     36583     36582     36584     36585     36583     36582     36590     36591
     36583     36582     36590     36592     36583     36582     36590     36593
     36584     36582     36590     36591     36584     36582     36590     36592
     36584     36582     36590     36593     36584     36585     36587     36588
     36584     36585     36587     36589     36584     36585     36587     36599
     36585     36584     36582     36590     36585     36587     36599     36600
     36585     36587     36599     36601     36585     36587     36599     36602
     36586     36585     36587     36588     36586     36585     36587     36589
     36586     36585     36587     36599     36587     36599     36602     36603
     36587     36599     36602     36604     36587     36599     36602     36605
     36588     36587     36599     36600     36588     36587     36599     36601
     36588     36587     36599     36602     36589     36587     36599     36600
     36589     36587     36599     36601     36589     36587     36599     36602
     36590     36593     36594     36595     36590     36593     36594     36596
     36591     36590     36593     36594     36592     36590     36593     36594
     36593     36594     36596     36597     36593     36594     36596     36598
     36593     36594     36596     36646     36594     36596     36646     36647
     36594     36596     36646     36648     36594     36596     36646     36649
     36595     36594     36596     36597     36595     36594     36596     36598
     36595     36594     36596     36646     36596     36646     36649     36650
     36596     36646     36649     36651     36596     36646     36649     36652
     36597     36596     36646     36647     36597     36596     36646     36648
     36597     36596     36646     36649     36598     36596     36646     36647
     36598     36596     36646     36648     36598     36596     36646     36649
     36599     36602     36605     36606     36599     36602     36605     36607
     36599     36602     36605     36608     36600     36599     36602     36603
     36600     36599     36602     36604     36600     36599     36602     36605
     36601     36599     36602     36603     36601     36599     36602     36604
     36601     36599     36602     36605     36602     36605     36608     36609
     36602     36605     36608     36610     36602     36605     36608     36611
     36603     36602     36605     36606     36603     36602     36605     36607
     36603     36602     36605     36608     36604     36602     36605     36606
     36604     36602     36605     36607     36604     36602     36605     36608
     36605     36608     36611     36612     36605     36608     36611     36613
     36605     36608     36611     36614     36606     36605     36608     36609
     36606     36605     36608     36610     36606     36605     36608     36611
     36607     36605     36608     36609     36607     36605     36608     36610
     36607     36605     36608     36611     36608     36611     36614     36615
     36608     36611     36614     36616     36608     36611     36614     36617
     36609     36608     36611     36612     36609     36608     36611     36613
     36609     36608     36611     36614     36610     36608     36611     36612
     36610     36608     36611     36613     36610     36608     36611     36614
     36611     36614     36617     36618     36611     36614     36617     36619
     36612     36611     36614     36615     36612     36611     36614     36616
     36612     36611     36614     36617     36613     36611     36614     36615
     36613     36611     36614     36616     36613     36611     36614     36617
     36614     36617     36619     36620     36614     36617     36619     36621
     36615     36614     36617     36618     36615     36614     36617     36619
     36616     36614     36617     36618     36616     36614     36617     36619
     36617     36619     36621     36622     36617     36619     36621     36623
     36617     36619     36621     36624     36618     36617     36619     36620
     36618     36617     36619     36621     36619     36621     36624     36625
     36619     36621     36624     36626     36619     36621     36624     36627
     36620     36619     36621     36622     36620     36619     36621     36623
     36620     36619     36621     36624     36621     36624     36627     36628
     36621     36624     36627     36629     36621     36624     36627     36630
     36622     36621     36624     36625     36622     36621     36624     36626
     36622     36621     36624     36627     36623     36621     36624     36625
     36623     36621     36624     36626     36623     36621     36624     36627
     36624     36627     36630     36631     36624     36627     36630     36632
     36624     36627     36630     36633     36625     36624     36627     36628
     36625     36624     36627     36629     36625     36624     36627     36630
     36626     36624     36627     36628     36626     36624     36627     36629
     36626     36624     36627     36630     36627     36630     36633     36634
     36627     36630     36633     36635     36627     36630     36633     36636
     36628     36627     36630     36631     36628     36627     36630     36632
     36628     36627     36630     36633     36629     36627     36630     36631
     36629     36627     36630     36632     36629     36627     36630     36633
     36630     36633     36636     36637     36630     36633     36636     36638
     36630     36633     36636     36639     36631     36630     36633     36634
     36631     36630     36633     36635     36631     36630     36633     36636
     36632     36630     36633     36634     36632     36630     36633     36635
     36632     36630     36633     36636     36633     36636     36639     36640
     36633     36636     36639     36641     36633     36636     36639     36642
     36634     36633     36636     36637     36634     36633     36636     36638
     36634     36633     36636     36639     36635     36633     36636     36637
     36635     36633     36636     36638     36635     36633     36636     36639
     36636     36639     36642     36643     36636     36639     36642     36644
     36636     36639     36642     36645     36637     36636     36639     36640
     36637     36636     36639     36641     36637     36636     36639     36642
     36638     36636     36639     36640     36638     36636     36639     36641
     36638     36636     36639     36642     36640     36639     36642     36643
     36640     36639     36642     36644     36640     36639     36642     36645
     36641     36639     36642     36643     36641     36639     36642     36644
     36641     36639     36642     36645     36646     36649     36652     36653
     36646     36649     36652     36654     36646     36649     36652     36655
     36647     36646     36649     36650     36647     36646     36649     36651
     36647     36646     36649     36652     36648     36646     36649     36650
     36648     36646     36649     36651     36648     36646     36649     36652
     36649     36652     36655     36656     36649     36652     36655     36657
     36649     36652     36655     36658     36650     36649     36652     36653
     36650     36649     36652     36654     36650     36649     36652     36655
     36651     36649     36652     36653     36651     36649     36652     36654
     36651     36649     36652     36655     36652     36655     36658     36659
     36652     36655     36658     36660     36652     36655     36658     36661
     36653     36652     36655     36656     36653     36652     36655     36657
     36653     36652     36655     36658     36654     36652     36655     36656
     36654     36652     36655     36657     36654     36652     36655     36658
     36655     36658     36661     36662     36655     36658     36661     36663
     36655     36658     36661     36664     36656     36655     36658     36659
     36656     36655     36658     36660     36656     36655     36658     36661
     36657     36655     36658     36659     36657     36655     36658     36660
     36657     36655     36658     36661     36658     36661     36664     36665
     36658     36661     36664     36666     36658     36661     36664     36667
     36659     36658     36661     36662     36659     36658     36661     36663
     36659     36658     36661     36664     36660     36658     36661     36662
     36660     36658     36661     36663     36660     36658     36661     36664
     36661     36664     36667     36668     36661     36664     36667     36669
     36661     36664     36667     36670     36662     36661     36664     36665
     36662     36661     36664     36666     36662     36661     36664     36667
     36663     36661     36664     36665     36663     36661     36664     36666
     36663     36661     36664     36667     36664     36667     36670     36671
     36664     36667     36670     36672     36664     36667     36670     36673
     36665     36664     36667     36668     36665     36664     36667     36669
     36665     36664     36667     36670     36666     36664     36667     36668
     36666     36664     36667     36669     36666     36664     36667     36670
     36667     36670     36673     36674     36667     36670     36673     36675
     36667     36670     36673     36676     36668     36667     36670     36671
     36668     36667     36670     36672     36668     36667     36670     36673
     36669     36667     36670     36671     36669     36667     36670     36672
     36669     36667     36670     36673     36670     36673     36676     36677
     36670     36673     36676     36678     36670     36673     36676     36679
     36671     36670     36673     36674     36671     36670     36673     36675
     36671     36670     36673     36676     36672     36670     36673     36674
     36672     36670     36673     36675     36672     36670     36673     36676
     36673     36676     36679     36680     36673     36676     36679     36681
     36673     36676     36679     36682     36674     36673     36676     36677
     36674     36673     36676     36678     36674     36673     36676     36679
     36675     36673     36676     36677     36675     36673     36676     36678
     36675     36673     36676     36679     36676     36679     36682     36683
     36676     36679     36682     36684     36676     36679     36682     36685
     36677     36676     36679     36680     36677     36676     36679     36681
     36677     36676     36679     36682     36678     36676     36679     36680
     36678     36676     36679     36681     36678     36676     36679     36682
     36679     36682     36685     36686     36679     36682     36685     36687
     36679     36682     36685     36688     36680     36679     36682     36683
     36680     36679     36682     36684     36680     36679     36682     36685
     36681     36679     36682     36683     36681     36679     36682     36684
     36681     36679     36682     36685     36683     36682     36685     36686
     36683     36682     36685     36687     36683     36682     36685     36688
     36684     36682     36685     36686     36684     36682     36685     36687
     36684     36682     36685     36688     36689     36690     36705     36706
     36689     36690     36705     36707     36689     36690     36705     36711
     36690     36689     36693     36694     36690     36689     36693     36695
     36690     36689     36693     36696     36690     36689     36697     36698
     36690     36689     36697     36699     36690     36689     36697     36700
     36690     36689     36701     36702     36690     36689     36701     36703
     36690     36689     36701     36704     36690     36705     36711     36708
     36691     36690     36689     36693     36691     36690     36689     36697
     36691     36690     36689     36701     36691     36690     36705     36706
     36691     36690     36705     36707     36691     36690     36705     36711
     36692     36690     36689     36693     36692     36690     36689     36697
     36692     36690     36689     36701     36692     36690     36705     36706
     36692     36690     36705     36707     36692     36690     36705     36711
     36693     36689     36690     36705     36693     36689     36697     36698
     36693     36689     36697     36699     36693     36689     36697     36700
     36693     36689     36701     36702     36693     36689     36701     36703
     36693     36689     36701     36704     36694     36693     36689     36697
     36694     36693     36689     36701     36695     36693     36689     36697
     36695     36693     36689     36701     36696     36693     36689     36697
     36696     36693     36689     36701     36697     36689     36690     36705
     36697     36689     36701     36702     36697     36689     36701     36703
     36697     36689     36701     36704     36698     36697     36689     36701
     36699     36697     36689     36701     36700     36697     36689     36701
     36701     36689     36690     36705     36705     36711     36708     36709
     36705     36711     36708     36710     36705     36711     36708     36712
     36706     36705     36711     36708     36707     36705     36711     36708
     36708     36712     36713     36714     36708     36712     36713     36715
     36708     36712     36713     36716     36709     36708     36712     36713
     36710     36708     36712     36713     36711     36708     36712     36713
     36712     36713     36716     36717     36712     36713     36716     36718
     36712     36713     36716     36724     36713     36716     36718     36719
     36713     36716     36724     36725     36713     36716     36724     36726
     36713     36716     36724     36727     36714     36713     36716     36717
     36714     36713     36716     36718     36714     36713     36716     36724
     36715     36713     36716     36717     36715     36713     36716     36718
     36715     36713     36716     36724     36716     36718     36719     36720
     36716     36718     36719     36721     36716     36724     36727     36728
     36717     36716     36718     36719     36717     36716     36724     36725
     36717     36716     36724     36726     36717     36716     36724     36727
     36718     36716     36724     36725     36718     36716     36724     36726
     36718     36716     36724     36727     36718     36719     36721     36722
     36718     36719     36721     36723     36718     36719     36721     36733
     36719     36718     36716     36724     36719     36721     36733     36734
     36719     36721     36733     36735     36719     36721     36733     36736
     36720     36719     36721     36722     36720     36719     36721     36723
     36720     36719     36721     36733     36721     36733     36736     36737
     36721     36733     36736     36738     36721     36733     36736     36739
     36722     36721     36733     36734     36722     36721     36733     36735
     36722     36721     36733     36736     36723     36721     36733     36734
     36723     36721     36733     36735     36723     36721     36733     36736
     36724     36727     36728     36729     36724     36727     36728     36730
     36725     36724     36727     36728     36726     36724     36727     36728
     36727     36728     36730     36731     36727     36728     36730     36732
     36727     36728     36730     36780     36728     36730     36780     36781
     36728     36730     36780     36782     36728     36730     36780     36783
     36729     36728     36730     36731     36729     36728     36730     36732
     36729     36728     36730     36780     36730     36780     36783     36784
     36730     36780     36783     36785     36730     36780     36783     36786
     36731     36730     36780     36781     36731     36730     36780     36782
     36731     36730     36780     36783     36732     36730     36780     36781
     36732     36730     36780     36782     36732     36730     36780     36783
     36733     36736     36739     36740     36733     36736     36739     36741
     36733     36736     36739     36742     36734     36733     36736     36737
     36734     36733     36736     36738     36734     36733     36736     36739
     36735     36733     36736     36737     36735     36733     36736     36738
     36735     36733     36736     36739     36736     36739     36742     36743
     36736     36739     36742     36744     36736     36739     36742     36745
     36737     36736     36739     36740     36737     36736     36739     36741
     36737     36736     36739     36742     36738     36736     36739     36740
     36738     36736     36739     36741     36738     36736     36739     36742
     36739     36742     36745     36746     36739     36742     36745     36747
     36739     36742     36745     36748     36740     36739     36742     36743
     36740     36739     36742     36744     36740     36739     36742     36745
     36741     36739     36742     36743     36741     36739     36742     36744
     36741     36739     36742     36745     36742     36745     36748     36749
     36742     36745     36748     36750     36742     36745     36748     36751
     36743     36742     36745     36746     36743     36742     36745     36747
     36743     36742     36745     36748     36744     36742     36745     36746
     36744     36742     36745     36747     36744     36742     36745     36748
     36745     36748     36751     36752     36745     36748     36751     36753
     36746     36745     36748     36749     36746     36745     36748     36750
     36746     36745     36748     36751     36747     36745     36748     36749
     36747     36745     36748     36750     36747     36745     36748     36751
     36748     36751     36753     36754     36748     36751     36753     36755
     36749     36748     36751     36752     36749     36748     36751     36753
     36750     36748     36751     36752     36750     36748     36751     36753
     36751     36753     36755     36756     36751     36753     36755     36757
     36751     36753     36755     36758     36752     36751     36753     36754
     36752     36751     36753     36755     36753     36755     36758     36759
     36753     36755     36758     36760     36753     36755     36758     36761
     36754     36753     36755     36756     36754     36753     36755     36757
     36754     36753     36755     36758     36755     36758     36761     36762
     36755     36758     36761     36763     36755     36758     36761     36764
     36756     36755     36758     36759     36756     36755     36758     36760
     36756     36755     36758     36761     36757     36755     36758     36759
     36757     36755     36758     36760     36757     36755     36758     36761
     36758     36761     36764     36765     36758     36761     36764     36766
     36758     36761     36764     36767     36759     36758     36761     36762
     36759     36758     36761     36763     36759     36758     36761     36764
     36760     36758     36761     36762     36760     36758     36761     36763
     36760     36758     36761     36764     36761     36764     36767     36768
     36761     36764     36767     36769     36761     36764     36767     36770
     36762     36761     36764     36765     36762     36761     36764     36766
     36762     36761     36764     36767     36763     36761     36764     36765
     36763     36761     36764     36766     36763     36761     36764     36767
     36764     36767     36770     36771     36764     36767     36770     36772
     36764     36767     36770     36773     36765     36764     36767     36768
     36765     36764     36767     36769     36765     36764     36767     36770
     36766     36764     36767     36768     36766     36764     36767     36769
     36766     36764     36767     36770     36767     36770     36773     36774
     36767     36770     36773     36775     36767     36770     36773     36776
     36768     36767     36770     36771     36768     36767     36770     36772
     36768     36767     36770     36773     36769     36767     36770     36771
     36769     36767     36770     36772     36769     36767     36770     36773
     36770     36773     36776     36777     36770     36773     36776     36778
     36770     36773     36776     36779     36771     36770     36773     36774
     36771     36770     36773     36775     36771     36770     36773     36776
     36772     36770     36773     36774     36772     36770     36773     36775
     36772     36770     36773     36776     36774     36773     36776     36777
     36774     36773     36776     36778     36774     36773     36776     36779
     36775     36773     36776     36777     36775     36773     36776     36778
     36775     36773     36776     36779     36780     36783     36786     36787
     36780     36783     36786     36788     36780     36783     36786     36789
     36781     36780     36783     36784     36781     36780     36783     36785
     36781     36780     36783     36786     36782     36780     36783     36784
     36782     36780     36783     36785     36782     36780     36783     36786
     36783     36786     36789     36790     36783     36786     36789     36791
     36783     36786     36789     36792     36784     36783     36786     36787
     36784     36783     36786     36788     36784     36783     36786     36789
     36785     36783     36786     36787     36785     36783     36786     36788
     36785     36783     36786     36789     36786     36789     36792     36793
     36786     36789     36792     36794     36786     36789     36792     36795
     36787     36786     36789     36790     36787     36786     36789     36791
     36787     36786     36789     36792     36788     36786     36789     36790
     36788     36786     36789     36791     36788     36786     36789     36792
     36789     36792     36795     36796     36789     36792     36795     36797
     36789     36792     36795     36798     36790     36789     36792     36793
     36790     36789     36792     36794     36790     36789     36792     36795
     36791     36789     36792     36793     36791     36789     36792     36794
     36791     36789     36792     36795     36792     36795     36798     36799
     36792     36795     36798     36800     36792     36795     36798     36801
     36793     36792     36795     36796     36793     36792     36795     36797
     36793     36792     36795     36798     36794     36792     36795     36796
     36794     36792     36795     36797     36794     36792     36795     36798
     36795     36798     36801     36802     36795     36798     36801     36803
     36795     36798     36801     36804     36796     36795     36798     36799
     36796     36795     36798     36800     36796     36795     36798     36801
     36797     36795     36798     36799     36797     36795     36798     36800
     36797     36795     36798     36801     36798     36801     36804     36805
     36798     36801     36804     36806     36798     36801     36804     36807
     36799     36798     36801     36802     36799     36798     36801     36803
     36799     36798     36801     36804     36800     36798     36801     36802
     36800     36798     36801     36803     36800     36798     36801     36804
     36801     36804     36807     36808     36801     36804     36807     36809
     36801     36804     36807     36810     36802     36801     36804     36805
     36802     36801     36804     36806     36802     36801     36804     36807
     36803     36801     36804     36805     36803     36801     36804     36806
     36803     36801     36804     36807     36804     36807     36810     36811
     36804     36807     36810     36812     36804     36807     36810     36813
     36805     36804     36807     36808     36805     36804     36807     36809
     36805     36804     36807     36810     36806     36804     36807     36808
     36806     36804     36807     36809     36806     36804     36807     36810
     36807     36810     36813     36814     36807     36810     36813     36815
     36807     36810     36813     36816     36808     36807     36810     36811
     36808     36807     36810     36812     36808     36807     36810     36813
     36809     36807     36810     36811     36809     36807     36810     36812
     36809     36807     36810     36813     36810     36813     36816     36817
     36810     36813     36816     36818     36810     36813     36816     36819
     36811     36810     36813     36814     36811     36810     36813     36815
     36811     36810     36813     36816     36812     36810     36813     36814
     36812     36810     36813     36815     36812     36810     36813     36816
     36813     36816     36819     36820     36813     36816     36819     36821
     36813     36816     36819     36822     36814     36813     36816     36817
     36814     36813     36816     36818     36814     36813     36816     36819
     36815     36813     36816     36817     36815     36813     36816     36818
     36815     36813     36816     36819     36817     36816     36819     36820
     36817     36816     36819     36821     36817     36816     36819     36822
     36818     36816     36819     36820     36818     36816     36819     36821
     36818     36816     36819     36822     36823     36824     36839     36840
     36823     36824     36839     36841     36823     36824     36839     36845
     36824     36823     36827     36828     36824     36823     36827     36829
     36824     36823     36827     36830     36824     36823     36831     36832
     36824     36823     36831     36833     36824     36823     36831     36834
     36824     36823     36835     36836     36824     36823     36835     36837
     36824     36823     36835     36838     36824     36839     36845     36842
     36825     36824     36823     36827     36825     36824     36823     36831
     36825     36824     36823     36835     36825     36824     36839     36840
     36825     36824     36839     36841     36825     36824     36839     36845
     36826     36824     36823     36827     36826     36824     36823     36831
     36826     36824     36823     36835     36826     36824     36839     36840
     36826     36824     36839     36841     36826     36824     36839     36845
     36827     36823     36824     36839     36827     36823     36831     36832
     36827     36823     36831     36833     36827     36823     36831     36834
     36827     36823     36835     36836     36827     36823     36835     36837
     36827     36823     36835     36838     36828     36827     36823     36831
     36828     36827     36823     36835     36829     36827     36823     36831
     36829     36827     36823     36835     36830     36827     36823     36831
     36830     36827     36823     36835     36831     36823     36824     36839
     36831     36823     36835     36836     36831     36823     36835     36837
     36831     36823     36835     36838     36832     36831     36823     36835
     36833     36831     36823     36835     36834     36831     36823     36835
     36835     36823     36824     36839     36839     36845     36842     36843
     36839     36845     36842     36844     36839     36845     36842     36846
     36840     36839     36845     36842     36841     36839     36845     36842
     36842     36846     36847     36848     36842     36846     36847     36849
     36842     36846     36847     36850     36843     36842     36846     36847
     36844     36842     36846     36847     36845     36842     36846     36847
     36846     36847     36850     36851     36846     36847     36850     36852
     36846     36847     36850     36858     36847     36850     36852     36853
     36847     36850     36858     36859     36847     36850     36858     36860
     36847     36850     36858     36861     36848     36847     36850     36851
     36848     36847     36850     36852     36848     36847     36850     36858
     36849     36847     36850     36851     36849     36847     36850     36852
     36849     36847     36850     36858     36850     36852     36853     36854
     36850     36852     36853     36855     36850     36858     36861     36862
     36851     36850     36852     36853     36851     36850     36858     36859
     36851     36850     36858     36860     36851     36850     36858     36861
     36852     36850     36858     36859     36852     36850     36858     36860
     36852     36850     36858     36861     36852     36853     36855     36856
     36852     36853     36855     36857     36852     36853     36855     36867
     36853     36852     36850     36858     36853     36855     36867     36868
     36853     36855     36867     36869     36853     36855     36867     36870
     36854     36853     36855     36856     36854     36853     36855     36857
     36854     36853     36855     36867     36855     36867     36870     36871
     36855     36867     36870     36872     36855     36867     36870     36873
     36856     36855     36867     36868     36856     36855     36867     36869
     36856     36855     36867     36870     36857     36855     36867     36868
     36857     36855     36867     36869     36857     36855     36867     36870
     36858     36861     36862     36863     36858     36861     36862     36864
     36859     36858     36861     36862     36860     36858     36861     36862
     36861     36862     36864     36865     36861     36862     36864     36866
     36861     36862     36864     36914     36862     36864     36914     36915
     36862     36864     36914     36916     36862     36864     36914     36917
     36863     36862     36864     36865     36863     36862     36864     36866
     36863     36862     36864     36914     36864     36914     36917     36918
     36864     36914     36917     36919     36864     36914     36917     36920
     36865     36864     36914     36915     36865     36864     36914     36916
     36865     36864     36914     36917     36866     36864     36914     36915
     36866     36864     36914     36916     36866     36864     36914     36917
     36867     36870     36873     36874     36867     36870     36873     36875
     36867     36870     36873     36876     36868     36867     36870     36871
     36868     36867     36870     36872     36868     36867     36870     36873
     36869     36867     36870     36871     36869     36867     36870     36872
     36869     36867     36870     36873     36870     36873     36876     36877
     36870     36873     36876     36878     36870     36873     36876     36879
     36871     36870     36873     36874     36871     36870     36873     36875
     36871     36870     36873     36876     36872     36870     36873     36874
     36872     36870     36873     36875     36872     36870     36873     36876
     36873     36876     36879     36880     36873     36876     36879     36881
     36873     36876     36879     36882     36874     36873     36876     36877
     36874     36873     36876     36878     36874     36873     36876     36879
     36875     36873     36876     36877     36875     36873     36876     36878
     36875     36873     36876     36879     36876     36879     36882     36883
     36876     36879     36882     36884     36876     36879     36882     36885
     36877     36876     36879     36880     36877     36876     36879     36881
     36877     36876     36879     36882     36878     36876     36879     36880
     36878     36876     36879     36881     36878     36876     36879     36882
     36879     36882     36885     36886     36879     36882     36885     36887
     36880     36879     36882     36883     36880     36879     36882     36884
     36880     36879     36882     36885     36881     36879     36882     36883
     36881     36879     36882     36884     36881     36879     36882     36885
     36882     36885     36887     36888     36882     36885     36887     36889
     36883     36882     36885     36886     36883     36882     36885     36887
     36884     36882     36885     36886     36884     36882     36885     36887
     36885     36887     36889     36890     36885     36887     36889     36891
     36885     36887     36889     36892     36886     36885     36887     36888
     36886     36885     36887     36889     36887     36889     36892     36893
     36887     36889     36892     36894     36887     36889     36892     36895
     36888     36887     36889     36890     36888     36887     36889     36891
     36888     36887     36889     36892     36889     36892     36895     36896
     36889     36892     36895     36897     36889     36892     36895     36898
     36890     36889     36892     36893     36890     36889     36892     36894
     36890     36889     36892     36895     36891     36889     36892     36893
     36891     36889     36892     36894     36891     36889     36892     36895
     36892     36895     36898     36899     36892     36895     36898     36900
     36892     36895     36898     36901     36893     36892     36895     36896
     36893     36892     36895     36897     36893     36892     36895     36898
     36894     36892     36895     36896     36894     36892     36895     36897
     36894     36892     36895     36898     36895     36898     36901     36902
     36895     36898     36901     36903     36895     36898     36901     36904
     36896     36895     36898     36899     36896     36895     36898     36900
     36896     36895     36898     36901     36897     36895     36898     36899
     36897     36895     36898     36900     36897     36895     36898     36901
     36898     36901     36904     36905     36898     36901     36904     36906
     36898     36901     36904     36907     36899     36898     36901     36902
     36899     36898     36901     36903     36899     36898     36901     36904
     36900     36898     36901     36902     36900     36898     36901     36903
     36900     36898     36901     36904     36901     36904     36907     36908
     36901     36904     36907     36909     36901     36904     36907     36910
     36902     36901     36904     36905     36902     36901     36904     36906
     36902     36901     36904     36907     36903     36901     36904     36905
     36903     36901     36904     36906     36903     36901     36904     36907
     36904     36907     36910     36911     36904     36907     36910     36912
     36904     36907     36910     36913     36905     36904     36907     36908
     36905     36904     36907     36909     36905     36904     36907     36910
     36906     36904     36907     36908     36906     36904     36907     36909
     36906     36904     36907     36910     36908     36907     36910     36911
     36908     36907     36910     36912     36908     36907     36910     36913
     36909     36907     36910     36911     36909     36907     36910     36912
     36909     36907     36910     36913     36914     36917     36920     36921
     36914     36917     36920     36922     36914     36917     36920     36923
     36915     36914     36917     36918     36915     36914     36917     36919
     36915     36914     36917     36920     36916     36914     36917     36918
     36916     36914     36917     36919     36916     36914     36917     36920
     36917     36920     36923     36924     36917     36920     36923     36925
     36917     36920     36923     36926     36918     36917     36920     36921
     36918     36917     36920     36922     36918     36917     36920     36923
     36919     36917     36920     36921     36919     36917     36920     36922
     36919     36917     36920     36923     36920     36923     36926     36927
     36920     36923     36926     36928     36920     36923     36926     36929
     36921     36920     36923     36924     36921     36920     36923     36925
     36921     36920     36923     36926     36922     36920     36923     36924
     36922     36920     36923     36925     36922     36920     36923     36926
     36923     36926     36929     36930     36923     36926     36929     36931
     36923     36926     36929     36932     36924     36923     36926     36927
     36924     36923     36926     36928     36924     36923     36926     36929
     36925     36923     36926     36927     36925     36923     36926     36928
     36925     36923     36926     36929     36926     36929     36932     36933
     36926     36929     36932     36934     36926     36929     36932     36935
     36927     36926     36929     36930     36927     36926     36929     36931
     36927     36926     36929     36932     36928     36926     36929     36930
     36928     36926     36929     36931     36928     36926     36929     36932
     36929     36932     36935     36936     36929     36932     36935     36937
     36929     36932     36935     36938     36930     36929     36932     36933
     36930     36929     36932     36934     36930     36929     36932     36935
     36931     36929     36932     36933     36931     36929     36932     36934
     36931     36929     36932     36935     36932     36935     36938     36939
     36932     36935     36938     36940     36932     36935     36938     36941
     36933     36932     36935     36936     36933     36932     36935     36937
     36933     36932     36935     36938     36934     36932     36935     36936
     36934     36932     36935     36937     36934     36932     36935     36938
     36935     36938     36941     36942     36935     36938     36941     36943
     36935     36938     36941     36944     36936     36935     36938     36939
     36936     36935     36938     36940     36936     36935     36938     36941
     36937     36935     36938     36939     36937     36935     36938     36940
     36937     36935     36938     36941     36938     36941     36944     36945
     36938     36941     36944     36946     36938     36941     36944     36947
     36939     36938     36941     36942     36939     36938     36941     36943
     36939     36938     36941     36944     36940     36938     36941     36942
     36940     36938     36941     36943     36940     36938     36941     36944
     36941     36944     36947     36948     36941     36944     36947     36949
     36941     36944     36947     36950     36942     36941     36944     36945
     36942     36941     36944     36946     36942     36941     36944     36947
     36943     36941     36944     36945     36943     36941     36944     36946
     36943     36941     36944     36947     36944     36947     36950     36951
     36944     36947     36950     36952     36944     36947     36950     36953
     36945     36944     36947     36948     36945     36944     36947     36949
     36945     36944     36947     36950     36946     36944     36947     36948
     36946     36944     36947     36949     36946     36944     36947     36950
     36947     36950     36953     36954     36947     36950     36953     36955
     36947     36950     36953     36956     36948     36947     36950     36951
     36948     36947     36950     36952     36948     36947     36950     36953
     36949     36947     36950     36951     36949     36947     36950     36952
     36949     36947     36950     36953     36951     36950     36953     36954
     36951     36950     36953     36955     36951     36950     36953     36956
     36952     36950     36953     36954     36952     36950     36953     36955
     36952     36950     36953     36956     36957     36958     36973     36974
     36957     36958     36973     36975     36957     36958     36973     36979
     36958     36957     36961     36962     36958     36957     36961     36963
     36958     36957     36961     36964     36958     36957     36965     36966
     36958     36957     36965     36967     36958     36957     36965     36968
     36958     36957     36969     36970     36958     36957     36969     36971
     36958     36957     36969     36972     36958     36973     36979     36976
     36959     36958     36957     36961     36959     36958     36957     36965
     36959     36958     36957     36969     36959     36958     36973     36974
     36959     36958     36973     36975     36959     36958     36973     36979
     36960     36958     36957     36961     36960     36958     36957     36965
     36960     36958     36957     36969     36960     36958     36973     36974
     36960     36958     36973     36975     36960     36958     36973     36979
     36961     36957     36958     36973     36961     36957     36965     36966
     36961     36957     36965     36967     36961     36957     36965     36968
     36961     36957     36969     36970     36961     36957     36969     36971
     36961     36957     36969     36972     36962     36961     36957     36965
     36962     36961     36957     36969     36963     36961     36957     36965
     36963     36961     36957     36969     36964     36961     36957     36965
     36964     36961     36957     36969     36965     36957     36958     36973
     36965     36957     36969     36970     36965     36957     36969     36971
     36965     36957     36969     36972     36966     36965     36957     36969
     36967     36965     36957     36969     36968     36965     36957     36969
     36969     36957     36958     36973     36973     36979     36976     36977
     36973     36979     36976     36978     36973     36979     36976     36980
     36974     36973     36979     36976     36975     36973     36979     36976
     36976     36980     36981     36982     36976     36980     36981     36983
     36976     36980     36981     36984     36977     36976     36980     36981
     36978     36976     36980     36981     36979     36976     36980     36981
     36980     36981     36984     36985     36980     36981     36984     36986
     36980     36981     36984     36992     36981     36984     36986     36987
     36981     36984     36992     36993     36981     36984     36992     36994
     36981     36984     36992     36995     36982     36981     36984     36985
     36982     36981     36984     36986     36982     36981     36984     36992
     36983     36981     36984     36985     36983     36981     36984     36986
     36983     36981     36984     36992     36984     36986     36987     36988
     36984     36986     36987     36989     36984     36992     36995     36996
     36985     36984     36986     36987     36985     36984     36992     36993
     36985     36984     36992     36994     36985     36984     36992     36995
     36986     36984     36992     36993     36986     36984     36992     36994
     36986     36984     36992     36995     36986     36987     36989     36990
     36986     36987     36989     36991     36986     36987     36989     37001
     36987     36986     36984     36992     36987     36989     37001     37002
     36987     36989     37001     37003     36987     36989     37001     37004
     36988     36987     36989     36990     36988     36987     36989     36991
     36988     36987     36989     37001     36989     37001     37004     37005
     36989     37001     37004     37006     36989     37001     37004     37007
     36990     36989     37001     37002     36990     36989     37001     37003
     36990     36989     37001     37004     36991     36989     37001     37002
     36991     36989     37001     37003     36991     36989     37001     37004
     36992     36995     36996     36997     36992     36995     36996     36998
     36993     36992     36995     36996     36994     36992     36995     36996
     36995     36996     36998     36999     36995     36996     36998     37000
     36995     36996     36998     37048     36996     36998     37048     37049
     36996     36998     37048     37050     36996     36998     37048     37051
     36997     36996     36998     36999     36997     36996     36998     37000
     36997     36996     36998     37048     36998     37048     37051     37052
     36998     37048     37051     37053     36998     37048     37051     37054
     36999     36998     37048     37049     36999     36998     37048     37050
     36999     36998     37048     37051     37000     36998     37048     37049
     37000     36998     37048     37050     37000     36998     37048     37051
     37001     37004     37007     37008     37001     37004     37007     37009
     37001     37004     37007     37010     37002     37001     37004     37005
     37002     37001     37004     37006     37002     37001     37004     37007
     37003     37001     37004     37005     37003     37001     37004     37006
     37003     37001     37004     37007     37004     37007     37010     37011
     37004     37007     37010     37012     37004     37007     37010     37013
     37005     37004     37007     37008     37005     37004     37007     37009
     37005     37004     37007     37010     37006     37004     37007     37008
     37006     37004     37007     37009     37006     37004     37007     37010
     37007     37010     37013     37014     37007     37010     37013     37015
     37007     37010     37013     37016     37008     37007     37010     37011
     37008     37007     37010     37012     37008     37007     37010     37013
     37009     37007     37010     37011     37009     37007     37010     37012
     37009     37007     37010     37013     37010     37013     37016     37017
     37010     37013     37016     37018     37010     37013     37016     37019
     37011     37010     37013     37014     37011     37010     37013     37015
     37011     37010     37013     37016     37012     37010     37013     37014
     37012     37010     37013     37015     37012     37010     37013     37016
     37013     37016     37019     37020     37013     37016     37019     37021
     37014     37013     37016     37017     37014     37013     37016     37018
     37014     37013     37016     37019     37015     37013     37016     37017
     37015     37013     37016     37018     37015     37013     37016     37019
     37016     37019     37021     37022     37016     37019     37021     37023
     37017     37016     37019     37020     37017     37016     37019     37021
     37018     37016     37019     37020     37018     37016     37019     37021
     37019     37021     37023     37024     37019     37021     37023     37025
     37019     37021     37023     37026     37020     37019     37021     37022
     37020     37019     37021     37023     37021     37023     37026     37027
     37021     37023     37026     37028     37021     37023     37026     37029
     37022     37021     37023     37024     37022     37021     37023     37025
     37022     37021     37023     37026     37023     37026     37029     37030
     37023     37026     37029     37031     37023     37026     37029     37032
     37024     37023     37026     37027     37024     37023     37026     37028
     37024     37023     37026     37029     37025     37023     37026     37027
     37025     37023     37026     37028     37025     37023     37026     37029
     37026     37029     37032     37033     37026     37029     37032     37034
     37026     37029     37032     37035     37027     37026     37029     37030
     37027     37026     37029     37031     37027     37026     37029     37032
     37028     37026     37029     37030     37028     37026     37029     37031
     37028     37026     37029     37032     37029     37032     37035     37036
     37029     37032     37035     37037     37029     37032     37035     37038
     37030     37029     37032     37033     37030     37029     37032     37034
     37030     37029     37032     37035     37031     37029     37032     37033
     37031     37029     37032     37034     37031     37029     37032     37035
     37032     37035     37038     37039     37032     37035     37038     37040
     37032     37035     37038     37041     37033     37032     37035     37036
     37033     37032     37035     37037     37033     37032     37035     37038
     37034     37032     37035     37036     37034     37032     37035     37037
     37034     37032     37035     37038     37035     37038     37041     37042
     37035     37038     37041     37043     37035     37038     37041     37044
     37036     37035     37038     37039     37036     37035     37038     37040
     37036     37035     37038     37041     37037     37035     37038     37039
     37037     37035     37038     37040     37037     37035     37038     37041
     37038     37041     37044     37045     37038     37041     37044     37046
     37038     37041     37044     37047     37039     37038     37041     37042
     37039     37038     37041     37043     37039     37038     37041     37044
     37040     37038     37041     37042     37040     37038     37041     37043
     37040     37038     37041     37044     37042     37041     37044     37045
     37042     37041     37044     37046     37042     37041     37044     37047
     37043     37041     37044     37045     37043     37041     37044     37046
     37043     37041     37044     37047     37048     37051     37054     37055
     37048     37051     37054     37056     37048     37051     37054     37057
     37049     37048     37051     37052     37049     37048     37051     37053
     37049     37048     37051     37054     37050     37048     37051     37052
     37050     37048     37051     37053     37050     37048     37051     37054
     37051     37054     37057     37058     37051     37054     37057     37059
     37051     37054     37057     37060     37052     37051     37054     37055
     37052     37051     37054     37056     37052     37051     37054     37057
     37053     37051     37054     37055     37053     37051     37054     37056
     37053     37051     37054     37057     37054     37057     37060     37061
     37054     37057     37060     37062     37054     37057     37060     37063
     37055     37054     37057     37058     37055     37054     37057     37059
     37055     37054     37057     37060     37056     37054     37057     37058
     37056     37054     37057     37059     37056     37054     37057     37060
     37057     37060     37063     37064     37057     37060     37063     37065
     37057     37060     37063     37066     37058     37057     37060     37061
     37058     37057     37060     37062     37058     37057     37060     37063
     37059     37057     37060     37061     37059     37057     37060     37062
     37059     37057     37060     37063     37060     37063     37066     37067
     37060     37063     37066     37068     37060     37063     37066     37069
     37061     37060     37063     37064     37061     37060     37063     37065
     37061     37060     37063     37066     37062     37060     37063     37064
     37062     37060     37063     37065     37062     37060     37063     37066
     37063     37066     37069     37070     37063     37066     37069     37071
     37063     37066     37069     37072     37064     37063     37066     37067
     37064     37063     37066     37068     37064     37063     37066     37069
     37065     37063     37066     37067     37065     37063     37066     37068
     37065     37063     37066     37069     37066     37069     37072     37073
     37066     37069     37072     37074     37066     37069     37072     37075
     37067     37066     37069     37070     37067     37066     37069     37071
     37067     37066     37069     37072     37068     37066     37069     37070
     37068     37066     37069     37071     37068     37066     37069     37072
     37069     37072     37075     37076     37069     37072     37075     37077
     37069     37072     37075     37078     37070     37069     37072     37073
     37070     37069     37072     37074     37070     37069     37072     37075
     37071     37069     37072     37073     37071     37069     37072     37074
     37071     37069     37072     37075     37072     37075     37078     37079
     37072     37075     37078     37080     37072     37075     37078     37081
     37073     37072     37075     37076     37073     37072     37075     37077
     37073     37072     37075     37078     37074     37072     37075     37076
     37074     37072     37075     37077     37074     37072     37075     37078
     37075     37078     37081     37082     37075     37078     37081     37083
     37075     37078     37081     37084     37076     37075     37078     37079
     37076     37075     37078     37080     37076     37075     37078     37081
     37077     37075     37078     37079     37077     37075     37078     37080
     37077     37075     37078     37081     37078     37081     37084     37085
     37078     37081     37084     37086     37078     37081     37084     37087
     37079     37078     37081     37082     37079     37078     37081     37083
     37079     37078     37081     37084     37080     37078     37081     37082
     37080     37078     37081     37083     37080     37078     37081     37084
     37081     37084     37087     37088     37081     37084     37087     37089
     37081     37084     37087     37090     37082     37081     37084     37085
     37082     37081     37084     37086     37082     37081     37084     37087
     37083     37081     37084     37085     37083     37081     37084     37086
     37083     37081     37084     37087     37085     37084     37087     37088
     37085     37084     37087     37089     37085     37084     37087     37090
     37086     37084     37087     37088     37086     37084     37087     37089
     37086     37084     37087     37090     37091     37092     37107     37108
     37091     37092     37107     37109     37091     37092     37107     37113
     37092     37091     37095     37096     37092     37091     37095     37097
     37092     37091     37095     37098     37092     37091     37099     37100
     37092     37091     37099     37101     37092     37091     37099     37102
     37092     37091     37103     37104     37092     37091     37103     37105
     37092     37091     37103     37106     37092     37107     37113     37110
     37093     37092     37091     37095     37093     37092     37091     37099
     37093     37092     37091     37103     37093     37092     37107     37108
     37093     37092     37107     37109     37093     37092     37107     37113
     37094     37092     37091     37095     37094     37092     37091     37099
     37094     37092     37091     37103     37094     37092     37107     37108
     37094     37092     37107     37109     37094     37092     37107     37113
     37095     37091     37092     37107     37095     37091     37099     37100
     37095     37091     37099     37101     37095     37091     37099     37102
     37095     37091     37103     37104     37095     37091     37103     37105
     37095     37091     37103     37106     37096     37095     37091     37099
     37096     37095     37091     37103     37097     37095     37091     37099
     37097     37095     37091     37103     37098     37095     37091     37099
     37098     37095     37091     37103     37099     37091     37092     37107
     37099     37091     37103     37104     37099     37091     37103     37105
     37099     37091     37103     37106     37100     37099     37091     37103
     37101     37099     37091     37103     37102     37099     37091     37103
     37103     37091     37092     37107     37107     37113     37110     37111
     37107     37113     37110     37112     37107     37113     37110     37114
     37108     37107     37113     37110     37109     37107     37113     37110
     37110     37114     37115     37116     37110     37114     37115     37117
     37110     37114     37115     37118     37111     37110     37114     37115
     37112     37110     37114     37115     37113     37110     37114     37115
     37114     37115     37118     37119     37114     37115     37118     37120
     37114     37115     37118     37126     37115     37118     37120     37121
     37115     37118     37126     37127     37115     37118     37126     37128
     37115     37118     37126     37129     37116     37115     37118     37119
     37116     37115     37118     37120     37116     37115     37118     37126
     37117     37115     37118     37119     37117     37115     37118     37120
     37117     37115     37118     37126     37118     37120     37121     37122
     37118     37120     37121     37123     37118     37126     37129     37130
     37119     37118     37120     37121     37119     37118     37126     37127
     37119     37118     37126     37128     37119     37118     37126     37129
     37120     37118     37126     37127     37120     37118     37126     37128
     37120     37118     37126     37129     37120     37121     37123     37124
     37120     37121     37123     37125     37120     37121     37123     37135
     37121     37120     37118     37126     37121     37123     37135     37136
     37121     37123     37135     37137     37121     37123     37135     37138
     37122     37121     37123     37124     37122     37121     37123     37125
     37122     37121     37123     37135     37123     37135     37138     37139
     37123     37135     37138     37140     37123     37135     37138     37141
     37124     37123     37135     37136     37124     37123     37135     37137
     37124     37123     37135     37138     37125     37123     37135     37136
     37125     37123     37135     37137     37125     37123     37135     37138
     37126     37129     37130     37131     37126     37129     37130     37132
     37127     37126     37129     37130     37128     37126     37129     37130
     37129     37130     37132     37133     37129     37130     37132     37134
     37129     37130     37132     37182     37130     37132     37182     37183
     37130     37132     37182     37184     37130     37132     37182     37185
     37131     37130     37132     37133     37131     37130     37132     37134
     37131     37130     37132     37182     37132     37182     37185     37186
     37132     37182     37185     37187     37132     37182     37185     37188
     37133     37132     37182     37183     37133     37132     37182     37184
     37133     37132     37182     37185     37134     37132     37182     37183
     37134     37132     37182     37184     37134     37132     37182     37185
     37135     37138     37141     37142     37135     37138     37141     37143
     37135     37138     37141     37144     37136     37135     37138     37139
     37136     37135     37138     37140     37136     37135     37138     37141
     37137     37135     37138     37139     37137     37135     37138     37140
     37137     37135     37138     37141     37138     37141     37144     37145
     37138     37141     37144     37146     37138     37141     37144     37147
     37139     37138     37141     37142     37139     37138     37141     37143
     37139     37138     37141     37144     37140     37138     37141     37142
     37140     37138     37141     37143     37140     37138     37141     37144
     37141     37144     37147     37148     37141     37144     37147     37149
     37141     37144     37147     37150     37142     37141     37144     37145
     37142     37141     37144     37146     37142     37141     37144     37147
     37143     37141     37144     37145     37143     37141     37144     37146
     37143     37141     37144     37147     37144     37147     37150     37151
     37144     37147     37150     37152     37144     37147     37150     37153
     37145     37144     37147     37148     37145     37144     37147     37149
     37145     37144     37147     37150     37146     37144     37147     37148
     37146     37144     37147     37149     37146     37144     37147     37150
     37147     37150     37153     37154     37147     37150     37153     37155
     37148     37147     37150     37151     37148     37147     37150     37152
     37148     37147     37150     37153     37149     37147     37150     37151
     37149     37147     37150     37152     37149     37147     37150     37153
     37150     37153     37155     37156     37150     37153     37155     37157
     37151     37150     37153     37154     37151     37150     37153     37155
     37152     37150     37153     37154     37152     37150     37153     37155
     37153     37155     37157     37158     37153     37155     37157     37159
     37153     37155     37157     37160     37154     37153     37155     37156
     37154     37153     37155     37157     37155     37157     37160     37161
     37155     37157     37160     37162     37155     37157     37160     37163
     37156     37155     37157     37158     37156     37155     37157     37159
     37156     37155     37157     37160     37157     37160     37163     37164
     37157     37160     37163     37165     37157     37160     37163     37166
     37158     37157     37160     37161     37158     37157     37160     37162
     37158     37157     37160     37163     37159     37157     37160     37161
     37159     37157     37160     37162     37159     37157     37160     37163
     37160     37163     37166     37167     37160     37163     37166     37168
     37160     37163     37166     37169     37161     37160     37163     37164
     37161     37160     37163     37165     37161     37160     37163     37166
     37162     37160     37163     37164     37162     37160     37163     37165
     37162     37160     37163     37166     37163     37166     37169     37170
     37163     37166     37169     37171     37163     37166     37169     37172
     37164     37163     37166     37167     37164     37163     37166     37168
     37164     37163     37166     37169     37165     37163     37166     37167
     37165     37163     37166     37168     37165     37163     37166     37169
     37166     37169     37172     37173     37166     37169     37172     37174
     37166     37169     37172     37175     37167     37166     37169     37170
     37167     37166     37169     37171     37167     37166     37169     37172
     37168     37166     37169     37170     37168     37166     37169     37171
     37168     37166     37169     37172     37169     37172     37175     37176
     37169     37172     37175     37177     37169     37172     37175     37178
     37170     37169     37172     37173     37170     37169     37172     37174
     37170     37169     37172     37175     37171     37169     37172     37173
     37171     37169     37172     37174     37171     37169     37172     37175
     37172     37175     37178     37179     37172     37175     37178     37180
     37172     37175     37178     37181     37173     37172     37175     37176
     37173     37172     37175     37177     37173     37172     37175     37178
     37174     37172     37175     37176     37174     37172     37175     37177
     37174     37172     37175     37178     37176     37175     37178     37179
     37176     37175     37178     37180     37176     37175     37178     37181
     37177     37175     37178     37179     37177     37175     37178     37180
     37177     37175     37178     37181     37182     37185     37188     37189
     37182     37185     37188     37190     37182     37185     37188     37191
     37183     37182     37185     37186     37183     37182     37185     37187
     37183     37182     37185     37188     37184     37182     37185     37186
     37184     37182     37185     37187     37184     37182     37185     37188
     37185     37188     37191     37192     37185     37188     37191     37193
     37185     37188     37191     37194     37186     37185     37188     37189
     37186     37185     37188     37190     37186     37185     37188     37191
     37187     37185     37188     37189     37187     37185     37188     37190
     37187     37185     37188     37191     37188     37191     37194     37195
     37188     37191     37194     37196     37188     37191     37194     37197
     37189     37188     37191     37192     37189     37188     37191     37193
     37189     37188     37191     37194     37190     37188     37191     37192
     37190     37188     37191     37193     37190     37188     37191     37194
     37191     37194     37197     37198     37191     37194     37197     37199
     37191     37194     37197     37200     37192     37191     37194     37195
     37192     37191     37194     37196     37192     37191     37194     37197
     37193     37191     37194     37195     37193     37191     37194     37196
     37193     37191     37194     37197     37194     37197     37200     37201
     37194     37197     37200     37202     37194     37197     37200     37203
     37195     37194     37197     37198     37195     37194     37197     37199
     37195     37194     37197     37200     37196     37194     37197     37198
     37196     37194     37197     37199     37196     37194     37197     37200
     37197     37200     37203     37204     37197     37200     37203     37205
     37197     37200     37203     37206     37198     37197     37200     37201
     37198     37197     37200     37202     37198     37197     37200     37203
     37199     37197     37200     37201     37199     37197     37200     37202
     37199     37197     37200     37203     37200     37203     37206     37207
     37200     37203     37206     37208     37200     37203     37206     37209
     37201     37200     37203     37204     37201     37200     37203     37205
     37201     37200     37203     37206     37202     37200     37203     37204
     37202     37200     37203     37205     37202     37200     37203     37206
     37203     37206     37209     37210     37203     37206     37209     37211
     37203     37206     37209     37212     37204     37203     37206     37207
     37204     37203     37206     37208     37204     37203     37206     37209
     37205     37203     37206     37207     37205     37203     37206     37208
     37205     37203     37206     37209     37206     37209     37212     37213
     37206     37209     37212     37214     37206     37209     37212     37215
     37207     37206     37209     37210     37207     37206     37209     37211
     37207     37206     37209     37212     37208     37206     37209     37210
     37208     37206     37209     37211     37208     37206     37209     37212
     37209     37212     37215     37216     37209     37212     37215     37217
     37209     37212     37215     37218     37210     37209     37212     37213
     37210     37209     37212     37214     37210     37209     37212     37215
     37211     37209     37212     37213     37211     37209     37212     37214
     37211     37209     37212     37215     37212     37215     37218     37219
     37212     37215     37218     37220     37212     37215     37218     37221
     37213     37212     37215     37216     37213     37212     37215     37217
     37213     37212     37215     37218     37214     37212     37215     37216
     37214     37212     37215     37217     37214     37212     37215     37218
     37215     37218     37221     37222     37215     37218     37221     37223
     37215     37218     37221     37224     37216     37215     37218     37219
     37216     37215     37218     37220     37216     37215     37218     37221
     37217     37215     37218     37219     37217     37215     37218     37220
     37217     37215     37218     37221     37219     37218     37221     37222
     37219     37218     37221     37223     37219     37218     37221     37224
     37220     37218     37221     37222     37220     37218     37221     37223
     37220     37218     37221     37224     37225     37226     37241     37242
     37225     37226     37241     37243     37225     37226     37241     37247
     37226     37225     37229     37230     37226     37225     37229     37231
     37226     37225     37229     37232     37226     37225     37233     37234
     37226     37225     37233     37235     37226     37225     37233     37236
     37226     37225     37237     37238     37226     37225     37237     37239
     37226     37225     37237     37240     37226     37241     37247     37244
     37227     37226     37225     37229     37227     37226     37225     37233
     37227     37226     37225     37237     37227     37226     37241     37242
     37227     37226     37241     37243     37227     37226     37241     37247
     37228     37226     37225     37229     37228     37226     37225     37233
     37228     37226     37225     37237     37228     37226     37241     37242
     37228     37226     37241     37243     37228     37226     37241     37247
     37229     37225     37226     37241     37229     37225     37233     37234
     37229     37225     37233     37235     37229     37225     37233     37236
     37229     37225     37237     37238     37229     37225     37237     37239
     37229     37225     37237     37240     37230     37229     37225     37233
     37230     37229     37225     37237     37231     37229     37225     37233
     37231     37229     37225     37237     37232     37229     37225     37233
     37232     37229     37225     37237     37233     37225     37226     37241
     37233     37225     37237     37238     37233     37225     37237     37239
     37233     37225     37237     37240     37234     37233     37225     37237
     37235     37233     37225     37237     37236     37233     37225     37237
     37237     37225     37226     37241     37241     37247     37244     37245
     37241     37247     37244     37246     37241     37247     37244     37248
     37242     37241     37247     37244     37243     37241     37247     37244
     37244     37248     37249     37250     37244     37248     37249     37251
     37244     37248     37249     37252     37245     37244     37248     37249
     37246     37244     37248     37249     37247     37244     37248     37249
     37248     37249     37252     37253     37248     37249     37252     37254
     37248     37249     37252     37260     37249     37252     37254     37255
     37249     37252     37260     37261     37249     37252     37260     37262
     37249     37252     37260     37263     37250     37249     37252     37253
     37250     37249     37252     37254     37250     37249     37252     37260
     37251     37249     37252     37253     37251     37249     37252     37254
     37251     37249     37252     37260     37252     37254     37255     37256
     37252     37254     37255     37257     37252     37260     37263     37264
     37253     37252     37254     37255     37253     37252     37260     37261
     37253     37252     37260     37262     37253     37252     37260     37263
     37254     37252     37260     37261     37254     37252     37260     37262
     37254     37252     37260     37263     37254     37255     37257     37258
     37254     37255     37257     37259     37254     37255     37257     37269
     37255     37254     37252     37260     37255     37257     37269     37270
     37255     37257     37269     37271     37255     37257     37269     37272
     37256     37255     37257     37258     37256     37255     37257     37259
     37256     37255     37257     37269     37257     37269     37272     37273
     37257     37269     37272     37274     37257     37269     37272     37275
     37258     37257     37269     37270     37258     37257     37269     37271
     37258     37257     37269     37272     37259     37257     37269     37270
     37259     37257     37269     37271     37259     37257     37269     37272
     37260     37263     37264     37265     37260     37263     37264     37266
     37261     37260     37263     37264     37262     37260     37263     37264
     37263     37264     37266     37267     37263     37264     37266     37268
     37263     37264     37266     37316     37264     37266     37316     37317
     37264     37266     37316     37318     37264     37266     37316     37319
     37265     37264     37266     37267     37265     37264     37266     37268
     37265     37264     37266     37316     37266     37316     37319     37320
     37266     37316     37319     37321     37266     37316     37319     37322
     37267     37266     37316     37317     37267     37266     37316     37318
     37267     37266     37316     37319     37268     37266     37316     37317
     37268     37266     37316     37318     37268     37266     37316     37319
     37269     37272     37275     37276     37269     37272     37275     37277
     37269     37272     37275     37278     37270     37269     37272     37273
     37270     37269     37272     37274     37270     37269     37272     37275
     37271     37269     37272     37273     37271     37269     37272     37274
     37271     37269     37272     37275     37272     37275     37278     37279
     37272     37275     37278     37280     37272     37275     37278     37281
     37273     37272     37275     37276     37273     37272     37275     37277
     37273     37272     37275     37278     37274     37272     37275     37276
     37274     37272     37275     37277     37274     37272     37275     37278
     37275     37278     37281     37282     37275     37278     37281     37283
     37275     37278     37281     37284     37276     37275     37278     37279
     37276     37275     37278     37280     37276     37275     37278     37281
     37277     37275     37278     37279     37277     37275     37278     37280
     37277     37275     37278     37281     37278     37281     37284     37285
     37278     37281     37284     37286     37278     37281     37284     37287
     37279     37278     37281     37282     37279     37278     37281     37283
     37279     37278     37281     37284     37280     37278     37281     37282
     37280     37278     37281     37283     37280     37278     37281     37284
     37281     37284     37287     37288     37281     37284     37287     37289
     37282     37281     37284     37285     37282     37281     37284     37286
     37282     37281     37284     37287     37283     37281     37284     37285
     37283     37281     37284     37286     37283     37281     37284     37287
     37284     37287     37289     37290     37284     37287     37289     37291
     37285     37284     37287     37288     37285     37284     37287     37289
     37286     37284     37287     37288     37286     37284     37287     37289
     37287     37289     37291     37292     37287     37289     37291     37293
     37287     37289     37291     37294     37288     37287     37289     37290
     37288     37287     37289     37291     37289     37291     37294     37295
     37289     37291     37294     37296     37289     37291     37294     37297
     37290     37289     37291     37292     37290     37289     37291     37293
     37290     37289     37291     37294     37291     37294     37297     37298
     37291     37294     37297     37299     37291     37294     37297     37300
     37292     37291     37294     37295     37292     37291     37294     37296
     37292     37291     37294     37297     37293     37291     37294     37295
     37293     37291     37294     37296     37293     37291     37294     37297
     37294     37297     37300     37301     37294     37297     37300     37302
     37294     37297     37300     37303     37295     37294     37297     37298
     37295     37294     37297     37299     37295     37294     37297     37300
     37296     37294     37297     37298     37296     37294     37297     37299
     37296     37294     37297     37300     37297     37300     37303     37304
     37297     37300     37303     37305     37297     37300     37303     37306
     37298     37297     37300     37301     37298     37297     37300     37302
     37298     37297     37300     37303     37299     37297     37300     37301
     37299     37297     37300     37302     37299     37297     37300     37303
     37300     37303     37306     37307     37300     37303     37306     37308
     37300     37303     37306     37309     37301     37300     37303     37304
     37301     37300     37303     37305     37301     37300     37303     37306
     37302     37300     37303     37304     37302     37300     37303     37305
     37302     37300     37303     37306     37303     37306     37309     37310
     37303     37306     37309     37311     37303     37306     37309     37312
     37304     37303     37306     37307     37304     37303     37306     37308
     37304     37303     37306     37309     37305     37303     37306     37307
     37305     37303     37306     37308     37305     37303     37306     37309
     37306     37309     37312     37313     37306     37309     37312     37314
     37306     37309     37312     37315     37307     37306     37309     37310
     37307     37306     37309     37311     37307     37306     37309     37312
     37308     37306     37309     37310     37308     37306     37309     37311
     37308     37306     37309     37312     37310     37309     37312     37313
     37310     37309     37312     37314     37310     37309     37312     37315
     37311     37309     37312     37313     37311     37309     37312     37314
     37311     37309     37312     37315     37316     37319     37322     37323
     37316     37319     37322     37324     37316     37319     37322     37325
     37317     37316     37319     37320     37317     37316     37319     37321
     37317     37316     37319     37322     37318     37316     37319     37320
     37318     37316     37319     37321     37318     37316     37319     37322
     37319     37322     37325     37326     37319     37322     37325     37327
     37319     37322     37325     37328     37320     37319     37322     37323
     37320     37319     37322     37324     37320     37319     37322     37325
     37321     37319     37322     37323     37321     37319     37322     37324
     37321     37319     37322     37325     37322     37325     37328     37329
     37322     37325     37328     37330     37322     37325     37328     37331
     37323     37322     37325     37326     37323     37322     37325     37327
     37323     37322     37325     37328     37324     37322     37325     37326
     37324     37322     37325     37327     37324     37322     37325     37328
     37325     37328     37331     37332     37325     37328     37331     37333
     37325     37328     37331     37334     37326     37325     37328     37329
     37326     37325     37328     37330     37326     37325     37328     37331
     37327     37325     37328     37329     37327     37325     37328     37330
     37327     37325     37328     37331     37328     37331     37334     37335
     37328     37331     37334     37336     37328     37331     37334     37337
     37329     37328     37331     37332     37329     37328     37331     37333
     37329     37328     37331     37334     37330     37328     37331     37332
     37330     37328     37331     37333     37330     37328     37331     37334
     37331     37334     37337     37338     37331     37334     37337     37339
     37331     37334     37337     37340     37332     37331     37334     37335
     37332     37331     37334     37336     37332     37331     37334     37337
     37333     37331     37334     37335     37333     37331     37334     37336
     37333     37331     37334     37337     37334     37337     37340     37341
     37334     37337     37340     37342     37334     37337     37340     37343
     37335     37334     37337     37338     37335     37334     37337     37339
     37335     37334     37337     37340     37336     37334     37337     37338
     37336     37334     37337     37339     37336     37334     37337     37340
     37337     37340     37343     37344     37337     37340     37343     37345
     37337     37340     37343     37346     37338     37337     37340     37341
     37338     37337     37340     37342     37338     37337     37340     37343
     37339     37337     37340     37341     37339     37337     37340     37342
     37339     37337     37340     37343     37340     37343     37346     37347
     37340     37343     37346     37348     37340     37343     37346     37349
     37341     37340     37343     37344     37341     37340     37343     37345
     37341     37340     37343     37346     37342     37340     37343     37344
     37342     37340     37343     37345     37342     37340     37343     37346
     37343     37346     37349     37350     37343     37346     37349     37351
     37343     37346     37349     37352     37344     37343     37346     37347
     37344     37343     37346     37348     37344     37343     37346     37349
     37345     37343     37346     37347     37345     37343     37346     37348
     37345     37343     37346     37349     37346     37349     37352     37353
     37346     37349     37352     37354     37346     37349     37352     37355
     37347     37346     37349     37350     37347     37346     37349     37351
     37347     37346     37349     37352     37348     37346     37349     37350
     37348     37346     37349     37351     37348     37346     37349     37352
     37349     37352     37355     37356     37349     37352     37355     37357
     37349     37352     37355     37358     37350     37349     37352     37353
     37350     37349     37352     37354     37350     37349     37352     37355
     37351     37349     37352     37353     37351     37349     37352     37354
     37351     37349     37352     37355     37353     37352     37355     37356
     37353     37352     37355     37357     37353     37352     37355     37358
     37354     37352     37355     37356     37354     37352     37355     37357
     37354     37352     37355     37358     37359     37360     37375     37376
     37359     37360     37375     37377     37359     37360     37375     37381
     37360     37359     37363     37364     37360     37359     37363     37365
     37360     37359     37363     37366     37360     37359     37367     37368
     37360     37359     37367     37369     37360     37359     37367     37370
     37360     37359     37371     37372     37360     37359     37371     37373
     37360     37359     37371     37374     37360     37375     37381     37378
     37361     37360     37359     37363     37361     37360     37359     37367
     37361     37360     37359     37371     37361     37360     37375     37376
     37361     37360     37375     37377     37361     37360     37375     37381
     37362     37360     37359     37363     37362     37360     37359     37367
     37362     37360     37359     37371     37362     37360     37375     37376
     37362     37360     37375     37377     37362     37360     37375     37381
     37363     37359     37360     37375     37363     37359     37367     37368
     37363     37359     37367     37369     37363     37359     37367     37370
     37363     37359     37371     37372     37363     37359     37371     37373
     37363     37359     37371     37374     37364     37363     37359     37367
     37364     37363     37359     37371     37365     37363     37359     37367
     37365     37363     37359     37371     37366     37363     37359     37367
     37366     37363     37359     37371     37367     37359     37360     37375
     37367     37359     37371     37372     37367     37359     37371     37373
     37367     37359     37371     37374     37368     37367     37359     37371
     37369     37367     37359     37371     37370     37367     37359     37371
     37371     37359     37360     37375     37375     37381     37378     37379
     37375     37381     37378     37380     37375     37381     37378     37382
     37376     37375     37381     37378     37377     37375     37381     37378
     37378     37382     37383     37384     37378     37382     37383     37385
     37378     37382     37383     37386     37379     37378     37382     37383
     37380     37378     37382     37383     37381     37378     37382     37383
     37382     37383     37386     37387     37382     37383     37386     37388
     37382     37383     37386     37394     37383     37386     37388     37389
     37383     37386     37394     37395     37383     37386     37394     37396
     37383     37386     37394     37397     37384     37383     37386     37387
     37384     37383     37386     37388     37384     37383     37386     37394
     37385     37383     37386     37387     37385     37383     37386     37388
     37385     37383     37386     37394     37386     37388     37389     37390
     37386     37388     37389     37391     37386     37394     37397     37398
     37387     37386     37388     37389     37387     37386     37394     37395
     37387     37386     37394     37396     37387     37386     37394     37397
     37388     37386     37394     37395     37388     37386     37394     37396
     37388     37386     37394     37397     37388     37389     37391     37392
     37388     37389     37391     37393     37388     37389     37391     37403
     37389     37388     37386     37394     37389     37391     37403     37404
     37389     37391     37403     37405     37389     37391     37403     37406
     37390     37389     37391     37392     37390     37389     37391     37393
     37390     37389     37391     37403     37391     37403     37406     37407
     37391     37403     37406     37408     37391     37403     37406     37409
     37392     37391     37403     37404     37392     37391     37403     37405
     37392     37391     37403     37406     37393     37391     37403     37404
     37393     37391     37403     37405     37393     37391     37403     37406
     37394     37397     37398     37399     37394     37397     37398     37400
     37395     37394     37397     37398     37396     37394     37397     37398
     37397     37398     37400     37401     37397     37398     37400     37402
     37397     37398     37400     37450     37398     37400     37450     37451
     37398     37400     37450     37452     37398     37400     37450     37453
     37399     37398     37400     37401     37399     37398     37400     37402
     37399     37398     37400     37450     37400     37450     37453     37454
     37400     37450     37453     37455     37400     37450     37453     37456
     37401     37400     37450     37451     37401     37400     37450     37452
     37401     37400     37450     37453     37402     37400     37450     37451
     37402     37400     37450     37452     37402     37400     37450     37453
     37403     37406     37409     37410     37403     37406     37409     37411
     37403     37406     37409     37412     37404     37403     37406     37407
     37404     37403     37406     37408     37404     37403     37406     37409
     37405     37403     37406     37407     37405     37403     37406     37408
     37405     37403     37406     37409     37406     37409     37412     37413
     37406     37409     37412     37414     37406     37409     37412     37415
     37407     37406     37409     37410     37407     37406     37409     37411
     37407     37406     37409     37412     37408     37406     37409     37410
     37408     37406     37409     37411     37408     37406     37409     37412
     37409     37412     37415     37416     37409     37412     37415     37417
     37409     37412     37415     37418     37410     37409     37412     37413
     37410     37409     37412     37414     37410     37409     37412     37415
     37411     37409     37412     37413     37411     37409     37412     37414
     37411     37409     37412     37415     37412     37415     37418     37419
     37412     37415     37418     37420     37412     37415     37418     37421
     37413     37412     37415     37416     37413     37412     37415     37417
     37413     37412     37415     37418     37414     37412     37415     37416
     37414     37412     37415     37417     37414     37412     37415     37418
     37415     37418     37421     37422     37415     37418     37421     37423
     37416     37415     37418     37419     37416     37415     37418     37420
     37416     37415     37418     37421     37417     37415     37418     37419
     37417     37415     37418     37420     37417     37415     37418     37421
     37418     37421     37423     37424     37418     37421     37423     37425
     37419     37418     37421     37422     37419     37418     37421     37423
     37420     37418     37421     37422     37420     37418     37421     37423
     37421     37423     37425     37426     37421     37423     37425     37427
     37421     37423     37425     37428     37422     37421     37423     37424
     37422     37421     37423     37425     37423     37425     37428     37429
     37423     37425     37428     37430     37423     37425     37428     37431
     37424     37423     37425     37426     37424     37423     37425     37427
     37424     37423     37425     37428     37425     37428     37431     37432
     37425     37428     37431     37433     37425     37428     37431     37434
     37426     37425     37428     37429     37426     37425     37428     37430
     37426     37425     37428     37431     37427     37425     37428     37429
     37427     37425     37428     37430     37427     37425     37428     37431
     37428     37431     37434     37435     37428     37431     37434     37436
     37428     37431     37434     37437     37429     37428     37431     37432
     37429     37428     37431     37433     37429     37428     37431     37434
     37430     37428     37431     37432     37430     37428     37431     37433
     37430     37428     37431     37434     37431     37434     37437     37438
     37431     37434     37437     37439     37431     37434     37437     37440
     37432     37431     37434     37435     37432     37431     37434     37436
     37432     37431     37434     37437     37433     37431     37434     37435
     37433     37431     37434     37436     37433     37431     37434     37437
     37434     37437     37440     37441     37434     37437     37440     37442
     37434     37437     37440     37443     37435     37434     37437     37438
     37435     37434     37437     37439     37435     37434     37437     37440
     37436     37434     37437     37438     37436     37434     37437     37439
     37436     37434     37437     37440     37437     37440     37443     37444
     37437     37440     37443     37445     37437     37440     37443     37446
     37438     37437     37440     37441     37438     37437     37440     37442
     37438     37437     37440     37443     37439     37437     37440     37441
     37439     37437     37440     37442     37439     37437     37440     37443
     37440     37443     37446     37447     37440     37443     37446     37448
     37440     37443     37446     37449     37441     37440     37443     37444
     37441     37440     37443     37445     37441     37440     37443     37446
     37442     37440     37443     37444     37442     37440     37443     37445
     37442     37440     37443     37446     37444     37443     37446     37447
     37444     37443     37446     37448     37444     37443     37446     37449
     37445     37443     37446     37447     37445     37443     37446     37448
     37445     37443     37446     37449     37450     37453     37456     37457
     37450     37453     37456     37458     37450     37453     37456     37459
     37451     37450     37453     37454     37451     37450     37453     37455
     37451     37450     37453     37456     37452     37450     37453     37454
     37452     37450     37453     37455     37452     37450     37453     37456
     37453     37456     37459     37460     37453     37456     37459     37461
     37453     37456     37459     37462     37454     37453     37456     37457
     37454     37453     37456     37458     37454     37453     37456     37459
     37455     37453     37456     37457     37455     37453     37456     37458
     37455     37453     37456     37459     37456     37459     37462     37463
     37456     37459     37462     37464     37456     37459     37462     37465
     37457     37456     37459     37460     37457     37456     37459     37461
     37457     37456     37459     37462     37458     37456     37459     37460
     37458     37456     37459     37461     37458     37456     37459     37462
     37459     37462     37465     37466     37459     37462     37465     37467
     37459     37462     37465     37468     37460     37459     37462     37463
     37460     37459     37462     37464     37460     37459     37462     37465
     37461     37459     37462     37463     37461     37459     37462     37464
     37461     37459     37462     37465     37462     37465     37468     37469
     37462     37465     37468     37470     37462     37465     37468     37471
     37463     37462     37465     37466     37463     37462     37465     37467
     37463     37462     37465     37468     37464     37462     37465     37466
     37464     37462     37465     37467     37464     37462     37465     37468
     37465     37468     37471     37472     37465     37468     37471     37473
     37465     37468     37471     37474     37466     37465     37468     37469
     37466     37465     37468     37470     37466     37465     37468     37471
     37467     37465     37468     37469     37467     37465     37468     37470
     37467     37465     37468     37471     37468     37471     37474     37475
     37468     37471     37474     37476     37468     37471     37474     37477
     37469     37468     37471     37472     37469     37468     37471     37473
     37469     37468     37471     37474     37470     37468     37471     37472
     37470     37468     37471     37473     37470     37468     37471     37474
     37471     37474     37477     37478     37471     37474     37477     37479
     37471     37474     37477     37480     37472     37471     37474     37475
     37472     37471     37474     37476     37472     37471     37474     37477
     37473     37471     37474     37475     37473     37471     37474     37476
     37473     37471     37474     37477     37474     37477     37480     37481
     37474     37477     37480     37482     37474     37477     37480     37483
     37475     37474     37477     37478     37475     37474     37477     37479
     37475     37474     37477     37480     37476     37474     37477     37478
     37476     37474     37477     37479     37476     37474     37477     37480
     37477     37480     37483     37484     37477     37480     37483     37485
     37477     37480     37483     37486     37478     37477     37480     37481
     37478     37477     37480     37482     37478     37477     37480     37483
     37479     37477     37480     37481     37479     37477     37480     37482
     37479     37477     37480     37483     37480     37483     37486     37487
     37480     37483     37486     37488     37480     37483     37486     37489
     37481     37480     37483     37484     37481     37480     37483     37485
     37481     37480     37483     37486     37482     37480     37483     37484
     37482     37480     37483     37485     37482     37480     37483     37486
     37483     37486     37489     37490     37483     37486     37489     37491
     37483     37486     37489     37492     37484     37483     37486     37487
     37484     37483     37486     37488     37484     37483     37486     37489
     37485     37483     37486     37487     37485     37483     37486     37488
     37485     37483     37486     37489     37487     37486     37489     37490
     37487     37486     37489     37491     37487     37486     37489     37492
     37488     37486     37489     37490     37488     37486     37489     37491
     37488     37486     37489     37492     37493     37494     37509     37510
     37493     37494     37509     37511     37493     37494     37509     37515
     37494     37493     37497     37498     37494     37493     37497     37499
     37494     37493     37497     37500     37494     37493     37501     37502
     37494     37493     37501     37503     37494     37493     37501     37504
     37494     37493     37505     37506     37494     37493     37505     37507
     37494     37493     37505     37508     37494     37509     37515     37512
     37495     37494     37493     37497     37495     37494     37493     37501
     37495     37494     37493     37505     37495     37494     37509     37510
     37495     37494     37509     37511     37495     37494     37509     37515
     37496     37494     37493     37497     37496     37494     37493     37501
     37496     37494     37493     37505     37496     37494     37509     37510
     37496     37494     37509     37511     37496     37494     37509     37515
     37497     37493     37494     37509     37497     37493     37501     37502
     37497     37493     37501     37503     37497     37493     37501     37504
     37497     37493     37505     37506     37497     37493     37505     37507
     37497     37493     37505     37508     37498     37497     37493     37501
     37498     37497     37493     37505     37499     37497     37493     37501
     37499     37497     37493     37505     37500     37497     37493     37501
     37500     37497     37493     37505     37501     37493     37494     37509
     37501     37493     37505     37506     37501     37493     37505     37507
     37501     37493     37505     37508     37502     37501     37493     37505
     37503     37501     37493     37505     37504     37501     37493     37505
     37505     37493     37494     37509     37509     37515     37512     37513
     37509     37515     37512     37514     37509     37515     37512     37516
     37510     37509     37515     37512     37511     37509     37515     37512
     37512     37516     37517     37518     37512     37516     37517     37519
     37512     37516     37517     37520     37513     37512     37516     37517
     37514     37512     37516     37517     37515     37512     37516     37517
     37516     37517     37520     37521     37516     37517     37520     37522
     37516     37517     37520     37528     37517     37520     37522     37523
     37517     37520     37528     37529     37517     37520     37528     37530
     37517     37520     37528     37531     37518     37517     37520     37521
     37518     37517     37520     37522     37518     37517     37520     37528
     37519     37517     37520     37521     37519     37517     37520     37522
     37519     37517     37520     37528     37520     37522     37523     37524
     37520     37522     37523     37525     37520     37528     37531     37532
     37521     37520     37522     37523     37521     37520     37528     37529
     37521     37520     37528     37530     37521     37520     37528     37531
     37522     37520     37528     37529     37522     37520     37528     37530
     37522     37520     37528     37531     37522     37523     37525     37526
     37522     37523     37525     37527     37522     37523     37525     37537
     37523     37522     37520     37528     37523     37525     37537     37538
     37523     37525     37537     37539     37523     37525     37537     37540
     37524     37523     37525     37526     37524     37523     37525     37527
     37524     37523     37525     37537     37525     37537     37540     37541
     37525     37537     37540     37542     37525     37537     37540     37543
     37526     37525     37537     37538     37526     37525     37537     37539
     37526     37525     37537     37540     37527     37525     37537     37538
     37527     37525     37537     37539     37527     37525     37537     37540
     37528     37531     37532     37533     37528     37531     37532     37534
     37529     37528     37531     37532     37530     37528     37531     37532
     37531     37532     37534     37535     37531     37532     37534     37536
     37531     37532     37534     37584     37532     37534     37584     37585
     37532     37534     37584     37586     37532     37534     37584     37587
     37533     37532     37534     37535     37533     37532     37534     37536
     37533     37532     37534     37584     37534     37584     37587     37588
     37534     37584     37587     37589     37534     37584     37587     37590
     37535     37534     37584     37585     37535     37534     37584     37586
     37535     37534     37584     37587     37536     37534     37584     37585
     37536     37534     37584     37586     37536     37534     37584     37587
     37537     37540     37543     37544     37537     37540     37543     37545
     37537     37540     37543     37546     37538     37537     37540     37541
     37538     37537     37540     37542     37538     37537     37540     37543
     37539     37537     37540     37541     37539     37537     37540     37542
     37539     37537     37540     37543     37540     37543     37546     37547
     37540     37543     37546     37548     37540     37543     37546     37549
     37541     37540     37543     37544     37541     37540     37543     37545
     37541     37540     37543     37546     37542     37540     37543     37544
     37542     37540     37543     37545     37542     37540     37543     37546
     37543     37546     37549     37550     37543     37546     37549     37551
     37543     37546     37549     37552     37544     37543     37546     37547
     37544     37543     37546     37548     37544     37543     37546     37549
     37545     37543     37546     37547     37545     37543     37546     37548
     37545     37543     37546     37549     37546     37549     37552     37553
     37546     37549     37552     37554     37546     37549     37552     37555
     37547     37546     37549     37550     37547     37546     37549     37551
     37547     37546     37549     37552     37548     37546     37549     37550
     37548     37546     37549     37551     37548     37546     37549     37552
     37549     37552     37555     37556     37549     37552     37555     37557
     37550     37549     37552     37553     37550     37549     37552     37554
     37550     37549     37552     37555     37551     37549     37552     37553
     37551     37549     37552     37554     37551     37549     37552     37555
     37552     37555     37557     37558     37552     37555     37557     37559
     37553     37552     37555     37556     37553     37552     37555     37557
     37554     37552     37555     37556     37554     37552     37555     37557
     37555     37557     37559     37560     37555     37557     37559     37561
     37555     37557     37559     37562     37556     37555     37557     37558
     37556     37555     37557     37559     37557     37559     37562     37563
     37557     37559     37562     37564     37557     37559     37562     37565
     37558     37557     37559     37560     37558     37557     37559     37561
     37558     37557     37559     37562     37559     37562     37565     37566
     37559     37562     37565     37567     37559     37562     37565     37568
     37560     37559     37562     37563     37560     37559     37562     37564
     37560     37559     37562     37565     37561     37559     37562     37563
     37561     37559     37562     37564     37561     37559     37562     37565
     37562     37565     37568     37569     37562     37565     37568     37570
     37562     37565     37568     37571     37563     37562     37565     37566
     37563     37562     37565     37567     37563     37562     37565     37568
     37564     37562     37565     37566     37564     37562     37565     37567
     37564     37562     37565     37568     37565     37568     37571     37572
     37565     37568     37571     37573     37565     37568     37571     37574
     37566     37565     37568     37569     37566     37565     37568     37570
     37566     37565     37568     37571     37567     37565     37568     37569
     37567     37565     37568     37570     37567     37565     37568     37571
     37568     37571     37574     37575     37568     37571     37574     37576
     37568     37571     37574     37577     37569     37568     37571     37572
     37569     37568     37571     37573     37569     37568     37571     37574
     37570     37568     37571     37572     37570     37568     37571     37573
     37570     37568     37571     37574     37571     37574     37577     37578
     37571     37574     37577     37579     37571     37574     37577     37580
     37572     37571     37574     37575     37572     37571     37574     37576
     37572     37571     37574     37577     37573     37571     37574     37575
     37573     37571     37574     37576     37573     37571     37574     37577
     37574     37577     37580     37581     37574     37577     37580     37582
     37574     37577     37580     37583     37575     37574     37577     37578
     37575     37574     37577     37579     37575     37574     37577     37580
     37576     37574     37577     37578     37576     37574     37577     37579
     37576     37574     37577     37580     37578     37577     37580     37581
     37578     37577     37580     37582     37578     37577     37580     37583
     37579     37577     37580     37581     37579     37577     37580     37582
     37579     37577     37580     37583     37584     37587     37590     37591
     37584     37587     37590     37592     37584     37587     37590     37593
     37585     37584     37587     37588     37585     37584     37587     37589
     37585     37584     37587     37590     37586     37584     37587     37588
     37586     37584     37587     37589     37586     37584     37587     37590
     37587     37590     37593     37594     37587     37590     37593     37595
     37587     37590     37593     37596     37588     37587     37590     37591
     37588     37587     37590     37592     37588     37587     37590     37593
     37589     37587     37590     37591     37589     37587     37590     37592
     37589     37587     37590     37593     37590     37593     37596     37597
     37590     37593     37596     37598     37590     37593     37596     37599
     37591     37590     37593     37594     37591     37590     37593     37595
     37591     37590     37593     37596     37592     37590     37593     37594
     37592     37590     37593     37595     37592     37590     37593     37596
     37593     37596     37599     37600     37593     37596     37599     37601
     37593     37596     37599     37602     37594     37593     37596     37597
     37594     37593     37596     37598     37594     37593     37596     37599
     37595     37593     37596     37597     37595     37593     37596     37598
     37595     37593     37596     37599     37596     37599     37602     37603
     37596     37599     37602     37604     37596     37599     37602     37605
     37597     37596     37599     37600     37597     37596     37599     37601
     37597     37596     37599     37602     37598     37596     37599     37600
     37598     37596     37599     37601     37598     37596     37599     37602
     37599     37602     37605     37606     37599     37602     37605     37607
     37599     37602     37605     37608     37600     37599     37602     37603
     37600     37599     37602     37604     37600     37599     37602     37605
     37601     37599     37602     37603     37601     37599     37602     37604
     37601     37599     37602     37605     37602     37605     37608     37609
     37602     37605     37608     37610     37602     37605     37608     37611
     37603     37602     37605     37606     37603     37602     37605     37607
     37603     37602     37605     37608     37604     37602     37605     37606
     37604     37602     37605     37607     37604     37602     37605     37608
     37605     37608     37611     37612     37605     37608     37611     37613
     37605     37608     37611     37614     37606     37605     37608     37609
     37606     37605     37608     37610     37606     37605     37608     37611
     37607     37605     37608     37609     37607     37605     37608     37610
     37607     37605     37608     37611     37608     37611     37614     37615
     37608     37611     37614     37616     37608     37611     37614     37617
     37609     37608     37611     37612     37609     37608     37611     37613
     37609     37608     37611     37614     37610     37608     37611     37612
     37610     37608     37611     37613     37610     37608     37611     37614
     37611     37614     37617     37618     37611     37614     37617     37619
     37611     37614     37617     37620     37612     37611     37614     37615
     37612     37611     37614     37616     37612     37611     37614     37617
     37613     37611     37614     37615     37613     37611     37614     37616
     37613     37611     37614     37617     37614     37617     37620     37621
     37614     37617     37620     37622     37614     37617     37620     37623
     37615     37614     37617     37618     37615     37614     37617     37619
     37615     37614     37617     37620     37616     37614     37617     37618
     37616     37614     37617     37619     37616     37614     37617     37620
     37617     37620     37623     37624     37617     37620     37623     37625
     37617     37620     37623     37626     37618     37617     37620     37621
     37618     37617     37620     37622     37618     37617     37620     37623
     37619     37617     37620     37621     37619     37617     37620     37622
     37619     37617     37620     37623     37621     37620     37623     37624
     37621     37620     37623     37625     37621     37620     37623     37626
     37622     37620     37623     37624     37622     37620     37623     37625
     37622     37620     37623     37626     37627     37628     37643     37644
     37627     37628     37643     37645     37627     37628     37643     37649
     37628     37627     37631     37632     37628     37627     37631     37633
     37628     37627     37631     37634     37628     37627     37635     37636
     37628     37627     37635     37637     37628     37627     37635     37638
     37628     37627     37639     37640     37628     37627     37639     37641
     37628     37627     37639     37642     37628     37643     37649     37646
     37629     37628     37627     37631     37629     37628     37627     37635
     37629     37628     37627     37639     37629     37628     37643     37644
     37629     37628     37643     37645     37629     37628     37643     37649
     37630     37628     37627     37631     37630     37628     37627     37635
     37630     37628     37627     37639     37630     37628     37643     37644
     37630     37628     37643     37645     37630     37628     37643     37649
     37631     37627     37628     37643     37631     37627     37635     37636
     37631     37627     37635     37637     37631     37627     37635     37638
     37631     37627     37639     37640     37631     37627     37639     37641
     37631     37627     37639     37642     37632     37631     37627     37635
     37632     37631     37627     37639     37633     37631     37627     37635
     37633     37631     37627     37639     37634     37631     37627     37635
     37634     37631     37627     37639     37635     37627     37628     37643
     37635     37627     37639     37640     37635     37627     37639     37641
     37635     37627     37639     37642     37636     37635     37627     37639
     37637     37635     37627     37639     37638     37635     37627     37639
     37639     37627     37628     37643     37643     37649     37646     37647
     37643     37649     37646     37648     37643     37649     37646     37650
     37644     37643     37649     37646     37645     37643     37649     37646
     37646     37650     37651     37652     37646     37650     37651     37653
     37646     37650     37651     37654     37647     37646     37650     37651
     37648     37646     37650     37651     37649     37646     37650     37651
     37650     37651     37654     37655     37650     37651     37654     37656
     37650     37651     37654     37662     37651     37654     37656     37657
     37651     37654     37662     37663     37651     37654     37662     37664
     37651     37654     37662     37665     37652     37651     37654     37655
     37652     37651     37654     37656     37652     37651     37654     37662
     37653     37651     37654     37655     37653     37651     37654     37656
     37653     37651     37654     37662     37654     37656     37657     37658
     37654     37656     37657     37659     37654     37662     37665     37666
     37655     37654     37656     37657     37655     37654     37662     37663
     37655     37654     37662     37664     37655     37654     37662     37665
     37656     37654     37662     37663     37656     37654     37662     37664
     37656     37654     37662     37665     37656     37657     37659     37660
     37656     37657     37659     37661     37656     37657     37659     37671
     37657     37656     37654     37662     37657     37659     37671     37672
     37657     37659     37671     37673     37657     37659     37671     37674
     37658     37657     37659     37660     37658     37657     37659     37661
     37658     37657     37659     37671     37659     37671     37674     37675
     37659     37671     37674     37676     37659     37671     37674     37677
     37660     37659     37671     37672     37660     37659     37671     37673
     37660     37659     37671     37674     37661     37659     37671     37672
     37661     37659     37671     37673     37661     37659     37671     37674
     37662     37665     37666     37667     37662     37665     37666     37668
     37663     37662     37665     37666     37664     37662     37665     37666
     37665     37666     37668     37669     37665     37666     37668     37670
     37665     37666     37668     37718     37666     37668     37718     37719
     37666     37668     37718     37720     37666     37668     37718     37721
     37667     37666     37668     37669     37667     37666     37668     37670
     37667     37666     37668     37718     37668     37718     37721     37722
     37668     37718     37721     37723     37668     37718     37721     37724
     37669     37668     37718     37719     37669     37668     37718     37720
     37669     37668     37718     37721     37670     37668     37718     37719
     37670     37668     37718     37720     37670     37668     37718     37721
     37671     37674     37677     37678     37671     37674     37677     37679
     37671     37674     37677     37680     37672     37671     37674     37675
     37672     37671     37674     37676     37672     37671     37674     37677
     37673     37671     37674     37675     37673     37671     37674     37676
     37673     37671     37674     37677     37674     37677     37680     37681
     37674     37677     37680     37682     37674     37677     37680     37683
     37675     37674     37677     37678     37675     37674     37677     37679
     37675     37674     37677     37680     37676     37674     37677     37678
     37676     37674     37677     37679     37676     37674     37677     37680
     37677     37680     37683     37684     37677     37680     37683     37685
     37677     37680     37683     37686     37678     37677     37680     37681
     37678     37677     37680     37682     37678     37677     37680     37683
     37679     37677     37680     37681     37679     37677     37680     37682
     37679     37677     37680     37683     37680     37683     37686     37687
     37680     37683     37686     37688     37680     37683     37686     37689
     37681     37680     37683     37684     37681     37680     37683     37685
     37681     37680     37683     37686     37682     37680     37683     37684
     37682     37680     37683     37685     37682     37680     37683     37686
     37683     37686     37689     37690     37683     37686     37689     37691
     37684     37683     37686     37687     37684     37683     37686     37688
     37684     37683     37686     37689     37685     37683     37686     37687
     37685     37683     37686     37688     37685     37683     37686     37689
     37686     37689     37691     37692     37686     37689     37691     37693
     37687     37686     37689     37690     37687     37686     37689     37691
     37688     37686     37689     37690     37688     37686     37689     37691
     37689     37691     37693     37694     37689     37691     37693     37695
     37689     37691     37693     37696     37690     37689     37691     37692
     37690     37689     37691     37693     37691     37693     37696     37697
     37691     37693     37696     37698     37691     37693     37696     37699
     37692     37691     37693     37694     37692     37691     37693     37695
     37692     37691     37693     37696     37693     37696     37699     37700
     37693     37696     37699     37701     37693     37696     37699     37702
     37694     37693     37696     37697     37694     37693     37696     37698
     37694     37693     37696     37699     37695     37693     37696     37697
     37695     37693     37696     37698     37695     37693     37696     37699
     37696     37699     37702     37703     37696     37699     37702     37704
     37696     37699     37702     37705     37697     37696     37699     37700
     37697     37696     37699     37701     37697     37696     37699     37702
     37698     37696     37699     37700     37698     37696     37699     37701
     37698     37696     37699     37702     37699     37702     37705     37706
     37699     37702     37705     37707     37699     37702     37705     37708
     37700     37699     37702     37703     37700     37699     37702     37704
     37700     37699     37702     37705     37701     37699     37702     37703
     37701     37699     37702     37704     37701     37699     37702     37705
     37702     37705     37708     37709     37702     37705     37708     37710
     37702     37705     37708     37711     37703     37702     37705     37706
     37703     37702     37705     37707     37703     37702     37705     37708
     37704     37702     37705     37706     37704     37702     37705     37707
     37704     37702     37705     37708     37705     37708     37711     37712
     37705     37708     37711     37713     37705     37708     37711     37714
     37706     37705     37708     37709     37706     37705     37708     37710
     37706     37705     37708     37711     37707     37705     37708     37709
     37707     37705     37708     37710     37707     37705     37708     37711
     37708     37711     37714     37715     37708     37711     37714     37716
     37708     37711     37714     37717     37709     37708     37711     37712
     37709     37708     37711     37713     37709     37708     37711     37714
     37710     37708     37711     37712     37710     37708     37711     37713
     37710     37708     37711     37714     37712     37711     37714     37715
     37712     37711     37714     37716     37712     37711     37714     37717
     37713     37711     37714     37715     37713     37711     37714     37716
     37713     37711     37714     37717     37718     37721     37724     37725
     37718     37721     37724     37726     37718     37721     37724     37727
     37719     37718     37721     37722     37719     37718     37721     37723
     37719     37718     37721     37724     37720     37718     37721     37722
     37720     37718     37721     37723     37720     37718     37721     37724
     37721     37724     37727     37728     37721     37724     37727     37729
     37721     37724     37727     37730     37722     37721     37724     37725
     37722     37721     37724     37726     37722     37721     37724     37727
     37723     37721     37724     37725     37723     37721     37724     37726
     37723     37721     37724     37727     37724     37727     37730     37731
     37724     37727     37730     37732     37724     37727     37730     37733
     37725     37724     37727     37728     37725     37724     37727     37729
     37725     37724     37727     37730     37726     37724     37727     37728
     37726     37724     37727     37729     37726     37724     37727     37730
     37727     37730     37733     37734     37727     37730     37733     37735
     37727     37730     37733     37736     37728     37727     37730     37731
     37728     37727     37730     37732     37728     37727     37730     37733
     37729     37727     37730     37731     37729     37727     37730     37732
     37729     37727     37730     37733     37730     37733     37736     37737
     37730     37733     37736     37738     37730     37733     37736     37739
     37731     37730     37733     37734     37731     37730     37733     37735
     37731     37730     37733     37736     37732     37730     37733     37734
     37732     37730     37733     37735     37732     37730     37733     37736
     37733     37736     37739     37740     37733     37736     37739     37741
     37733     37736     37739     37742     37734     37733     37736     37737
     37734     37733     37736     37738     37734     37733     37736     37739
     37735     37733     37736     37737     37735     37733     37736     37738
     37735     37733     37736     37739     37736     37739     37742     37743
     37736     37739     37742     37744     37736     37739     37742     37745
     37737     37736     37739     37740     37737     37736     37739     37741
     37737     37736     37739     37742     37738     37736     37739     37740
     37738     37736     37739     37741     37738     37736     37739     37742
     37739     37742     37745     37746     37739     37742     37745     37747
     37739     37742     37745     37748     37740     37739     37742     37743
     37740     37739     37742     37744     37740     37739     37742     37745
     37741     37739     37742     37743     37741     37739     37742     37744
     37741     37739     37742     37745     37742     37745     37748     37749
     37742     37745     37748     37750     37742     37745     37748     37751
     37743     37742     37745     37746     37743     37742     37745     37747
     37743     37742     37745     37748     37744     37742     37745     37746
     37744     37742     37745     37747     37744     37742     37745     37748
     37745     37748     37751     37752     37745     37748     37751     37753
     37745     37748     37751     37754     37746     37745     37748     37749
     37746     37745     37748     37750     37746     37745     37748     37751
     37747     37745     37748     37749     37747     37745     37748     37750
     37747     37745     37748     37751     37748     37751     37754     37755
     37748     37751     37754     37756     37748     37751     37754     37757
     37749     37748     37751     37752     37749     37748     37751     37753
     37749     37748     37751     37754     37750     37748     37751     37752
     37750     37748     37751     37753     37750     37748     37751     37754
     37751     37754     37757     37758     37751     37754     37757     37759
     37751     37754     37757     37760     37752     37751     37754     37755
     37752     37751     37754     37756     37752     37751     37754     37757
     37753     37751     37754     37755     37753     37751     37754     37756
     37753     37751     37754     37757     37755     37754     37757     37758
     37755     37754     37757     37759     37755     37754     37757     37760
     37756     37754     37757     37758     37756     37754     37757     37759
     37756     37754     37757     37760     37761     37762     37777     37778
     37761     37762     37777     37779     37761     37762     37777     37783
     37762     37761     37765     37766     37762     37761     37765     37767
     37762     37761     37765     37768     37762     37761     37769     37770
     37762     37761     37769     37771     37762     37761     37769     37772
     37762     37761     37773     37774     37762     37761     37773     37775
     37762     37761     37773     37776     37762     37777     37783     37780
     37763     37762     37761     37765     37763     37762     37761     37769
     37763     37762     37761     37773     37763     37762     37777     37778
     37763     37762     37777     37779     37763     37762     37777     37783
     37764     37762     37761     37765     37764     37762     37761     37769
     37764     37762     37761     37773     37764     37762     37777     37778
     37764     37762     37777     37779     37764     37762     37777     37783
     37765     37761     37762     37777     37765     37761     37769     37770
     37765     37761     37769     37771     37765     37761     37769     37772
     37765     37761     37773     37774     37765     37761     37773     37775
     37765     37761     37773     37776     37766     37765     37761     37769
     37766     37765     37761     37773     37767     37765     37761     37769
     37767     37765     37761     37773     37768     37765     37761     37769
     37768     37765     37761     37773     37769     37761     37762     37777
     37769     37761     37773     37774     37769     37761     37773     37775
     37769     37761     37773     37776     37770     37769     37761     37773
     37771     37769     37761     37773     37772     37769     37761     37773
     37773     37761     37762     37777     37777     37783     37780     37781
     37777     37783     37780     37782     37777     37783     37780     37784
     37778     37777     37783     37780     37779     37777     37783     37780
     37780     37784     37785     37786     37780     37784     37785     37787
     37780     37784     37785     37788     37781     37780     37784     37785
     37782     37780     37784     37785     37783     37780     37784     37785
     37784     37785     37788     37789     37784     37785     37788     37790
     37784     37785     37788     37796     37785     37788     37790     37791
     37785     37788     37796     37797     37785     37788     37796     37798
     37785     37788     37796     37799     37786     37785     37788     37789
     37786     37785     37788     37790     37786     37785     37788     37796
     37787     37785     37788     37789     37787     37785     37788     37790
     37787     37785     37788     37796     37788     37790     37791     37792
     37788     37790     37791     37793     37788     37796     37799     37800
     37789     37788     37790     37791     37789     37788     37796     37797
     37789     37788     37796     37798     37789     37788     37796     37799
     37790     37788     37796     37797     37790     37788     37796     37798
     37790     37788     37796     37799     37790     37791     37793     37794
     37790     37791     37793     37795     37790     37791     37793     37805
     37791     37790     37788     37796     37791     37793     37805     37806
     37791     37793     37805     37807     37791     37793     37805     37808
     37792     37791     37793     37794     37792     37791     37793     37795
     37792     37791     37793     37805     37793     37805     37808     37809
     37793     37805     37808     37810     37793     37805     37808     37811
     37794     37793     37805     37806     37794     37793     37805     37807
     37794     37793     37805     37808     37795     37793     37805     37806
     37795     37793     37805     37807     37795     37793     37805     37808
     37796     37799     37800     37801     37796     37799     37800     37802
     37797     37796     37799     37800     37798     37796     37799     37800
     37799     37800     37802     37803     37799     37800     37802     37804
     37799     37800     37802     37852     37800     37802     37852     37853
     37800     37802     37852     37854     37800     37802     37852     37855
     37801     37800     37802     37803     37801     37800     37802     37804
     37801     37800     37802     37852     37802     37852     37855     37856
     37802     37852     37855     37857     37802     37852     37855     37858
     37803     37802     37852     37853     37803     37802     37852     37854
     37803     37802     37852     37855     37804     37802     37852     37853
     37804     37802     37852     37854     37804     37802     37852     37855
     37805     37808     37811     37812     37805     37808     37811     37813
     37805     37808     37811     37814     37806     37805     37808     37809
     37806     37805     37808     37810     37806     37805     37808     37811
     37807     37805     37808     37809     37807     37805     37808     37810
     37807     37805     37808     37811     37808     37811     37814     37815
     37808     37811     37814     37816     37808     37811     37814     37817
     37809     37808     37811     37812     37809     37808     37811     37813
     37809     37808     37811     37814     37810     37808     37811     37812
     37810     37808     37811     37813     37810     37808     37811     37814
     37811     37814     37817     37818     37811     37814     37817     37819
     37811     37814     37817     37820     37812     37811     37814     37815
     37812     37811     37814     37816     37812     37811     37814     37817
     37813     37811     37814     37815     37813     37811     37814     37816
     37813     37811     37814     37817     37814     37817     37820     37821
     37814     37817     37820     37822     37814     37817     37820     37823
     37815     37814     37817     37818     37815     37814     37817     37819
     37815     37814     37817     37820     37816     37814     37817     37818
     37816     37814     37817     37819     37816     37814     37817     37820
     37817     37820     37823     37824     37817     37820     37823     37825
     37818     37817     37820     37821     37818     37817     37820     37822
     37818     37817     37820     37823     37819     37817     37820     37821
     37819     37817     37820     37822     37819     37817     37820     37823
     37820     37823     37825     37826     37820     37823     37825     37827
     37821     37820     37823     37824     37821     37820     37823     37825
     37822     37820     37823     37824     37822     37820     37823     37825
     37823     37825     37827     37828     37823     37825     37827     37829
     37823     37825     37827     37830     37824     37823     37825     37826
     37824     37823     37825     37827     37825     37827     37830     37831
     37825     37827     37830     37832     37825     37827     37830     37833
     37826     37825     37827     37828     37826     37825     37827     37829
     37826     37825     37827     37830     37827     37830     37833     37834
     37827     37830     37833     37835     37827     37830     37833     37836
     37828     37827     37830     37831     37828     37827     37830     37832
     37828     37827     37830     37833     37829     37827     37830     37831
     37829     37827     37830     37832     37829     37827     37830     37833
     37830     37833     37836     37837     37830     37833     37836     37838
     37830     37833     37836     37839     37831     37830     37833     37834
     37831     37830     37833     37835     37831     37830     37833     37836
     37832     37830     37833     37834     37832     37830     37833     37835
     37832     37830     37833     37836     37833     37836     37839     37840
     37833     37836     37839     37841     37833     37836     37839     37842
     37834     37833     37836     37837     37834     37833     37836     37838
     37834     37833     37836     37839     37835     37833     37836     37837
     37835     37833     37836     37838     37835     37833     37836     37839
     37836     37839     37842     37843     37836     37839     37842     37844
     37836     37839     37842     37845     37837     37836     37839     37840
     37837     37836     37839     37841     37837     37836     37839     37842
     37838     37836     37839     37840     37838     37836     37839     37841
     37838     37836     37839     37842     37839     37842     37845     37846
     37839     37842     37845     37847     37839     37842     37845     37848
     37840     37839     37842     37843     37840     37839     37842     37844
     37840     37839     37842     37845     37841     37839     37842     37843
     37841     37839     37842     37844     37841     37839     37842     37845
     37842     37845     37848     37849     37842     37845     37848     37850
     37842     37845     37848     37851     37843     37842     37845     37846
     37843     37842     37845     37847     37843     37842     37845     37848
     37844     37842     37845     37846     37844     37842     37845     37847
     37844     37842     37845     37848     37846     37845     37848     37849
     37846     37845     37848     37850     37846     37845     37848     37851
     37847     37845     37848     37849     37847     37845     37848     37850
     37847     37845     37848     37851     37852     37855     37858     37859
     37852     37855     37858     37860     37852     37855     37858     37861
     37853     37852     37855     37856     37853     37852     37855     37857
     37853     37852     37855     37858     37854     37852     37855     37856
     37854     37852     37855     37857     37854     37852     37855     37858
     37855     37858     37861     37862     37855     37858     37861     37863
     37855     37858     37861     37864     37856     37855     37858     37859
     37856     37855     37858     37860     37856     37855     37858     37861
     37857     37855     37858     37859     37857     37855     37858     37860
     37857     37855     37858     37861     37858     37861     37864     37865
     37858     37861     37864     37866     37858     37861     37864     37867
     37859     37858     37861     37862     37859     37858     37861     37863
     37859     37858     37861     37864     37860     37858     37861     37862
     37860     37858     37861     37863     37860     37858     37861     37864
     37861     37864     37867     37868     37861     37864     37867     37869
     37861     37864     37867     37870     37862     37861     37864     37865
     37862     37861     37864     37866     37862     37861     37864     37867
     37863     37861     37864     37865     37863     37861     37864     37866
     37863     37861     37864     37867     37864     37867     37870     37871
     37864     37867     37870     37872     37864     37867     37870     37873
     37865     37864     37867     37868     37865     37864     37867     37869
     37865     37864     37867     37870     37866     37864     37867     37868
     37866     37864     37867     37869     37866     37864     37867     37870
     37867     37870     37873     37874     37867     37870     37873     37875
     37867     37870     37873     37876     37868     37867     37870     37871
     37868     37867     37870     37872     37868     37867     37870     37873
     37869     37867     37870     37871     37869     37867     37870     37872
     37869     37867     37870     37873     37870     37873     37876     37877
     37870     37873     37876     37878     37870     37873     37876     37879
     37871     37870     37873     37874     37871     37870     37873     37875
     37871     37870     37873     37876     37872     37870     37873     37874
     37872     37870     37873     37875     37872     37870     37873     37876
     37873     37876     37879     37880     37873     37876     37879     37881
     37873     37876     37879     37882     37874     37873     37876     37877
     37874     37873     37876     37878     37874     37873     37876     37879
     37875     37873     37876     37877     37875     37873     37876     37878
     37875     37873     37876     37879     37876     37879     37882     37883
     37876     37879     37882     37884     37876     37879     37882     37885
     37877     37876     37879     37880     37877     37876     37879     37881
     37877     37876     37879     37882     37878     37876     37879     37880
     37878     37876     37879     37881     37878     37876     37879     37882
     37879     37882     37885     37886     37879     37882     37885     37887
     37879     37882     37885     37888     37880     37879     37882     37883
     37880     37879     37882     37884     37880     37879     37882     37885
     37881     37879     37882     37883     37881     37879     37882     37884
     37881     37879     37882     37885     37882     37885     37888     37889
     37882     37885     37888     37890     37882     37885     37888     37891
     37883     37882     37885     37886     37883     37882     37885     37887
     37883     37882     37885     37888     37884     37882     37885     37886
     37884     37882     37885     37887     37884     37882     37885     37888
     37885     37888     37891     37892     37885     37888     37891     37893
     37885     37888     37891     37894     37886     37885     37888     37889
     37886     37885     37888     37890     37886     37885     37888     37891
     37887     37885     37888     37889     37887     37885     37888     37890
     37887     37885     37888     37891     37889     37888     37891     37892
     37889     37888     37891     37893     37889     37888     37891     37894
     37890     37888     37891     37892     37890     37888     37891     37893
     37890     37888     37891     37894     37895     37896     37911     37912
     37895     37896     37911     37913     37895     37896     37911     37917
     37896     37895     37899     37900     37896     37895     37899     37901
     37896     37895     37899     37902     37896     37895     37903     37904
     37896     37895     37903     37905     37896     37895     37903     37906
     37896     37895     37907     37908     37896     37895     37907     37909
     37896     37895     37907     37910     37896     37911     37917     37914
     37897     37896     37895     37899     37897     37896     37895     37903
     37897     37896     37895     37907     37897     37896     37911     37912
     37897     37896     37911     37913     37897     37896     37911     37917
     37898     37896     37895     37899     37898     37896     37895     37903
     37898     37896     37895     37907     37898     37896     37911     37912
     37898     37896     37911     37913     37898     37896     37911     37917
     37899     37895     37896     37911     37899     37895     37903     37904
     37899     37895     37903     37905     37899     37895     37903     37906
     37899     37895     37907     37908     37899     37895     37907     37909
     37899     37895     37907     37910     37900     37899     37895     37903
     37900     37899     37895     37907     37901     37899     37895     37903
     37901     37899     37895     37907     37902     37899     37895     37903
     37902     37899     37895     37907     37903     37895     37896     37911
     37903     37895     37907     37908     37903     37895     37907     37909
     37903     37895     37907     37910     37904     37903     37895     37907
     37905     37903     37895     37907     37906     37903     37895     37907
     37907     37895     37896     37911     37911     37917     37914     37915
     37911     37917     37914     37916     37911     37917     37914     37918
     37912     37911     37917     37914     37913     37911     37917     37914
     37914     37918     37919     37920     37914     37918     37919     37921
     37914     37918     37919     37922     37915     37914     37918     37919
     37916     37914     37918     37919     37917     37914     37918     37919
     37918     37919     37922     37923     37918     37919     37922     37924
     37918     37919     37922     37930     37919     37922     37924     37925
     37919     37922     37930     37931     37919     37922     37930     37932
     37919     37922     37930     37933     37920     37919     37922     37923
     37920     37919     37922     37924     37920     37919     37922     37930
     37921     37919     37922     37923     37921     37919     37922     37924
     37921     37919     37922     37930     37922     37924     37925     37926
     37922     37924     37925     37927     37922     37930     37933     37934
     37923     37922     37924     37925     37923     37922     37930     37931
     37923     37922     37930     37932     37923     37922     37930     37933
     37924     37922     37930     37931     37924     37922     37930     37932
     37924     37922     37930     37933     37924     37925     37927     37928
     37924     37925     37927     37929     37924     37925     37927     37939
     37925     37924     37922     37930     37925     37927     37939     37940
     37925     37927     37939     37941     37925     37927     37939     37942
     37926     37925     37927     37928     37926     37925     37927     37929
     37926     37925     37927     37939     37927     37939     37942     37943
     37927     37939     37942     37944     37927     37939     37942     37945
     37928     37927     37939     37940     37928     37927     37939     37941
     37928     37927     37939     37942     37929     37927     37939     37940
     37929     37927     37939     37941     37929     37927     37939     37942
     37930     37933     37934     37935     37930     37933     37934     37936
     37931     37930     37933     37934     37932     37930     37933     37934
     37933     37934     37936     37937     37933     37934     37936     37938
     37933     37934     37936     37986     37934     37936     37986     37987
     37934     37936     37986     37988     37934     37936     37986     37989
     37935     37934     37936     37937     37935     37934     37936     37938
     37935     37934     37936     37986     37936     37986     37989     37990
     37936     37986     37989     37991     37936     37986     37989     37992
     37937     37936     37986     37987     37937     37936     37986     37988
     37937     37936     37986     37989     37938     37936     37986     37987
     37938     37936     37986     37988     37938     37936     37986     37989
     37939     37942     37945     37946     37939     37942     37945     37947
     37939     37942     37945     37948     37940     37939     37942     37943
     37940     37939     37942     37944     37940     37939     37942     37945
     37941     37939     37942     37943     37941     37939     37942     37944
     37941     37939     37942     37945     37942     37945     37948     37949
     37942     37945     37948     37950     37942     37945     37948     37951
     37943     37942     37945     37946     37943     37942     37945     37947
     37943     37942     37945     37948     37944     37942     37945     37946
     37944     37942     37945     37947     37944     37942     37945     37948
     37945     37948     37951     37952     37945     37948     37951     37953
     37945     37948     37951     37954     37946     37945     37948     37949
     37946     37945     37948     37950     37946     37945     37948     37951
     37947     37945     37948     37949     37947     37945     37948     37950
     37947     37945     37948     37951     37948     37951     37954     37955
     37948     37951     37954     37956     37948     37951     37954     37957
     37949     37948     37951     37952     37949     37948     37951     37953
     37949     37948     37951     37954     37950     37948     37951     37952
     37950     37948     37951     37953     37950     37948     37951     37954
     37951     37954     37957     37958     37951     37954     37957     37959
     37952     37951     37954     37955     37952     37951     37954     37956
     37952     37951     37954     37957     37953     37951     37954     37955
     37953     37951     37954     37956     37953     37951     37954     37957
     37954     37957     37959     37960     37954     37957     37959     37961
     37955     37954     37957     37958     37955     37954     37957     37959
     37956     37954     37957     37958     37956     37954     37957     37959
     37957     37959     37961     37962     37957     37959     37961     37963
     37957     37959     37961     37964     37958     37957     37959     37960
     37958     37957     37959     37961     37959     37961     37964     37965
     37959     37961     37964     37966     37959     37961     37964     37967
     37960     37959     37961     37962     37960     37959     37961     37963
     37960     37959     37961     37964     37961     37964     37967     37968
     37961     37964     37967     37969     37961     37964     37967     37970
     37962     37961     37964     37965     37962     37961     37964     37966
     37962     37961     37964     37967     37963     37961     37964     37965
     37963     37961     37964     37966     37963     37961     37964     37967
     37964     37967     37970     37971     37964     37967     37970     37972
     37964     37967     37970     37973     37965     37964     37967     37968
     37965     37964     37967     37969     37965     37964     37967     37970
     37966     37964     37967     37968     37966     37964     37967     37969
     37966     37964     37967     37970     37967     37970     37973     37974
     37967     37970     37973     37975     37967     37970     37973     37976
     37968     37967     37970     37971     37968     37967     37970     37972
     37968     37967     37970     37973     37969     37967     37970     37971
     37969     37967     37970     37972     37969     37967     37970     37973
     37970     37973     37976     37977     37970     37973     37976     37978
     37970     37973     37976     37979     37971     37970     37973     37974
     37971     37970     37973     37975     37971     37970     37973     37976
     37972     37970     37973     37974     37972     37970     37973     37975
     37972     37970     37973     37976     37973     37976     37979     37980
     37973     37976     37979     37981     37973     37976     37979     37982
     37974     37973     37976     37977     37974     37973     37976     37978
     37974     37973     37976     37979     37975     37973     37976     37977
     37975     37973     37976     37978     37975     37973     37976     37979
     37976     37979     37982     37983     37976     37979     37982     37984
     37976     37979     37982     37985     37977     37976     37979     37980
     37977     37976     37979     37981     37977     37976     37979     37982
     37978     37976     37979     37980     37978     37976     37979     37981
     37978     37976     37979     37982     37980     37979     37982     37983
     37980     37979     37982     37984     37980     37979     37982     37985
     37981     37979     37982     37983     37981     37979     37982     37984
     37981     37979     37982     37985     37986     37989     37992     37993
     37986     37989     37992     37994     37986     37989     37992     37995
     37987     37986     37989     37990     37987     37986     37989     37991
     37987     37986     37989     37992     37988     37986     37989     37990
     37988     37986     37989     37991     37988     37986     37989     37992
     37989     37992     37995     37996     37989     37992     37995     37997
     37989     37992     37995     37998     37990     37989     37992     37993
     37990     37989     37992     37994     37990     37989     37992     37995
     37991     37989     37992     37993     37991     37989     37992     37994
     37991     37989     37992     37995     37992     37995     37998     37999
     37992     37995     37998     38000     37992     37995     37998     38001
     37993     37992     37995     37996     37993     37992     37995     37997
     37993     37992     37995     37998     37994     37992     37995     37996
     37994     37992     37995     37997     37994     37992     37995     37998
     37995     37998     38001     38002     37995     37998     38001     38003
     37995     37998     38001     38004     37996     37995     37998     37999
     37996     37995     37998     38000     37996     37995     37998     38001
     37997     37995     37998     37999     37997     37995     37998     38000
     37997     37995     37998     38001     37998     38001     38004     38005
     37998     38001     38004     38006     37998     38001     38004     38007
     37999     37998     38001     38002     37999     37998     38001     38003
     37999     37998     38001     38004     38000     37998     38001     38002
     38000     37998     38001     38003     38000     37998     38001     38004
     38001     38004     38007     38008     38001     38004     38007     38009
     38001     38004     38007     38010     38002     38001     38004     38005
     38002     38001     38004     38006     38002     38001     38004     38007
     38003     38001     38004     38005     38003     38001     38004     38006
     38003     38001     38004     38007     38004     38007     38010     38011
     38004     38007     38010     38012     38004     38007     38010     38013
     38005     38004     38007     38008     38005     38004     38007     38009
     38005     38004     38007     38010     38006     38004     38007     38008
     38006     38004     38007     38009     38006     38004     38007     38010
     38007     38010     38013     38014     38007     38010     38013     38015
     38007     38010     38013     38016     38008     38007     38010     38011
     38008     38007     38010     38012     38008     38007     38010     38013
     38009     38007     38010     38011     38009     38007     38010     38012
     38009     38007     38010     38013     38010     38013     38016     38017
     38010     38013     38016     38018     38010     38013     38016     38019
     38011     38010     38013     38014     38011     38010     38013     38015
     38011     38010     38013     38016     38012     38010     38013     38014
     38012     38010     38013     38015     38012     38010     38013     38016
     38013     38016     38019     38020     38013     38016     38019     38021
     38013     38016     38019     38022     38014     38013     38016     38017
     38014     38013     38016     38018     38014     38013     38016     38019
     38015     38013     38016     38017     38015     38013     38016     38018
     38015     38013     38016     38019     38016     38019     38022     38023
     38016     38019     38022     38024     38016     38019     38022     38025
     38017     38016     38019     38020     38017     38016     38019     38021
     38017     38016     38019     38022     38018     38016     38019     38020
     38018     38016     38019     38021     38018     38016     38019     38022
     38019     38022     38025     38026     38019     38022     38025     38027
     38019     38022     38025     38028     38020     38019     38022     38023
     38020     38019     38022     38024     38020     38019     38022     38025
     38021     38019     38022     38023     38021     38019     38022     38024
     38021     38019     38022     38025     38023     38022     38025     38026
     38023     38022     38025     38027     38023     38022     38025     38028
     38024     38022     38025     38026     38024     38022     38025     38027
     38024     38022     38025     38028

       498 !NIMPHI: impropers
      2325      2324      2327      2326      2334      2333      2336      2335
      2459      2458      2461      2460      2468      2467      2470      2469
      2593      2592      2595      2594      2602      2601      2604      2603
      2727      2726      2729      2728      2736      2735      2738      2737
      2861      2860      2863      2862      2870      2869      2872      2871
      2995      2994      2997      2996      3004      3003      3006      3005
      3129      3128      3131      3130      3138      3137      3140      3139
      3263      3262      3265      3264      3272      3271      3274      3273
      3397      3396      3399      3398      3406      3405      3408      3407
      3531      3530      3533      3532      3540      3539      3542      3541
      3665      3664      3667      3666      3674      3673      3676      3675
      3799      3798      3801      3800      3808      3807      3810      3809
      3933      3932      3935      3934      3942      3941      3944      3943
      4067      4066      4069      4068      4076      4075      4078      4077
      4201      4200      4203      4202      4210      4209      4212      4211
      4335      4334      4337      4336      4344      4343      4346      4345
      4469      4468      4471      4470      4478      4477      4480      4479
      4603      4602      4605      4604      4612      4611      4614      4613
      4737      4736      4739      4738      4746      4745      4748      4747
      4871      4870      4873      4872      4880      4879      4882      4881
      5005      5004      5007      5006      5014      5013      5016      5015
      5139      5138      5141      5140      5148      5147      5150      5149
      5273      5272      5275      5274      5282      5281      5284      5283
      5407      5406      5409      5408      5416      5415      5418      5417
      5541      5540      5543      5542      5550      5549      5552      5551
      5675      5674      5677      5676      5684      5683      5686      5685
      5809      5808      5811      5810      5818      5817      5820      5819
      5943      5942      5945      5944      5952      5951      5954      5953
      6077      6076      6079      6078      6086      6085      6088      6087
      6211      6210      6213      6212      6220      6219      6222      6221
      6345      6344      6347      6346      6354      6353      6356      6355
      6479      6478      6481      6480      6488      6487      6490      6489
      6613      6612      6615      6614      6622      6621      6624      6623
      6747      6746      6749      6748      6756      6755      6758      6757
      6881      6880      6883      6882      6890      6889      6892      6891
      7015      7014      7017      7016      7024      7023      7026      7025
      7149      7148      7151      7150      7158      7157      7160      7159
      7283      7282      7285      7284      7292      7291      7294      7293
      7417      7416      7419      7418      7426      7425      7428      7427
      7551      7550      7553      7552      7560      7559      7562      7561
      7685      7684      7687      7686      7694      7693      7696      7695
      7819      7818      7821      7820      7828      7827      7830      7829
      7953      7952      7955      7954      7962      7961      7964      7963
      8087      8086      8089      8088      8096      8095      8098      8097
      8221      8220      8223      8222      8230      8229      8232      8231
      8355      8354      8357      8356      8364      8363      8366      8365
      8489      8488      8491      8490      8498      8497      8500      8499
      8623      8622      8625      8624      8632      8631      8634      8633
      8757      8756      8759      8758      8766      8765      8768      8767
      8891      8890      8893      8892      8900      8899      8902      8901
      9025      9024      9027      9026      9034      9033      9036      9035
      9159      9158      9161      9160      9168      9167      9170      9169
      9293      9292      9295      9294      9302      9301      9304      9303
      9427      9426      9429      9428      9436      9435      9438      9437
      9561      9560      9563      9562      9570      9569      9572      9571
      9695      9694      9697      9696      9704      9703      9706      9705
      9829      9828      9831      9830      9838      9837      9840      9839
      9963      9962      9965      9964      9972      9971      9974      9973
     10097     10096     10099     10098     10106     10105     10108     10107
     10231     10230     10233     10232     10240     10239     10242     10241
     10365     10364     10367     10366     10374     10373     10376     10375
     10499     10498     10501     10500     10508     10507     10510     10509
     10633     10632     10635     10634     10642     10641     10644     10643
     10767     10766     10769     10768     10776     10775     10778     10777
     10901     10900     10903     10902     10910     10909     10912     10911
     11035     11034     11037     11036     11044     11043     11046     11045
     11169     11168     11171     11170     11178     11177     11180     11179
     11303     11302     11305     11304     11312     11311     11314     11313
     11437     11436     11439     11438     11446     11445     11448     11447
     11571     11570     11573     11572     11580     11579     11582     11581
     11705     11704     11707     11706     11714     11713     11716     11715
     11839     11838     11841     11840     11848     11847     11850     11849
     11973     11972     11975     11974     11982     11981     11984     11983
     12107     12106     12109     12108     12116     12115     12118     12117
     12241     12240     12243     12242     12250     12249     12252     12251
     12375     12374     12377     12376     12384     12383     12386     12385
     12509     12508     12511     12510     12518     12517     12520     12519
     12643     12642     12645     12644     12652     12651     12654     12653
     12777     12776     12779     12778     12786     12785     12788     12787
     12911     12910     12913     12912     12920     12919     12922     12921
     13045     13044     13047     13046     13054     13053     13056     13055
     13179     13178     13181     13180     13188     13187     13190     13189
     13313     13312     13315     13314     13322     13321     13324     13323
     13447     13446     13449     13448     13456     13455     13458     13457
     13581     13580     13583     13582     13590     13589     13592     13591
     13715     13714     13717     13716     13724     13723     13726     13725
     13849     13848     13851     13850     13858     13857     13860     13859
     13983     13982     13985     13984     13992     13991     13994     13993
     14117     14116     14119     14118     14126     14125     14128     14127
     14251     14250     14253     14252     14260     14259     14262     14261
     14385     14384     14387     14386     14394     14393     14396     14395
     14519     14518     14521     14520     14528     14527     14530     14529
     14653     14652     14655     14654     14662     14661     14664     14663
     14787     14786     14789     14788     14796     14795     14798     14797
     14921     14920     14923     14922     14930     14929     14932     14931
     15055     15054     15057     15056     15064     15063     15066     15065
     15189     15188     15191     15190     15198     15197     15200     15199
     15323     15322     15325     15324     15332     15331     15334     15333
     15457     15456     15459     15458     15466     15465     15468     15467
     15591     15590     15593     15592     15600     15599     15602     15601
     15725     15724     15727     15726     15734     15733     15736     15735
     15859     15858     15861     15860     15868     15867     15870     15869
     15993     15992     15995     15994     16002     16001     16004     16003
     16127     16126     16129     16128     16136     16135     16138     16137
     16261     16260     16263     16262     16270     16269     16272     16271
     16395     16394     16397     16396     16404     16403     16406     16405
     16529     16528     16531     16530     16538     16537     16540     16539
     16663     16662     16665     16664     16672     16671     16674     16673
     16797     16796     16799     16798     16806     16805     16808     16807
     16931     16930     16933     16932     16940     16939     16942     16941
     17065     17064     17067     17066     17074     17073     17076     17075
     17199     17198     17201     17200     17208     17207     17210     17209
     17333     17332     17335     17334     17342     17341     17344     17343
     17467     17466     17469     17468     17476     17475     17478     17477
     17601     17600     17603     17602     17610     17609     17612     17611
     17735     17734     17737     17736     17744     17743     17746     17745
     17869     17868     17871     17870     17878     17877     17880     17879
     18003     18002     18005     18004     18012     18011     18014     18013
     18137     18136     18139     18138     18146     18145     18148     18147
     18271     18270     18273     18272     18280     18279     18282     18281
     18405     18404     18407     18406     18414     18413     18416     18415
     18539     18538     18541     18540     18548     18547     18550     18549
     18673     18672     18675     18674     18682     18681     18684     18683
     21175     21174     21177     21176     21184     21183     21186     21185
     21309     21308     21311     21310     21318     21317     21320     21319
     21443     21442     21445     21444     21452     21451     21454     21453
     21577     21576     21579     21578     21586     21585     21588     21587
     21711     21710     21713     21712     21720     21719     21722     21721
     21845     21844     21847     21846     21854     21853     21856     21855
     21979     21978     21981     21980     21988     21987     21990     21989
     22113     22112     22115     22114     22122     22121     22124     22123
     22247     22246     22249     22248     22256     22255     22258     22257
     22381     22380     22383     22382     22390     22389     22392     22391
     22515     22514     22517     22516     22524     22523     22526     22525
     22649     22648     22651     22650     22658     22657     22660     22659
     22783     22782     22785     22784     22792     22791     22794     22793
     22917     22916     22919     22918     22926     22925     22928     22927
     23051     23050     23053     23052     23060     23059     23062     23061
     23185     23184     23187     23186     23194     23193     23196     23195
     23319     23318     23321     23320     23328     23327     23330     23329
     23453     23452     23455     23454     23462     23461     23464     23463
     23587     23586     23589     23588     23596     23595     23598     23597
     23721     23720     23723     23722     23730     23729     23732     23731
     23855     23854     23857     23856     23864     23863     23866     23865
     23989     23988     23991     23990     23998     23997     24000     23999
     24123     24122     24125     24124     24132     24131     24134     24133
     24257     24256     24259     24258     24266     24265     24268     24267
     24391     24390     24393     24392     24400     24399     24402     24401
     24525     24524     24527     24526     24534     24533     24536     24535
     24659     24658     24661     24660     24668     24667     24670     24669
     24793     24792     24795     24794     24802     24801     24804     24803
     24927     24926     24929     24928     24936     24935     24938     24937
     25061     25060     25063     25062     25070     25069     25072     25071
     25195     25194     25197     25196     25204     25203     25206     25205
     25329     25328     25331     25330     25338     25337     25340     25339
     25463     25462     25465     25464     25472     25471     25474     25473
     25597     25596     25599     25598     25606     25605     25608     25607
     25731     25730     25733     25732     25740     25739     25742     25741
     25865     25864     25867     25866     25874     25873     25876     25875
     25999     25998     26001     26000     26008     26007     26010     26009
     26133     26132     26135     26134     26142     26141     26144     26143
     26267     26266     26269     26268     26276     26275     26278     26277
     26401     26400     26403     26402     26410     26409     26412     26411
     26535     26534     26537     26536     26544     26543     26546     26545
     26669     26668     26671     26670     26678     26677     26680     26679
     26803     26802     26805     26804     26812     26811     26814     26813
     26937     26936     26939     26938     26946     26945     26948     26947
     27071     27070     27073     27072     27080     27079     27082     27081
     27205     27204     27207     27206     27214     27213     27216     27215
     27339     27338     27341     27340     27348     27347     27350     27349
     27473     27472     27475     27474     27482     27481     27484     27483
     27607     27606     27609     27608     27616     27615     27618     27617
     27741     27740     27743     27742     27750     27749     27752     27751
     27875     27874     27877     27876     27884     27883     27886     27885
     28009     28008     28011     28010     28018     28017     28020     28019
     28143     28142     28145     28144     28152     28151     28154     28153
     28277     28276     28279     28278     28286     28285     28288     28287
     28411     28410     28413     28412     28420     28419     28422     28421
     28545     28544     28547     28546     28554     28553     28556     28555
     28679     28678     28681     28680     28688     28687     28690     28689
     28813     28812     28815     28814     28822     28821     28824     28823
     28947     28946     28949     28948     28956     28955     28958     28957
     29081     29080     29083     29082     29090     29089     29092     29091
     29215     29214     29217     29216     29224     29223     29226     29225
     29349     29348     29351     29350     29358     29357     29360     29359
     29483     29482     29485     29484     29492     29491     29494     29493
     29617     29616     29619     29618     29626     29625     29628     29627
     29751     29750     29753     29752     29760     29759     29762     29761
     29885     29884     29887     29886     29894     29893     29896     29895
     30019     30018     30021     30020     30028     30027     30030     30029
     30153     30152     30155     30154     30162     30161     30164     30163
     30287     30286     30289     30288     30296     30295     30298     30297
     30421     30420     30423     30422     30430     30429     30432     30431
     30555     30554     30557     30556     30564     30563     30566     30565
     30689     30688     30691     30690     30698     30697     30700     30699
     30823     30822     30825     30824     30832     30831     30834     30833
     30957     30956     30959     30958     30966     30965     30968     30967
     31091     31090     31093     31092     31100     31099     31102     31101
     31225     31224     31227     31226     31234     31233     31236     31235
     31359     31358     31361     31360     31368     31367     31370     31369
     31493     31492     31495     31494     31502     31501     31504     31503
     31627     31626     31629     31628     31636     31635     31638     31637
     31761     31760     31763     31762     31770     31769     31772     31771
     31895     31894     31897     31896     31904     31903     31906     31905
     32029     32028     32031     32030     32038     32037     32040     32039
     32163     32162     32165     32164     32172     32171     32174     32173
     32297     32296     32299     32298     32306     32305     32308     32307
     32431     32430     32433     32432     32440     32439     32442     32441
     32565     32564     32567     32566     32574     32573     32576     32575
     32699     32698     32701     32700     32708     32707     32710     32709
     32833     32832     32835     32834     32842     32841     32844     32843
     32967     32966     32969     32968     32976     32975     32978     32977
     33101     33100     33103     33102     33110     33109     33112     33111
     33235     33234     33237     33236     33244     33243     33246     33245
     33369     33368     33371     33370     33378     33377     33380     33379
     33503     33502     33505     33504     33512     33511     33514     33513
     33637     33636     33639     33638     33646     33645     33648     33647
     33771     33770     33773     33772     33780     33779     33782     33781
     33905     33904     33907     33906     33914     33913     33916     33915
     34039     34038     34041     34040     34048     34047     34050     34049
     34173     34172     34175     34174     34182     34181     34184     34183
     34307     34306     34309     34308     34316     34315     34318     34317
     34441     34440     34443     34442     34450     34449     34452     34451
     34575     34574     34577     34576     34584     34583     34586     34585
     34709     34708     34711     34710     34718     34717     34720     34719
     34843     34842     34845     34844     34852     34851     34854     34853
     34977     34976     34979     34978     34986     34985     34988     34987
     35111     35110     35113     35112     35120     35119     35122     35121
     35245     35244     35247     35246     35254     35253     35256     35255
     35379     35378     35381     35380     35388     35387     35390     35389
     35513     35512     35515     35514     35522     35521     35524     35523
     35647     35646     35649     35648     35656     35655     35658     35657
     35781     35780     35783     35782     35790     35789     35792     35791
     35915     35914     35917     35916     35924     35923     35926     35925
     36049     36048     36051     36050     36058     36057     36060     36059
     36183     36182     36185     36184     36192     36191     36194     36193
     36317     36316     36319     36318     36326     36325     36328     36327
     36451     36450     36453     36452     36460     36459     36462     36461
     36585     36584     36587     36586     36594     36593     36596     36595
     36719     36718     36721     36720     36728     36727     36730     36729
     36853     36852     36855     36854     36862     36861     36864     36863
     36987     36986     36989     36988     36996     36995     36998     36997
     37121     37120     37123     37122     37130     37129     37132     37131
     37255     37254     37257     37256     37264     37263     37266     37265
     37389     37388     37391     37390     37398     37397     37400     37399
     37523     37522     37525     37524     37532     37531     37534     37533
     37657     37656     37659     37658     37666     37665     37668     37667
     37791     37790     37793     37792     37800     37799     37802     37801
     37925     37924     37927     37926     37934     37933     37936     37935

         0 !NDON: donors


         0 !NACC: acceptors


         0 !NNB

         0         0         0         0         0         0         0         0
         0         0         0         0         0         0         0         0
         0         0         0         0         0         0         0         0
         0         0         0         0         0         0         0         0
         0         0         0         0         0         0         0         0
         0         0         0         0         0         0         0         0
         0         0         0         0         0         0         0         0
         0         0         0         0         0         0         0         0
         0         0         0         0         0         0         0         0
         0         0         0         0         0         0         0         0
         0         0         0         0         0         0         0         0
         0         0         0         0         0         0         0         0
         0         0         0         0         0         0         0         0
         0         0         0         0         0         0         0         0
         0         0         0         0         0         0         0         0
         0         0         0         0         0         0         0         0
         0         0         0         0         0         0         0         0
         0         0         0         0         0         0         0         0
         0         0         0         0         0         0         0         0
         0         0         0         0         0         0         0         0
         0         0         0         0         0         0         0         0
         0         0         0         0         0         0         0         0
         0         0         0         0         0         0         0         0
         0         0         0         0         0         0         0         0
         0         0         0         0         0         0         0         0
         0         0         0         0         0         0         0         0
         0         0         0         0         0         0         0         0
         0         0         0         0         0         0         0         0
         0         0         0         0         0         0         0         0
         0         0         0         0         0         0         0         0
         0         0         0         0         0         0         0         0
         0         0         0         0         0         0         0         0
         0         0         0         0         0         0         0         0
         0         0         0         0         0         0         0         0
         0         0         0         0         0         0         0         0
         0         0         0         0         0         0         0         0
         0         0         0         0         0         0         0         0
         0         0         0         0         0         0         0         0
         0         0         0         0         0         0         0         0
         0         0         0         0         0         0         0         0
         0         0         0         0         0         0         0         0
         0         0         0         0         0         0         0         0
         0         0         0         0         0         0         0         0
         0         0         0         0         0         0         0         0
         0         0         0         0         0         0         0         0
         0         0         0         0         0         0         0         0
         0         0         0         0         0         0         0         0
         0         0         0         0         0         0         0         0
         0         0         0         0         0         0         0         0
         0         0         0         0         0         0         0         0
         0         0         0         0         0         0         0         0
         0         0         0         0         0         0         0         0
         0         0         0         0         0         0         0         0
         0         0         0         0         0         0         0         0
         0         0         0         0         0         0         0         0
         0         0         0         0         0         0         0         0
         0         0         0         0         0         0         0         0
         0         0         0         0         0         0         0         0
         0         0         0         0         0         0         0         0
         0         0         0         0         0         0         0         0
         0         0         0         0         0         0         0         0
         0         0         0         0         0         0         0         0
         0         0         0         0         0         0         0         0
         0         0         0         0         0         0         0         0
         0         0         0         0         0         0         0         0
         0         0         0         0         0         0         0         0
         0         0         0         0         0         0         0         0
         0         0         0         0         0         0         0         0
         0         0         0         0         0         0         0         0
         0         0         0         0         0         0         0         0
         0         0         0         0         0         0         0         0
         0         0         0         0         0         0         0         0
         0         0         0         0         0         0         0         0
         0         0         0         0         0         0         0         0
         0         0         0         0         0         0         0         0
         0         0         0         0         0         0         0         0
         0         0         0         0         0         0         0         0
         0         0         0         0         0         0         0         0
         0         0         0         0         0         0         0         0
         0         0         0         0         0         0         0         0
         0         0         0         0         0         0         0         0
         0         0         0         0         0         0         0         0
         0         0         0         0         0         0         0         0
         0         0         0         0         0         0         0         0
         0         0         0         0         0         0         0         0
         0         0         0         0         0         0         0         0
         0         0         0         0         0         0         0         0
         0         0         0         0         0         0         0         0
         0         0         0         0         0         0         0         0
         0         0         0         0         0         0         0         0
         0         0         0         0         0         0         0         0
         0         0         0         0         0         0         0         0
         0         0         0         0         0         0         0         0
         0         0         0         0         0         0         0         0
         0         0         0         0         0         0         0         0
         0         0         0         0         0         0         0         0
         0         0         0         0         0         0         0         0
         0         0         0         0         0         0         0         0
         0         0         0         0         0         0         0         0
         0         0         0         0         0         0         0         0
         0         0         0         0         0         0         0         0
         0         0         0         0         0         0         0         0
         0         0         0         0         0         0         0         0
         0         0         0         0         0         0         0         0
         0         0         0         0         0         0         0         0
         0         0         0         0         0         0         0         0
         0         0         0         0         0         0         0         0
         0         0         0         0         0         0         0         0
         0         0         0         0         0         0         0         0
         0         0         0         0         0         0         0         0
         0         0         0         0         0         0         0         0
         0         0         0         0         0         0         0         0
         0         0         0         0         0         0         0         0
         0         0         0         0         0         0         0         0
         0         0         0         0         0         0         0         0
         0         0         0         0         0         0         0         0
         0         0         0         0         0         0         0         0
         0         0         0         0         0         0         0         0
         0         0         0         0         0         0         0         0
         0         0         0         0         0         0         0         0
         0         0         0         0         0         0         0         0
         0         0         0         0         0         0         0         0
         0         0         0         0         0         0         0         0
         0         0         0         0         0         0         0         0
         0         0         0         0         0         0         0         0
         0         0         0         0         0         0         0         0
         0         0         0         0         0         0         0         0
         0         0         0         0         0         0         0         0
         0         0         0         0         0         0         0         0
         0         0         0         0         0         0         0         0
         0         0         0         0         0         0         0         0
         0         0         0         0         0         0         0         0
         0         0         0         0         0         0         0         0
         0         0         0         0         0         0         0         0
         0         0         0         0         0         0         0         0
         0         0         0         0         0         0         0         0
         0         0         0         0         0         0         0         0
         0         0         0         0         0         0         0         0
         0         0         0         0         0         0         0         0
         0         0         0         0         0         0         0         0
         0         0         0         0         0         0         0         0
         0         0         0         0         0         0         0         0
         0         0         0         0         0         0         0         0
         0         0         0         0         0         0         0         0
         0         0         0         0         0         0         0         0
         0         0         0         0         0         0         0         0
         0         0         0         0         0         0         0         0
         0         0         0         0         0         0         0         0
         0         0         0         0         0         0         0         0
         0         0         0         0         0         0         0         0
         0         0         0         0         0         0         0         0
         0         0         0         0         0         0         0         0
         0         0         0         0         0         0         0         0
         0         0         0         0         0         0         0         0
         0         0         0         0         0         0         0         0
         0         0         0         0         0         0         0         0
         0         0         0         0         0         0         0         0
         0         0         0         0         0         0         0         0
         0         0         0         0         0         0         0         0
         0         0         0         0         0         0         0         0
         0         0         0         0         0         0         0         0
         0         0         0         0         0         0         0         0
         0         0         0         0         0         0         0         0
         0         0         0         0         0         0         0         0
         0         0         0         0         0         0         0         0
         0         0         0         0         0         0         0         0
         0         0         0         0         0         0         0         0
         0         0         0         0         0         0         0         0
         0         0         0         0         0         0         0         0
         0         0         0         0         0         0         0         0
         0         0         0         0         0         0         0         0
         0         0         0         0         0         0         0         0
         0         0         0         0         0         0         0         0
         0         0         0         0         0         0         0         0
         0         0         0         0         0         0         0         0
         0         0         0         0         0         0         0         0
         0         0         0         0         0         0         0         0
         0         0         0         0         0         0         0         0
         0         0         0         0         0         0         0         0
         0         0         0         0         0         0         0         0
         0         0         0         0         0         0         0         0
         0         0         0         0         0         0         0         0
         0         0         0         0         0         0         0         0
         0         0         0         0         0         0         0         0
         0         0         0         0         0         0         0         0
         0         0         0         0         0         0         0         0
         0         0         0         0         0         0         0         0
         0         0         0         0         0         0         0         0
         0         0         0         0         0         0         0         0
         0         0         0         0         0         0         0         0
         0         0         0         0         0         0         0         0
         0         0         0         0         0         0         0         0
         0         0         0         0         0         0         0         0
         0         0         0         0         0         0         0         0
         0         0         0         0         0         0         0         0
         0         0         0         0         0         0         0         0
         0         0         0         0         0         0         0         0
         0         0         0         0         0         0         0         0
         0         0         0         0         0         0         0         0
         0         0         0         0         0         0         0         0
         0         0         0         0         0         0         0         0
         0         0         0         0         0         0         0         0
         0         0         0         0         0         0         0         0
         0         0         0         0         0         0         0         0
         0         0         0         0         0         0         0         0
         0         0         0         0         0         0         0         0
         0         0         0         0         0         0         0         0
         0         0         0         0         0         0         0         0
         0         0         0         0         0         0         0         0
         0         0         0         0         0         0         0         0
         0         0         0         0         0         0         0         0
         0         0         0         0         0         0         0         0
         0         0         0         0         0         0         0         0
         0         0         0         0         0         0         0         0
         0         0         0         0         0         0         0         0
         0         0         0         0         0         0         0         0
         0         0         0         0         0         0         0         0
         0         0         0         0         0         0         0         0
         0         0         0         0         0         0         0         0
         0         0         0         0         0         0         0         0
         0         0         0         0         0         0         0         0
         0         0         0         0         0         0         0         0
         0         0         0         0         0         0         0         0
         0         0         0         0         0         0         0         0
         0         0         0         0         0         0         0         0
         0         0         0         0         0         0         0         0
         0         0         0         0         0         0         0         0
         0         0         0         0         0         0         0         0
         0         0         0         0         0         0         0         0
         0         0         0         0         0         0         0         0
         0         0         0         0         0         0         0         0
         0         0         0         0         0         0         0         0
         0         0         0         0         0         0         0         0
         0         0         0         0         0         0         0         0
         0         0         0         0         0         0         0         0
         0         0         0         0         0         0         0         0
         0         0         0         0         0         0         0         0
         0         0         0         0         0         0         0         0
         0         0         0         0         0         0         0         0
         0         0         0         0         0         0         0         0
         0         0         0         0         0         0         0         0
         0         0         0         0         0         0         0         0
         0         0         0         0         0         0         0         0
         0         0         0         0         0         0         0         0
         0         0         0         0         0         0         0         0
         0         0         0         0         0         0         0         0
         0         0         0         0         0         0         0         0
         0         0         0         0         0         0         0         0
         0         0         0         0         0         0         0         0
         0         0         0         0         0         0         0         0
         0         0         0         0         0         0         0         0
         0         0         0         0         0         0         0         0
         0         0         0         0         0         0         0         0
         0         0         0         0         0         0         0         0
         0         0         0         0         0         0         0         0
         0         0         0         0         0         0         0         0
         0         0         0         0         0         0         0         0
         0         0         0         0         0         0         0         0
         0         0         0         0         0         0         0         0
         0         0         0         0         0         0         0         0
         0         0         0         0         0         0         0         0
         0         0         0         0         0         0         0         0
         0         0         0         0         0         0         0         0
         0         0         0         0         0         0         0         0
         0         0         0         0         0         0         0         0
         0         0         0         0         0         0         0         0
         0         0         0         0         0         0         0         0
         0         0         0         0         0         0         0         0
         0         0         0         0         0         0         0         0
         0         0         0         0         0         0         0         0
         0         0         0         0         0         0         0         0
         0         0         0         0         0         0         0         0
         0         0         0         0         0         0         0         0
         0         0         0         0         0         0         0         0
         0         0         0         0         0         0         0         0
         0         0         0         0         0         0         0         0
         0         0         0         0         0         0         0         0
         0         0         0         0         0         0         0         0
         0         0         0         0         0         0         0         0
         0         0         0         0         0         0         0         0
         0         0         0         0         0         0         0         0
         0         0         0         0         0         0         0         0
         0         0         0         0         0         0         0         0
         0         0         0         0         0         0         0         0
         0         0         0         0         0         0         0         0
         0         0         0         0         0         0         0         0
         0         0         0         0         0         0         0         0
         0         0         0         0         0         0         0         0
         0         0         0         0         0         0         0         0
         0         0         0         0         0         0         0         0
         0         0         0         0         0         0         0         0
         0         0         0         0         0         0         0         0
         0         0         0         0         0         0         0         0
         0         0         0         0         0         0         0         0
         0         0         0         0         0         0         0         0
         0         0         0         0         0         0         0         0
         0         0         0         0         0         0         0         0
         0         0         0         0         0         0         0         0
         0         0         0         0         0         0         0         0
         0         0         0         0         0         0         0         0
         0         0         0         0         0         0         0         0
         0         0         0         0         0         0         0         0
         0         0         0         0         0         0         0         0
         0         0         0         0         0         0         0         0
         0         0         0         0         0         0         0         0
         0         0         0         0         0         0         0         0
         0         0         0         0         0         0         0         0
         0         0         0         0         0         0         0         0
         0         0         0         0         0         0         0         0
         0         0         0         0         0         0         0         0
         0         0         0         0         0         0         0         0
         0         0         0         0         0         0         0         0
         0         0         0         0         0         0         0         0
         0         0         0         0         0         0         0         0
         0         0         0         0         0         0         0         0
         0         0         0         0         0         0         0         0
         0         0         0         0         0         0         0         0
         0         0         0         0         0         0         0         0
         0         0         0         0         0         0         0         0
         0         0         0         0         0         0         0         0
         0         0         0         0         0         0         0         0
         0         0         0         0         0         0         0         0
         0         0         0         0         0         0         0         0
         0         0         0         0         0         0         0         0
         0         0         0         0         0         0         0         0
         0         0         0         0         0         0         0         0
         0         0         0         0         0         0         0         0
         0         0         0         0         0         0         0         0
         0         0         0         0         0         0         0         0
         0         0         0         0         0         0         0         0
         0         0         0         0         0         0         0         0
         0         0         0         0         0         0         0         0
         0         0         0         0         0         0         0         0
         0         0         0         0         0         0         0         0
         0         0         0         0         0         0         0         0
         0         0         0         0         0         0         0         0
         0         0         0         0         0         0         0         0
         0         0         0         0         0         0         0         0
         0         0         0         0         0         0         0         0
         0         0         0         0         0         0         0         0
         0         0         0         0         0         0         0         0
         0         0         0         0         0         0         0         0
         0         0         0         0         0         0         0         0
         0         0         0         0         0         0         0         0
         0         0         0         0         0         0         0         0
         0         0         0         0         0         0         0         0
         0         0         0         0         0         0         0         0
         0         0         0         0         0         0         0         0
         0         0         0         0         0         0         0         0
         0         0         0         0         0         0         0         0
         0         0         0         0         0         0         0         0
         0         0         0         0         0         0         0         0
         0         0         0         0         0         0         0         0
         0         0         0         0         0         0         0         0
         0         0         0         0         0         0         0         0
         0         0         0         0         0         0         0         0
         0         0         0         0         0         0         0         0
         0         0         0         0         0         0         0         0
         0         0         0         0         0         0         0         0
         0         0         0         0         0         0         0         0
         0         0         0         0         0         0         0         0
         0         0         0         0         0         0         0         0
         0         0         0         0         0         0         0         0
         0         0         0         0         0         0         0         0
         0         0         0         0         0         0         0         0
         0         0         0         0         0         0         0         0
         0         0         0         0         0         0         0         0
         0         0         0         0         0         0         0         0
         0         0         0         0         0         0         0         0
         0         0         0         0         0         0         0         0
         0         0         0         0         0         0         0         0
         0         0         0         0         0         0         0         0
         0         0         0         0         0         0         0         0
         0         0         0         0         0         0         0         0
         0         0         0         0         0         0         0         0
         0         0         0         0         0         0         0         0
         0         0         0         0         0         0         0         0
         0         0         0         0         0         0         0         0
         0         0         0         0         0         0         0         0
         0         0         0         0         0         0         0         0
         0         0         0         0         0         0         0         0
         0         0         0         0         0         0         0         0
         0         0         0         0         0         0         0         0
         0         0         0         0         0         0         0         0
         0         0         0         0         0         0         0         0
         0         0         0         0         0         0         0         0
         0         0         0         0         0         0         0         0
         0         0         0         0         0         0         0         0
         0         0         0         0         0         0         0         0
         0         0         0         0         0         0         0         0
         0         0         0         0         0         0         0         0
         0         0         0         0         0         0         0         0
         0         0         0         0         0         0         0         0
         0         0         0         0         0         0         0         0
         0         0         0         0         0         0         0         0
         0         0         0         0         0         0         0         0
         0         0         0         0         0         0         0         0
         0         0         0         0         0         0         0         0
         0         0         0         0         0         0         0         0
         0         0         0         0         0         0         0         0
         0         0         0         0         0         0         0         0
         0         0         0         0         0         0         0         0
         0         0         0         0         0         0         0         0
         0         0         0         0         0         0         0         0
         0         0         0         0         0         0         0         0
         0         0         0         0         0         0         0         0
         0         0         0         0         0         0         0         0
         0         0         0         0         0         0         0         0
         0         0         0         0         0         0         0         0
         0         0         0         0         0         0         0         0
         0         0         0         0         0         0         0         0
         0         0         0         0         0         0         0         0
         0         0         0         0         0         0         0         0
         0         0         0         0         0         0         0         0
         0         0         0         0         0         0         0         0
         0         0         0         0         0         0         0         0
         0         0         0         0         0         0         0         0
         0         0         0         0         0         0         0         0
         0         0         0         0         0         0         0         0
         0         0         0         0         0         0         0         0
         0         0         0         0         0         0         0         0
         0         0         0         0         0         0         0         0
         0         0         0         0         0         0         0         0
         0         0         0         0         0         0         0         0
         0         0         0         0         0         0         0         0
         0         0         0         0         0         0         0         0
         0         0         0         0         0         0         0         0
         0         0         0         0         0         0         0         0
         0         0         0         0         0         0         0         0
         0         0         0         0         0         0         0         0
         0         0         0         0         0         0         0         0
         0         0         0         0         0         0         0         0
         0         0         0         0         0         0         0         0
         0         0         0         0         0         0         0         0
         0         0         0         0         0         0         0         0
         0         0         0         0         0         0         0         0
         0         0         0         0         0         0         0         0
         0         0         0         0         0         0         0         0
         0         0         0         0         0         0         0         0
         0         0         0         0         0         0         0         0
         0         0         0         0         0         0         0         0
         0         0         0         0         0         0         0         0
         0         0         0         0         0         0         0         0
         0         0         0         0         0         0         0         0
         0         0         0         0         0         0         0         0
         0         0         0         0         0         0         0         0
         0         0         0         0         0         0         0         0
         0         0         0         0         0         0         0         0
         0         0         0         0         0         0         0         0
         0         0         0         0         0         0         0         0
         0         0         0         0         0         0         0         0
         0         0         0         0         0         0         0         0
         0         0         0         0         0         0         0         0
         0         0         0         0         0         0         0         0
         0         0         0         0         0         0         0         0
         0         0         0         0         0         0         0         0
         0         0         0         0         0         0         0         0
         0         0         0         0         0         0         0         0
         0         0         0         0         0         0         0         0
         0         0         0         0         0         0         0         0
         0         0         0         0         0         0         0         0
         0         0         0         0         0         0         0         0
         0         0         0         0         0         0         0         0
         0         0         0         0         0         0         0         0
         0         0         0         0         0         0         0         0
         0         0         0         0         0         0         0         0
         0         0         0         0         0         0         0         0
         0         0         0         0         0         0         0         0
         0         0         0         0         0         0         0         0
         0         0         0         0         0         0         0         0
         0         0         0         0         0         0         0         0
         0         0         0         0         0         0         0         0
         0         0         0         0         0         0         0         0
         0         0         0         0         0         0         0         0
         0         0         0         0         0         0         0         0
         0         0         0         0         0         0         0         0
         0         0         0         0         0         0         0         0
         0         0         0         0         0         0         0         0
         0         0         0         0         0         0         0         0
         0         0         0         0         0         0         0         0
         0         0         0         0         0         0         0         0
         0         0         0         0         0         0         0         0
         0         0         0         0         0         0         0         0
         0         0         0         0         0         0         0         0
         0         0         0         0         0         0         0         0
         0         0         0         0         0         0         0         0
         0         0         0         0         0         0         0         0
         0         0         0         0         0         0         0         0
         0         0         0         0         0         0         0         0
         0         0         0         0         0         0         0         0
         0         0         0         0         0         0         0         0
         0         0         0         0         0         0         0         0
         0         0         0         0         0         0         0         0
         0         0         0         0         0         0         0         0
         0         0         0         0         0         0         0         0
         0         0         0         0         0         0         0         0
         0         0         0         0         0         0         0         0
         0         0         0         0         0         0         0         0
         0         0         0         0         0         0         0         0
         0         0         0         0         0         0         0         0
         0         0         0         0         0         0         0         0
         0         0         0         0         0         0         0         0
         0         0         0         0         0         0         0         0
         0         0         0         0         0         0         0         0
         0         0         0         0         0         0         0         0
         0         0         0         0         0         0         0         0
         0         0         0         0         0         0         0         0
         0         0         0         0         0         0         0         0
         0         0         0         0         0         0         0         0
         0         0         0         0         0         0         0         0
         0         0         0         0         0         0         0         0
         0         0         0         0         0         0         0         0
         0         0         0         0         0         0         0         0
         0         0         0         0         0         0         0         0
         0         0         0         0         0         0         0         0
         0         0         0         0         0         0         0         0
         0         0         0         0         0         0         0         0
         0         0         0         0         0         0         0         0
         0         0         0         0         0         0         0         0
         0         0         0         0         0         0         0         0
         0         0         0         0         0         0         0         0
         0         0         0         0         0         0         0         0
         0         0         0         0         0         0         0         0
         0         0         0         0         0         0         0         0
         0         0         0         0         0         0         0         0
         0         0         0         0         0         0         0         0
         0         0         0         0         0         0         0         0
         0         0         0         0         0         0         0         0
         0         0         0         0         0         0         0         0
         0         0         0         0         0         0         0         0
         0         0         0         0         0         0         0         0
         0         0         0         0         0         0         0         0
         0         0         0         0         0         0         0         0
         0         0         0         0         0         0         0         0
         0         0         0         0         0         0         0         0
         0         0         0         0         0         0         0         0
         0         0         0         0         0         0         0         0
         0         0         0         0         0         0         0         0
         0         0         0         0         0         0         0         0
         0         0         0         0         0         0         0         0
         0         0         0         0         0         0         0         0
         0         0         0         0         0         0         0         0
         0         0         0         0         0         0         0         0
         0         0         0         0         0         0         0         0
         0         0         0         0         0         0         0         0
         0         0         0         0         0         0         0         0
         0         0         0         0         0         0         0         0
         0         0         0         0         0         0         0         0
         0         0         0         0         0         0         0         0
         0         0         0         0         0         0         0         0
         0         0         0         0         0         0         0         0
         0         0         0         0         0         0         0         0
         0         0         0         0         0         0         0         0
         0         0         0         0         0         0         0         0
         0         0         0         0         0         0         0         0
         0         0         0         0         0         0         0         0
         0         0         0         0         0         0         0         0
         0         0         0         0         0         0         0         0
         0         0         0         0         0         0         0         0
         0         0         0         0         0         0         0         0
         0         0         0         0         0         0         0         0
         0         0         0         0         0         0         0         0
         0         0         0         0         0         0         0         0
         0         0         0         0         0         0         0         0
         0         0         0         0         0         0         0         0
         0         0         0         0         0         0         0         0
         0         0         0         0         0         0         0         0
         0         0         0         0         0         0         0         0
         0         0         0         0         0         0         0         0
         0         0         0         0         0         0         0         0
         0         0         0         0         0         0         0         0
         0         0         0         0         0         0         0         0
         0         0         0         0         0         0         0         0
         0         0         0         0         0         0         0         0
         0         0         0         0         0         0         0         0
         0         0         0         0         0         0         0         0
         0         0         0         0         0         0         0         0
         0         0         0         0         0         0         0         0
         0         0         0         0         0         0         0         0
         0         0         0         0         0         0         0         0
         0         0         0         0         0         0         0         0
         0         0         0         0         0         0         0         0
         0         0         0         0         0         0         0         0
         0         0         0         0         0         0         0         0
         0         0         0         0         0         0         0         0
         0         0         0         0         0         0         0         0
         0         0         0         0         0         0         0         0
         0         0         0         0         0         0         0         0
         0         0         0         0         0         0         0         0
         0         0         0         0         0         0         0         0
         0         0         0         0         0         0         0         0
         0         0         0         0         0         0         0         0
         0         0         0         0         0         0         0         0
         0         0         0         0         0         0         0         0
         0         0         0         0         0         0         0         0
         0         0         0         0         0         0         0         0
         0         0         0         0         0         0         0         0
         0         0         0         0         0         0         0         0
         0         0         0         0         0         0         0         0
         0         0         0         0         0         0         0         0
         0         0         0         0         0         0         0         0
         0         0         0         0         0         0         0         0
         0         0         0         0         0         0         0         0
         0         0         0         0         0         0         0         0
         0         0         0         0         0         0         0         0
         0         0         0         0         0         0         0         0
         0         0         0         0         0         0         0         0
         0         0         0         0         0         0         0         0
         0         0         0         0         0         0         0         0
         0         0         0         0         0         0         0         0
         0         0         0         0         0         0         0         0
         0         0         0         0         0         0         0         0
         0         0         0         0         0         0         0         0
         0         0         0         0         0         0         0         0
         0         0         0         0         0         0         0         0
         0         0         0         0         0         0         0         0
         0         0         0         0         0         0         0         0
         0         0         0         0         0         0         0         0
         0         0         0         0         0         0         0         0
         0         0         0         0         0         0         0         0
         0         0         0         0         0         0         0         0
         0         0         0         0         0         0         0         0
         0         0         0         0         0         0         0         0
         0         0         0         0         0         0         0         0
         0         0         0         0         0         0         0         0
         0         0         0         0         0         0         0         0
         0         0         0         0         0         0         0         0
         0         0         0         0         0         0         0         0
         0         0         0         0         0         0         0         0
         0         0         0         0         0         0         0         0
         0         0         0         0         0         0         0         0
         0         0         0         0         0         0         0         0
         0         0         0         0         0         0         0         0
         0         0         0         0         0         0         0         0
         0         0         0         0         0         0         0         0
         0         0         0         0         0         0         0         0
         0         0         0         0         0         0         0         0
         0         0         0         0         0         0         0         0
         0         0         0         0         0         0         0         0
         0         0         0         0         0         0         0         0
         0         0         0         0         0         0         0         0
         0         0         0         0         0         0         0         0
         0         0         0         0         0         0         0         0
         0         0         0         0         0         0         0         0
         0         0         0         0         0         0         0         0
         0         0         0         0         0         0         0         0
         0         0         0         0         0         0         0         0
         0         0         0         0         0         0         0         0
         0         0         0         0         0         0         0         0
         0         0         0         0         0         0         0         0
         0         0         0         0         0         0         0         0
         0         0         0         0         0         0         0         0
         0         0         0         0         0         0         0         0
         0         0         0         0         0         0         0         0
         0         0         0         0         0         0         0         0
         0         0         0         0         0         0         0         0
         0         0         0         0         0         0         0         0
         0         0         0         0         0         0         0         0
         0         0         0         0         0         0         0         0
         0         0         0         0         0         0         0         0
         0         0         0         0         0         0         0         0
         0         0         0         0         0         0         0         0
         0         0         0         0         0         0         0         0
         0         0         0         0         0         0         0         0
         0         0         0         0         0         0         0         0
         0         0         0         0         0         0         0         0
         0         0         0         0         0         0         0         0
         0         0         0         0         0         0         0         0
         0         0         0         0         0         0         0         0
         0         0         0         0         0         0         0         0
         0         0         0         0         0         0         0         0
         0         0         0         0         0         0         0         0
         0         0         0         0         0         0         0         0
         0         0         0         0         0         0         0         0
         0         0         0         0         0         0         0         0
         0         0         0         0         0         0         0         0
         0         0         0         0         0         0         0         0
         0         0         0         0         0         0         0         0
         0         0         0         0         0         0         0         0
         0         0         0         0         0         0         0         0
         0         0         0         0         0         0         0         0
         0         0         0         0         0         0         0         0
         0         0         0         0         0         0         0         0
         0         0         0         0         0         0         0         0
         0         0         0         0         0         0         0         0
         0         0         0         0         0         0         0         0
         0         0         0         0         0         0         0         0
         0         0         0         0         0         0         0         0
         0         0         0         0         0         0         0         0
         0         0         0         0         0         0         0         0
         0         0         0         0         0         0         0         0
         0         0         0         0         0         0         0         0
         0         0         0         0         0         0         0         0
         0         0         0         0         0         0         0         0
         0         0         0         0         0         0         0         0
         0         0         0         0         0         0         0         0
         0         0         0         0         0         0         0         0
         0         0         0         0         0         0         0         0
         0         0         0         0         0         0         0         0
         0         0         0         0         0         0         0         0
         0         0         0         0         0         0         0         0
         0         0         0         0         0         0         0         0
         0         0         0         0         0         0         0         0
         0         0         0         0         0         0         0         0
         0         0         0         0         0         0         0         0
         0         0         0         0         0         0         0         0
         0         0         0         0         0         0         0         0
         0         0         0         0         0         0         0         0
         0         0         0         0         0         0         0         0
         0         0         0         0         0         0         0         0
         0         0         0         0         0         0         0         0
         0         0         0         0         0         0         0         0
         0         0         0         0         0         0         0         0
         0         0         0         0         0         0         0         0
         0         0         0         0         0         0         0         0
         0         0         0         0         0         0         0         0
         0         0         0         0         0         0         0         0
         0         0         0         0         0         0         0         0
         0         0         0         0         0         0         0         0
         0         0         0         0         0         0         0         0
         0         0         0         0         0         0         0         0
         0         0         0         0         0         0         0         0
         0         0         0         0         0         0         0         0
         0         0         0         0         0         0         0         0
         0         0         0         0         0         0         0         0
         0         0         0         0         0         0         0         0
         0         0         0         0         0         0         0         0
         0         0         0         0         0         0         0         0
         0         0         0         0         0         0         0         0
         0         0         0         0         0         0         0         0
         0         0         0         0         0         0         0         0
         0         0         0         0         0         0         0         0
         0         0         0         0         0         0         0         0
         0         0         0         0         0         0         0         0
         0         0         0         0         0         0         0         0
         0         0         0         0         0         0         0         0
         0         0         0         0         0         0         0         0
         0         0         0         0         0         0         0         0
         0         0         0         0         0         0         0         0
         0         0         0         0         0         0         0         0
         0         0         0         0         0         0         0         0
         0         0         0         0         0         0         0         0
         0         0         0         0         0         0         0         0
         0         0         0         0         0         0         0         0
         0         0         0         0         0         0         0         0
         0         0         0         0         0         0         0         0
         0         0         0         0         0         0         0         0
         0         0         0         0         0         0         0         0
         0         0         0         0         0         0         0         0
         0         0         0         0         0         0         0         0
         0         0         0         0         0         0         0         0
         0         0         0         0         0         0         0         0
         0         0         0         0         0         0         0         0
         0         0         0         0         0         0         0         0
         0         0         0         0         0         0         0         0
         0         0         0         0         0         0         0         0
         0         0         0         0         0         0         0         0
         0         0         0         0         0         0         0         0
         0         0         0         0         0         0         0         0
         0         0         0         0         0         0         0         0
         0         0         0         0         0         0         0         0
         0         0         0         0         0         0         0         0
         0         0         0         0         0         0         0         0
         0         0         0         0         0         0         0         0
         0         0         0         0         0         0         0         0
         0         0         0         0         0         0         0         0
         0         0         0         0         0         0         0         0
         0         0         0         0         0         0         0         0
         0         0         0         0         0         0         0         0
         0         0         0         0         0         0         0         0
         0         0         0         0         0         0         0         0
         0         0         0         0         0         0         0         0
         0         0         0         0         0         0         0         0
         0         0         0         0         0         0         0         0
         0         0         0         0         0         0         0         0
         0         0         0         0         0         0         0         0
         0         0         0         0         0         0         0         0
         0         0         0         0         0         0         0         0
         0         0         0         0         0         0         0         0
         0         0         0         0         0         0         0         0
         0         0         0         0         0         0         0         0
         0         0         0         0         0         0         0         0
         0         0         0         0         0         0         0         0
         0         0         0         0         0         0         0         0
         0         0         0         0         0         0         0         0
         0         0         0         0         0         0         0         0
         0         0         0         0         0         0         0         0
         0         0         0         0         0         0         0         0
         0         0         0         0         0         0         0         0
         0         0         0         0         0         0         0         0
         0         0         0         0         0         0         0         0
         0         0         0         0         0         0         0         0
         0         0         0         0         0         0         0         0
         0         0         0         0         0         0         0         0
         0         0         0         0         0         0         0         0
         0         0         0         0         0         0         0         0
         0         0         0         0         0         0         0         0
         0         0         0         0         0         0         0         0
         0         0         0         0         0         0         0         0
         0         0         0         0         0         0         0         0
         0         0         0         0         0         0         0         0
         0         0         0         0         0         0         0         0
         0         0         0         0         0         0         0         0
         0         0         0         0         0         0         0         0
         0         0         0         0         0         0         0         0
         0         0         0         0         0         0         0         0
         0         0         0         0         0         0         0         0
         0         0         0         0         0         0         0         0
         0         0         0         0         0         0         0         0
         0         0         0         0         0         0         0         0
         0         0         0         0         0         0         0         0
         0         0         0         0         0         0         0         0
         0         0         0         0         0         0         0         0
         0         0         0         0         0         0         0         0
         0         0         0         0         0         0         0         0
         0         0         0         0         0         0         0         0
         0         0         0         0         0         0         0         0
         0         0         0         0         0         0         0         0
         0         0         0         0         0         0         0         0
         0         0         0         0         0         0         0         0
         0         0         0         0         0         0         0         0
         0         0         0         0         0         0         0         0
         0         0         0         0         0         0         0         0
         0         0         0         0         0         0         0         0
         0         0         0         0         0         0         0         0
         0         0         0         0         0         0         0         0
         0         0         0         0         0         0         0         0
         0         0         0         0         0         0         0         0
         0         0         0         0         0         0         0         0
         0         0         0         0         0         0         0         0
         0         0         0         0         0         0         0         0
         0         0         0         0         0         0         0         0
         0         0         0         0         0         0         0         0
         0         0         0         0         0         0         0         0
         0         0         0         0         0         0         0         0
         0         0         0         0         0         0         0         0
         0         0         0         0         0         0         0         0
         0         0         0         0         0         0         0         0
         0         0         0         0         0         0         0         0
         0         0         0         0         0         0         0         0
         0         0         0         0         0         0         0         0
         0         0         0         0         0         0         0         0
         0         0         0         0         0         0         0         0
         0         0         0         0         0         0         0         0
         0         0         0         0         0         0         0         0
         0         0         0         0         0         0         0         0
         0         0         0         0         0         0         0         0
         0         0         0         0         0         0         0         0
         0         0         0         0         0         0         0         0
         0         0         0         0         0         0         0         0
         0         0         0         0         0         0         0         0
         0         0         0         0         0         0         0         0
         0         0         0         0         0         0         0         0
         0         0         0         0         0         0         0         0
         0         0         0         0         0         0         0         0
         0         0         0         0         0         0         0         0
         0         0         0         0         0         0         0         0
         0         0         0         0         0         0         0         0
         0         0         0         0         0         0         0         0
         0         0         0         0         0         0         0         0
         0         0         0         0         0         0         0         0
         0         0         0         0         0         0         0         0
         0         0         0         0         0         0         0         0
         0         0         0         0         0         0         0         0
         0         0         0         0         0         0         0         0
         0         0         0         0         0         0         0         0
         0         0         0         0         0         0         0         0
         0         0         0         0         0         0         0         0
         0         0         0         0         0         0         0         0
         0         0         0         0         0         0         0         0
         0         0         0         0         0         0         0         0
         0         0         0         0         0         0         0         0
         0         0         0         0         0         0         0         0
         0         0         0         0         0         0         0         0
         0         0         0         0         0         0         0         0
         0         0         0         0         0         0         0         0
         0         0         0         0         0         0         0         0
         0         0         0         0         0         0         0         0
         0         0         0         0         0         0         0         0
         0         0         0         0         0         0         0         0
         0         0         0         0         0         0         0         0
         0         0         0         0         0         0         0         0
         0         0         0         0         0         0         0         0
         0         0         0         0         0         0         0         0
         0         0         0         0         0         0         0         0
         0         0         0         0         0         0         0         0
         0         0         0         0         0         0         0         0
         0         0         0         0         0         0         0         0
         0         0         0         0         0         0         0         0
         0         0         0         0         0         0         0         0
         0         0         0         0         0         0         0         0
         0         0         0         0         0         0         0         0
         0         0         0         0         0         0         0         0
         0         0         0         0         0         0         0         0
         0         0         0         0         0         0         0         0
         0         0         0         0         0         0         0         0
         0         0         0         0         0         0         0         0
         0         0         0         0         0         0         0         0
         0         0         0         0         0         0         0         0
         0         0         0         0         0         0         0         0
         0         0         0         0         0         0         0         0
         0         0         0         0         0         0         0         0
         0         0         0         0         0         0         0         0
         0         0         0         0         0         0         0         0
         0         0         0         0         0         0         0         0
         0         0         0         0         0         0         0         0
         0         0         0         0         0         0         0         0
         0         0         0         0         0         0         0         0
         0         0         0         0         0         0         0         0
         0         0         0         0         0         0         0         0
         0         0         0         0         0         0         0         0
         0         0         0         0         0         0         0         0
         0         0         0         0         0         0         0         0
         0         0         0         0         0         0         0         0
         0         0         0         0         0         0         0         0
         0         0         0         0         0         0         0         0
         0         0         0         0         0         0         0         0
         0         0         0         0         0         0         0         0
         0         0         0         0         0         0         0         0
         0         0         0         0         0         0         0         0
         0         0         0         0         0         0         0         0
         0         0         0         0         0         0         0         0
         0         0         0         0         0         0         0         0
         0         0         0         0         0         0         0         0
         0         0         0         0         0         0         0         0
         0         0         0         0         0         0         0         0
         0         0         0         0         0         0         0         0
         0         0         0         0         0         0         0         0
         0         0         0         0         0         0         0         0
         0         0         0         0         0         0         0         0
         0         0         0         0         0         0         0         0
         0         0         0         0         0         0         0         0
         0         0         0         0         0         0         0         0
         0         0         0         0         0         0         0         0
         0         0         0         0         0         0         0         0
         0         0         0         0         0         0         0         0
         0         0         0         0         0         0         0         0
         0         0         0         0         0         0         0         0
         0         0         0         0         0         0         0         0
         0         0         0         0         0         0         0         0
         0         0         0         0         0         0         0         0
         0         0         0         0         0         0         0         0
         0         0         0         0         0         0         0         0
         0         0         0         0         0         0         0         0
         0         0         0         0         0         0         0         0
         0         0         0         0         0         0         0         0
         0         0         0         0         0         0         0         0
         0         0         0         0         0         0         0         0
         0         0         0         0         0         0         0         0
         0         0         0         0         0         0         0         0
         0         0         0         0         0         0         0         0
         0         0         0         0         0         0         0         0
         0         0         0         0         0         0         0         0
         0         0         0         0         0         0         0         0
         0         0         0         0         0         0         0         0
         0         0         0         0         0         0         0         0
         0         0         0         0         0         0         0         0
         0         0         0         0         0         0         0         0
         0         0         0         0         0         0         0         0
         0         0         0         0         0         0         0         0
         0         0         0         0         0         0         0         0
         0         0         0         0         0         0         0         0
         0         0         0         0         0         0         0         0
         0         0         0         0         0         0         0         0
         0         0         0         0         0         0         0         0
         0         0         0         0         0         0         0         0
         0         0         0         0         0         0         0         0
         0         0         0         0         0         0         0         0
         0         0         0         0         0         0         0         0
         0         0         0         0         0         0         0         0
         0         0         0         0         0         0         0         0
         0         0         0         0         0         0         0         0
         0         0         0         0         0         0         0         0
         0         0         0         0         0         0         0         0
         0         0         0         0         0         0         0         0
         0         0         0         0         0         0         0         0
         0         0         0         0         0         0         0         0
         0         0         0         0         0         0         0         0
         0         0         0         0         0         0         0         0
         0         0         0         0         0         0         0         0
         0         0         0         0         0         0         0         0
         0         0         0         0         0         0         0         0
         0         0         0         0         0         0         0         0
         0         0         0         0         0         0         0         0
         0         0         0         0         0         0         0         0
         0         0         0         0         0         0         0         0
         0         0         0         0         0         0         0         0
         0         0         0         0         0         0         0         0
         0         0         0         0         0         0         0         0
         0         0         0         0         0         0         0         0
         0         0         0         0         0         0         0         0
         0         0         0         0         0         0         0         0
         0         0         0         0         0         0         0         0
         0         0         0         0         0         0         0         0
         0         0         0         0         0         0         0         0
         0         0         0         0         0         0         0         0
         0         0         0         0         0         0         0         0
         0         0         0         0         0         0         0         0
         0         0         0         0         0         0         0         0
         0         0         0         0         0         0         0         0
         0         0         0         0         0         0         0         0
         0         0         0         0         0         0         0         0
         0         0         0         0         0         0         0         0
         0         0         0         0         0         0         0         0
         0         0         0         0         0         0         0         0
         0         0         0         0         0         0         0         0
         0         0         0         0         0         0         0         0
         0         0         0         0         0         0         0         0
         0         0         0         0         0         0         0         0
         0         0         0         0         0         0         0         0
         0         0         0         0         0         0         0         0
         0         0         0         0         0         0         0         0
         0         0         0         0         0         0         0         0
         0         0         0         0         0         0         0         0
         0         0         0         0         0         0         0         0
         0         0         0         0         0         0         0         0
         0         0         0         0         0         0         0         0
         0         0         0         0         0         0         0         0
         0         0         0         0         0         0         0         0
         0         0         0         0         0         0         0         0
         0         0         0         0         0         0         0         0
         0         0         0         0         0         0         0         0
         0         0         0         0         0         0         0         0
         0         0         0         0         0         0         0         0
         0         0         0         0         0         0         0         0
         0         0         0         0         0         0         0         0
         0         0         0         0         0         0         0         0
         0         0         0         0         0         0         0         0
         0         0         0         0         0         0         0         0
         0         0         0         0         0         0         0         0
         0         0         0         0         0         0         0         0
         0         0         0         0         0         0         0         0
         0         0         0         0         0         0         0         0
         0         0         0         0         0         0         0         0
         0         0         0         0         0         0         0         0
         0         0         0         0         0         0         0         0
         0         0         0         0         0         0         0         0
         0         0         0         0         0         0         0         0
         0         0         0         0         0         0         0         0
         0         0         0         0         0         0         0         0
         0         0         0         0         0         0         0         0
         0         0         0         0         0         0         0         0
         0         0         0         0         0         0         0         0
         0         0         0         0         0         0         0         0
         0         0         0         0         0         0         0         0
         0         0         0         0         0         0         0         0
         0         0         0         0         0         0         0         0
         0         0         0         0         0         0         0         0
         0         0         0         0         0         0         0         0
         0         0         0         0         0         0         0         0
         0         0         0         0         0         0         0         0
         0         0         0         0         0         0         0         0
         0         0         0         0         0         0         0         0
         0         0         0         0         0         0         0         0
         0         0         0         0         0         0         0         0
         0         0         0         0         0         0         0         0
         0         0         0         0         0         0         0         0
         0         0         0         0         0         0         0         0
         0         0         0         0         0         0         0         0
         0         0         0         0         0         0         0         0
         0         0         0         0         0         0         0         0
         0         0         0         0         0         0         0         0
         0         0         0         0         0         0         0         0
         0         0         0         0         0         0         0         0
         0         0         0         0         0         0         0         0
         0         0         0         0         0         0         0         0
         0         0         0         0         0         0         0         0
         0         0         0         0         0         0         0         0
         0         0         0         0         0         0         0         0
         0         0         0         0         0         0         0         0
         0         0         0         0         0         0         0         0
         0         0         0         0         0         0         0         0
         0         0         0         0         0         0         0         0
         0         0         0         0         0         0         0         0
         0         0         0         0         0         0         0         0
         0         0         0         0         0         0         0         0
         0         0         0         0         0         0         0         0
         0         0         0         0         0         0         0         0
         0         0         0         0         0         0         0         0
         0         0         0         0         0         0         0         0
         0         0         0         0         0         0         0         0
         0         0         0         0         0         0         0         0
         0         0         0         0         0         0         0         0
         0         0         0         0         0         0         0         0
         0         0         0         0         0         0         0         0
         0         0         0         0         0         0         0         0
         0         0         0         0         0         0         0         0
         0         0         0         0         0         0         0         0
         0         0         0         0         0         0         0         0
         0         0         0         0         0         0         0         0
         0         0         0         0         0         0         0         0
         0         0         0         0         0         0         0         0
         0         0         0         0         0         0         0         0
         0         0         0         0         0         0         0         0
         0         0         0         0         0         0         0         0
         0         0         0         0         0         0         0         0
         0         0         0         0         0         0         0         0
         0         0         0         0         0         0         0         0
         0         0         0         0         0         0         0         0
         0         0         0         0         0         0         0         0
         0         0         0         0         0         0         0         0
         0         0         0         0         0         0         0         0
         0         0         0         0         0         0         0         0
         0         0         0         0         0         0         0         0
         0         0         0         0         0         0         0         0
         0         0         0         0         0         0         0         0
         0         0         0         0         0         0         0         0
         0         0         0         0         0         0         0         0
         0         0         0         0         0         0         0         0
         0         0         0         0         0         0         0         0
         0         0         0         0         0         0         0         0
         0         0         0         0         0         0         0         0
         0         0         0         0         0         0         0         0
         0         0         0         0         0         0         0         0
         0         0         0         0         0         0         0         0
         0         0         0         0         0         0         0         0
         0         0         0         0         0         0         0         0
         0         0         0         0         0         0         0         0
         0         0         0         0         0         0         0         0
         0         0         0         0         0         0         0         0
         0         0         0         0         0         0         0         0
         0         0         0         0         0         0         0         0
         0         0         0         0         0         0         0         0
         0         0         0         0         0         0         0         0
         0         0         0         0         0         0         0         0
         0         0         0         0         0         0         0         0
         0         0         0         0         0         0         0         0
         0         0         0         0         0         0         0         0
         0         0         0         0         0         0         0         0
         0         0         0         0         0         0         0         0
         0         0         0         0         0         0         0         0
         0         0         0         0         0         0         0         0
         0         0         0         0         0         0         0         0
         0         0         0         0         0         0         0         0
         0         0         0         0         0         0         0         0
         0         0         0         0         0         0         0         0
         0         0         0         0         0         0         0         0
         0         0         0         0         0         0         0         0
         0         0         0         0         0         0         0         0
         0         0         0         0         0         0         0         0
         0         0         0         0         0         0         0         0
         0         0         0         0         0         0         0         0
         0         0         0         0         0         0         0         0
         0         0         0         0         0         0         0         0
         0         0         0         0         0         0         0         0
         0         0         0         0         0         0         0         0
         0         0         0         0         0         0         0         0
         0         0         0         0         0         0         0         0
         0         0         0         0         0         0         0         0
         0         0         0         0         0         0         0         0
         0         0         0         0         0         0         0         0
         0         0         0         0         0         0         0         0
         0         0         0         0         0         0         0         0
         0         0         0         0         0         0         0         0
         0         0         0         0         0         0         0         0
         0         0         0         0         0         0         0         0
         0         0         0         0         0         0         0         0
         0         0         0         0         0         0         0         0
         0         0         0         0         0         0         0         0
         0         0         0         0         0         0         0         0
         0         0         0         0         0         0         0         0
         0         0         0         0         0         0         0         0
         0         0         0         0         0         0         0         0
         0         0         0         0         0         0         0         0
         0         0         0         0         0         0         0         0
         0         0         0         0         0         0         0         0
         0         0         0         0         0         0         0         0
         0         0         0         0         0         0         0         0
         0         0         0         0         0         0         0         0
         0         0         0         0         0         0         0         0
         0         0         0         0         0         0         0         0
         0         0         0         0         0         0         0         0
         0         0         0         0         0         0         0         0
         0         0         0         0         0         0         0         0
         0         0         0         0         0         0         0         0
         0         0         0         0         0         0         0         0
         0         0         0         0         0         0         0         0
         0         0         0         0         0         0         0         0
         0         0         0         0         0         0         0         0
         0         0         0         0         0         0         0         0
         0         0         0         0         0         0         0         0
         0         0         0         0         0         0         0         0
         0         0         0         0         0         0         0         0
         0         0         0         0         0         0         0         0
         0         0         0         0         0         0         0         0
         0         0         0         0         0         0         0         0
         0         0         0         0         0         0         0         0
         0         0         0         0         0         0         0         0
         0         0         0         0         0         0         0         0
         0         0         0         0         0         0         0         0
         0         0         0         0         0         0         0         0
         0         0         0         0         0         0         0         0
         0         0         0         0         0         0         0         0
         0         0         0         0         0         0         0         0
         0         0         0         0         0         0         0         0
         0         0         0         0         0         0         0         0
         0         0         0         0         0         0         0         0
         0         0         0         0         0         0         0         0
         0         0         0         0         0         0         0         0
         0         0         0         0         0         0         0         0
         0         0         0         0         0         0         0         0
         0         0         0         0         0         0         0         0
         0         0         0         0         0         0         0         0
         0         0         0         0         0         0         0         0
         0         0         0         0         0         0         0         0
         0         0         0         0         0         0         0         0
         0         0         0         0         0         0         0         0
         0         0         0         0         0         0         0         0
         0         0         0         0         0         0         0         0
         0         0         0         0         0         0         0         0
         0         0         0         0         0         0         0         0
         0         0         0         0         0         0         0         0
         0         0         0         0         0         0         0         0
         0         0         0         0         0         0         0         0
         0         0         0         0         0         0         0         0
         0         0         0         0         0         0         0         0
         0         0         0         0         0         0         0         0
         0         0         0         0         0         0         0         0
         0         0         0         0         0         0         0         0
         0         0         0         0         0         0         0         0
         0         0         0         0         0         0         0         0
         0         0         0         0         0         0         0         0
         0         0         0         0         0         0         0         0
         0         0         0         0         0         0         0         0
         0         0         0         0         0         0         0         0
         0         0         0         0         0         0         0         0
         0         0         0         0         0         0         0         0
         0         0         0         0         0         0         0         0
         0         0         0         0         0         0         0         0
         0         0         0         0         0         0         0         0
         0         0         0         0         0         0         0         0
         0         0         0         0         0         0         0         0
         0         0         0         0         0         0         0         0
         0         0         0         0         0         0         0         0
         0         0         0         0         0         0         0         0
         0         0         0         0         0         0         0         0
         0         0         0         0         0         0         0         0
         0         0         0         0         0         0         0         0
         0         0         0         0         0         0         0         0
         0         0         0         0         0         0         0         0
         0         0         0         0         0         0         0         0
         0         0         0         0         0         0         0         0
         0         0         0         0         0         0         0         0
         0         0         0         0         0         0         0         0
         0         0         0         0         0         0         0         0
         0         0         0         0         0         0         0         0
         0         0         0         0         0         0         0         0
         0         0         0         0         0         0         0         0
         0         0         0         0         0         0         0         0
         0         0         0         0         0         0         0         0
         0         0         0         0         0         0         0         0
         0         0         0         0         0         0         0         0
         0         0         0         0         0         0         0         0
         0         0         0         0         0         0         0         0
         0         0         0         0         0         0         0         0
         0         0         0         0         0         0         0         0
         0         0         0         0         0         0         0         0
         0         0         0         0         0         0         0         0
         0         0         0         0         0         0         0         0
         0         0         0         0         0         0         0         0
         0         0         0         0         0         0         0         0
         0         0         0         0         0         0         0         0
         0         0         0         0         0         0         0         0
         0         0         0         0         0         0         0         0
         0         0         0         0         0         0         0         0
         0         0         0         0         0         0         0         0
         0         0         0         0         0         0         0         0
         0         0         0         0         0         0         0         0
         0         0         0         0         0         0         0         0
         0         0         0         0         0         0         0         0
         0         0         0         0         0         0         0         0
         0         0         0         0         0         0         0         0
         0         0         0         0         0         0         0         0
         0         0         0         0         0         0         0         0
         0         0         0         0         0         0         0         0
         0         0         0         0         0         0         0         0
         0         0         0         0         0         0         0         0
         0         0         0         0         0         0         0         0
         0         0         0         0         0         0         0         0
         0         0         0         0         0         0         0         0
         0         0         0         0         0         0         0         0
         0         0         0         0         0         0         0         0
         0         0         0         0         0         0         0         0
         0         0         0         0         0         0         0         0
         0         0         0         0         0         0         0         0
         0         0         0         0         0         0         0         0
         0         0         0         0         0         0         0         0
         0         0         0         0         0         0         0         0
         0         0         0         0         0         0         0         0
         0         0         0         0         0         0         0         0
         0         0         0         0         0         0         0         0
         0         0         0         0         0         0         0         0
         0         0         0         0         0         0         0         0
         0         0         0         0         0         0         0         0
         0         0         0         0         0         0         0         0
         0         0         0         0         0         0         0         0
         0         0         0         0         0         0         0         0
         0         0         0         0         0         0         0         0
         0         0         0         0         0         0         0         0
         0         0         0         0         0         0         0         0
         0         0         0         0         0         0         0         0
         0         0         0         0         0         0         0         0
         0         0         0         0         0         0         0         0
         0         0         0         0         0         0         0         0
         0         0         0         0         0         0         0         0
         0         0         0         0         0         0         0         0
         0         0         0         0         0         0         0         0
         0         0         0         0         0         0         0         0
         0         0         0         0         0         0         0         0
         0         0         0         0         0         0         0         0
         0         0         0         0         0         0         0         0
         0         0         0         0         0         0         0         0
         0         0         0         0         0         0         0         0
         0         0         0         0         0         0         0         0
         0         0         0         0         0         0         0         0
         0         0         0         0         0         0         0         0
         0         0         0         0         0         0         0         0
         0         0         0         0         0         0         0         0
         0         0         0         0         0         0         0         0
         0         0         0         0         0         0         0         0
         0         0         0         0         0         0         0         0
         0         0         0         0         0         0         0         0
         0         0         0         0         0         0         0         0
         0         0         0         0         0         0         0         0
         0         0         0         0         0         0         0         0
         0         0         0         0         0         0         0         0
         0         0         0         0         0         0         0         0
         0         0         0         0         0         0         0         0
         0         0         0         0         0         0         0         0
         0         0         0         0         0         0         0         0
         0         0         0         0         0         0         0         0
         0         0         0         0         0         0         0         0
         0         0         0         0         0         0         0         0
         0         0         0         0         0         0         0         0
         0         0         0         0         0         0         0         0
         0         0         0         0         0         0         0         0
         0         0         0         0         0         0         0         0
         0         0         0         0         0         0         0         0
         0         0         0         0         0         0         0         0
         0         0         0         0         0         0         0         0
         0         0         0         0         0         0         0         0
         0         0         0         0         0         0         0         0
         0         0         0         0         0         0         0         0
         0         0         0         0         0         0         0         0
         0         0         0         0         0         0         0         0
         0         0         0         0         0         0         0         0
         0         0         0         0         0         0         0         0
         0         0         0         0         0         0         0         0
         0         0         0         0         0         0         0         0
         0         0         0         0         0         0         0         0
         0         0         0         0         0         0         0         0
         0         0         0         0         0         0         0         0
         0         0         0         0         0         0         0         0
         0         0         0         0         0         0         0         0
         0         0         0         0         0         0         0         0
         0         0         0         0         0         0         0         0
         0         0         0         0         0         0         0         0
         0         0         0         0         0         0         0         0
         0         0         0         0         0         0         0         0
         0         0         0         0         0         0         0         0
         0         0         0         0         0         0         0         0
         0         0         0         0         0         0         0         0
         0         0         0         0         0         0         0         0
         0         0         0         0         0         0         0         0
         0         0         0         0         0         0         0         0
         0         0         0         0         0         0         0         0
         0         0         0         0         0         0         0         0
         0         0         0         0         0         0         0         0
         0         0         0         0         0         0         0         0
         0         0         0         0         0         0         0         0
         0         0         0         0         0         0         0         0
         0         0         0         0         0         0         0         0
         0         0         0         0         0         0         0         0
         0         0         0         0         0         0         0         0
         0         0         0         0         0         0         0         0
         0         0         0         0         0         0         0         0
         0         0         0         0         0         0         0         0
         0         0         0         0         0         0         0         0
         0         0         0         0         0         0         0         0
         0         0         0         0         0         0         0         0
         0         0         0         0         0         0         0         0
         0         0         0         0         0         0         0         0
         0         0         0         0         0         0         0         0
         0         0         0         0         0         0         0         0
         0         0         0         0         0         0         0         0
         0         0         0         0         0         0         0         0
         0         0         0         0         0         0         0         0
         0         0         0         0         0         0         0         0
         0         0         0         0         0         0         0         0
         0         0         0         0         0         0         0         0
         0         0         0         0         0         0         0         0
         0         0         0         0         0         0         0         0
         0         0         0         0         0         0         0         0
         0         0         0         0         0         0         0         0
         0         0         0         0         0         0         0         0
         0         0         0         0         0         0         0         0
         0         0         0         0         0         0         0         0
         0         0         0         0         0         0         0         0
         0         0         0         0         0         0         0         0
         0         0         0         0         0         0         0         0
         0         0         0         0         0         0         0         0
         0         0         0         0         0         0         0         0
         0         0         0         0         0         0         0         0
         0         0         0         0         0         0         0         0
         0         0         0         0         0         0         0         0
         0         0         0         0         0         0         0         0
         0         0         0         0         0         0         0         0
         0         0         0         0         0         0         0         0
         0         0         0         0         0         0         0         0
         0         0         0         0         0         0         0         0
         0         0         0         0         0         0         0         0
         0         0         0         0         0         0         0         0
         0         0         0         0         0         0         0         0
         0         0         0         0         0         0         0         0
         0         0         0         0         0         0         0         0
         0         0         0         0         0         0         0         0
         0         0         0         0         0         0         0         0
         0         0         0         0         0         0         0         0
         0         0         0         0         0         0         0         0
         0         0         0         0         0         0         0         0
         0         0         0         0         0         0         0         0
         0         0         0         0         0         0         0         0
         0         0         0         0         0         0         0         0
         0         0         0         0         0         0         0         0
         0         0         0         0         0         0         0         0
         0         0         0         0         0         0         0         0
         0         0         0         0         0         0         0         0
         0         0         0         0         0         0         0         0
         0         0         0         0         0         0         0         0
         0         0         0         0         0         0         0         0
         0         0         0         0         0         0         0         0
         0         0         0         0         0         0         0         0
         0         0         0         0         0         0         0         0
         0         0         0         0         0         0         0         0
         0         0         0         0         0         0         0         0
         0         0         0         0         0         0         0         0
         0         0         0         0         0         0         0         0
         0         0         0         0         0         0         0         0
         0         0         0         0         0         0         0         0
         0         0         0         0         0         0         0         0
         0         0         0         0         0         0         0         0
         0         0         0         0         0         0         0         0
         0         0         0         0         0         0         0         0
         0         0         0         0         0         0         0         0
         0         0         0         0         0         0         0         0
         0         0         0         0         0         0         0         0
         0         0         0         0         0         0         0         0
         0         0         0         0         0         0         0         0
         0         0         0         0         0         0         0         0
         0         0         0         0         0         0         0         0
         0         0         0         0         0         0         0         0
         0         0         0         0         0         0         0         0
         0         0         0         0         0         0         0         0
         0         0         0         0         0         0         0         0
         0         0         0         0         0         0         0         0
         0         0         0         0         0         0         0         0
         0         0         0         0         0         0         0         0
         0         0         0         0         0         0         0         0
         0         0         0         0         0         0         0         0
         0         0         0         0         0         0         0         0
         0         0         0         0         0         0         0         0
         0         0         0         0         0         0         0         0
         0         0         0         0         0         0         0         0
         0         0         0         0         0         0         0         0
         0         0         0         0         0         0         0         0
         0         0         0         0         0         0         0         0
         0         0         0         0         0         0         0         0
         0         0         0         0         0         0         0         0
         0         0         0         0         0         0         0         0
         0         0         0         0         0         0         0         0
         0         0         0         0         0         0         0         0
         0         0         0         0         0         0         0         0
         0         0         0         0         0         0         0         0
         0         0         0         0         0         0         0         0
         0         0         0         0         0         0         0         0
         0         0         0         0         0         0         0         0
         0         0         0         0         0         0         0         0
         0         0         0         0         0         0         0         0
         0         0         0         0         0         0         0         0
         0         0         0         0         0         0         0         0
         0         0         0         0         0         0         0         0
         0         0         0         0         0         0         0         0
         0         0         0         0         0         0         0         0
         0         0         0         0         0         0         0         0
         0         0         0         0         0         0         0         0
         0         0         0         0         0         0         0         0
         0         0         0         0         0         0         0         0
         0         0         0         0         0         0         0         0
         0         0         0         0         0         0         0         0
         0         0         0         0         0         0         0         0
         0         0         0         0         0         0         0         0
         0         0         0         0         0         0         0         0
         0         0         0         0         0         0         0         0
         0         0         0         0         0         0         0         0
         0         0         0         0         0         0         0         0
         0         0         0         0         0         0         0         0
         0         0         0         0         0         0         0         0
         0         0         0         0         0         0         0         0
         0         0         0         0         0         0         0         0
         0         0         0         0         0         0         0         0
         0         0         0         0         0         0         0         0
         0         0         0         0         0         0         0         0
         0         0         0         0         0         0         0         0
         0         0         0         0         0         0         0         0
         0         0         0         0         0         0         0         0
         0         0         0         0         0         0         0         0
         0         0         0         0         0         0         0         0
         0         0         0         0         0         0         0         0
         0         0         0         0         0         0         0         0
         0         0         0         0         0         0         0         0
         0         0         0         0         0         0         0         0
         0         0         0         0         0         0         0         0
         0         0         0         0         0         0         0         0
         0         0         0         0         0         0         0         0
         0         0         0         0         0         0         0         0
         0         0         0         0         0         0         0         0
         0         0         0         0         0         0         0         0
         0         0         0         0         0         0         0         0
         0         0         0         0         0         0         0         0
         0         0         0         0         0         0         0         0
         0         0         0         0         0         0         0         0
         0         0         0         0         0         0         0         0
         0         0         0         0         0         0         0         0
         0         0         0         0         0         0         0         0
         0         0         0         0         0         0         0         0
         0         0         0         0         0         0         0         0
         0         0         0         0         0         0         0         0
         0         0         0         0         0         0         0         0
         0         0         0         0         0         0         0         0
         0         0         0         0         0         0         0         0
         0         0         0         0         0         0         0         0
         0         0         0         0         0         0         0         0
         0         0         0         0         0         0         0         0
         0         0         0         0         0         0         0         0
         0         0         0         0         0         0         0         0
         0         0         0         0         0         0         0         0
         0         0         0         0         0         0         0         0
         0         0         0         0         0         0         0         0
         0         0         0         0         0         0         0         0
         0         0         0         0         0         0         0         0
         0         0         0         0         0         0         0         0
         0         0         0         0         0         0         0         0
         0         0         0         0         0         0         0         0
         0         0         0         0         0         0         0         0
         0         0         0         0         0         0         0         0
         0         0         0         0         0         0         0         0
         0         0         0         0         0         0         0         0
         0         0         0         0         0         0         0         0
         0         0         0         0         0         0         0         0
         0         0         0         0         0         0         0         0
         0         0         0         0         0         0         0         0
         0         0         0         0         0         0         0         0
         0         0         0         0         0         0         0         0
         0         0         0         0         0         0         0         0
         0         0         0         0         0         0         0         0
         0         0         0         0         0         0         0         0
         0         0         0         0         0         0         0         0
         0         0         0         0         0         0         0         0
         0         0         0         0         0         0         0         0
         0         0         0         0         0         0         0         0
         0         0         0         0         0         0         0         0
         0         0         0         0         0         0         0         0
         0         0         0         0         0         0         0         0
         0         0         0         0         0         0         0         0
         0         0         0         0         0         0         0         0
         0         0         0         0         0         0         0         0
         0         0         0         0         0         0         0         0
         0         0         0         0         0         0         0         0
         0         0         0         0         0         0         0         0
         0         0         0         0         0         0         0         0
         0         0         0         0         0         0         0         0
         0         0         0         0         0         0         0         0
         0         0         0         0         0         0         0         0
         0         0         0         0         0         0         0         0
         0         0         0         0         0         0         0         0
         0         0         0         0         0         0         0         0
         0         0         0         0         0         0         0         0
         0         0         0         0         0         0         0         0
         0         0         0         0         0         0         0         0
         0         0         0         0         0         0         0         0
         0         0         0         0         0         0         0         0
         0         0         0         0         0         0         0         0
         0         0         0         0         0         0         0         0
         0         0         0         0         0         0         0         0
         0         0         0         0         0         0         0         0
         0         0         0         0         0         0         0         0
         0         0         0         0         0         0         0         0
         0         0         0         0         0         0         0         0
         0         0         0         0         0         0         0         0
         0         0         0         0         0         0         0         0
         0         0         0         0         0         0         0         0
         0         0         0         0         0         0         0         0
         0         0         0         0         0         0         0         0
         0         0         0         0         0         0         0         0
         0         0         0         0         0         0         0         0
         0         0         0         0         0         0         0         0
         0         0         0         0         0         0         0         0
         0         0         0         0         0         0         0         0
         0         0         0         0         0         0         0         0
         0         0         0         0         0         0         0         0
         0         0         0         0         0         0         0         0
         0         0         0         0         0         0         0         0
         0         0         0         0         0         0         0         0
         0         0         0         0         0         0         0         0
         0         0         0         0         0         0         0         0
         0         0         0         0         0         0         0         0
         0         0         0         0         0         0         0         0
         0         0         0         0         0         0         0         0
         0         0         0         0         0         0         0         0
         0         0         0         0         0         0         0         0
         0         0         0         0         0         0         0         0
         0         0         0         0         0         0         0         0
         0         0         0         0         0         0         0         0
         0         0         0         0         0         0         0         0
         0         0         0         0         0         0         0         0
         0         0         0         0         0         0         0         0
         0         0         0         0         0         0         0         0
         0         0         0         0         0         0         0         0
         0         0         0         0         0         0         0         0
         0         0         0         0         0         0         0         0
         0         0         0         0         0         0         0         0
         0         0         0         0         0         0         0         0
         0         0         0         0         0         0         0         0
         0         0         0         0         0         0         0         0
         0         0         0         0         0         0         0         0
         0         0         0         0         0         0         0         0
         0         0         0         0         0         0         0         0
         0         0         0         0         0         0         0         0
         0         0         0         0         0         0         0         0
         0         0         0         0         0         0         0         0
         0         0         0         0         0         0         0         0
         0         0         0         0         0         0         0         0
         0         0         0         0         0         0         0         0
         0         0         0         0         0         0         0         0
         0         0         0         0         0         0         0         0
         0         0         0         0         0         0         0         0
         0         0         0         0         0         0         0         0
         0         0         0         0         0         0         0         0
         0         0         0         0         0         0         0         0
         0         0         0         0         0         0         0         0
         0         0         0         0         0         0         0         0
         0         0         0         0         0         0         0         0
         0         0         0         0         0         0         0         0
         0         0         0         0         0         0         0         0
         0         0         0         0         0         0         0         0
         0         0         0         0         0         0         0         0
         0         0         0         0         0         0         0         0
         0         0         0         0         0         0         0         0
         0         0         0         0         0         0         0         0
         0         0         0         0         0         0         0         0
         0         0         0         0         0         0         0         0
         0         0         0         0         0         0         0         0
         0         0         0         0         0         0         0         0
         0         0         0         0         0         0         0         0
         0         0         0         0         0         0         0         0
         0         0         0         0         0         0         0         0
         0         0         0         0         0         0         0         0
         0         0         0         0         0         0         0         0
         0         0         0         0         0         0         0         0
         0         0         0         0         0         0         0         0
         0         0         0         0         0         0         0         0
         0         0         0         0         0         0         0         0
         0         0         0         0         0         0         0         0
         0         0         0         0         0         0         0         0
         0         0         0         0         0         0         0         0
         0         0         0         0         0         0         0         0
         0         0         0         0         0         0         0         0
         0         0         0         0         0         0         0         0
         0         0         0         0         0         0         0         0
         0         0         0         0         0         0         0         0
         0         0         0         0         0         0         0         0
         0         0         0         0         0         0         0         0
         0         0         0         0         0         0         0         0
         0         0         0         0         0         0         0         0
         0         0         0         0         0         0         0         0
         0         0         0         0         0         0         0         0
         0         0         0         0         0         0         0         0
         0         0         0         0         0         0         0         0
         0         0         0         0         0         0         0         0
         0         0         0         0         0         0         0         0
         0         0         0         0         0         0         0         0
         0         0         0         0         0         0         0         0
         0         0         0         0         0         0         0         0
         0         0         0         0         0         0         0         0
         0         0         0         0         0         0         0         0
         0         0         0         0         0         0         0         0
         0         0         0         0         0         0         0         0
         0         0         0         0         0         0         0         0
         0         0         0         0         0         0         0         0
         0         0         0         0         0         0         0         0
         0         0         0         0         0         0         0         0
         0         0         0         0         0         0         0         0
         0         0         0         0         0         0         0         0
         0         0         0         0         0         0         0         0
         0         0         0         0         0         0         0         0
         0         0         0         0         0         0         0         0
         0         0         0         0         0         0         0         0
         0         0         0         0         0         0         0         0
         0         0         0         0         0         0         0         0
         0         0         0         0         0         0         0         0
         0         0         0         0         0         0         0         0
         0         0         0         0         0         0         0         0
         0         0         0         0         0         0         0         0
         0         0         0         0         0         0         0         0
         0         0         0         0         0         0         0         0
         0         0         0         0         0         0         0         0
         0         0         0         0         0         0         0         0
         0         0         0         0         0         0         0         0
         0         0         0         0         0         0         0         0
         0         0         0         0         0         0         0         0
         0         0         0         0         0         0         0         0
         0         0         0         0         0         0         0         0
         0         0         0         0         0         0         0         0
         0         0         0         0         0         0         0         0
         0         0         0         0         0         0         0         0
         0         0         0         0         0         0         0         0
         0         0         0         0         0         0         0         0
         0         0         0         0         0         0         0         0
         0         0         0         0         0         0         0         0
         0         0         0         0         0         0         0         0
         0         0         0         0         0         0         0         0
         0         0         0         0         0         0         0         0
         0         0         0         0         0         0         0         0
         0         0         0         0         0         0         0         0
         0         0         0         0         0         0         0         0
         0         0         0         0         0         0         0         0
         0         0         0         0         0         0         0         0
         0         0         0         0         0         0         0         0
         0         0         0         0         0         0         0         0
         0         0         0         0         0         0         0         0
         0         0         0         0         0         0         0         0
         0         0         0         0         0         0         0         0
         0         0         0         0         0         0         0         0
         0         0         0         0         0         0         0         0
         0         0         0         0         0         0         0         0
         0         0         0         0         0         0         0         0
         0         0         0         0         0         0         0         0
         0         0         0         0         0         0         0         0
         0         0         0         0         0         0         0         0
         0         0         0         0         0         0         0         0
         0         0         0         0         0         0         0         0
         0         0         0         0         0         0         0         0
         0         0         0         0         0         0         0         0
         0         0         0         0         0         0         0         0
         0         0         0         0         0         0         0         0
         0         0         0         0         0         0         0         0
         0         0         0         0         0         0         0         0
         0         0         0         0         0         0         0         0
         0         0         0         0         0         0         0         0
         0         0         0         0         0         0         0         0
         0         0         0         0         0         0         0         0
         0         0         0         0         0         0         0         0
         0         0         0         0         0         0         0         0
         0         0         0         0         0         0         0         0
         0         0         0         0         0         0         0         0
         0         0         0         0         0         0         0         0
         0         0         0         0         0         0         0         0
         0         0         0         0         0         0         0         0
         0         0         0         0         0         0         0         0
         0         0         0         0         0         0         0         0
         0         0         0         0         0         0         0         0
         0         0         0         0         0         0         0         0
         0         0         0         0         0         0         0         0
         0         0         0         0         0         0         0         0
         0         0         0         0         0         0         0         0
         0         0         0         0         0         0         0         0
         0         0         0         0         0         0         0         0
         0         0         0         0         0         0         0         0
         0         0         0         0         0         0         0         0
         0         0         0         0         0         0         0         0
         0         0         0         0         0         0         0         0
         0         0         0         0         0         0         0         0
         0         0         0         0         0         0         0         0
         0         0         0         0         0         0         0         0
         0         0         0         0         0         0         0         0
         0         0         0         0         0         0         0         0
         0         0         0         0         0         0         0         0
         0         0         0         0         0         0         0         0
         0         0         0         0         0         0         0         0
         0         0         0         0         0         0         0         0
         0         0         0         0         0         0         0         0
         0         0         0         0         0         0         0         0
         0         0         0         0         0         0         0         0
         0         0         0         0         0         0         0         0
         0         0         0         0         0         0         0         0
         0         0         0         0         0         0         0         0
         0         0         0         0         0         0         0         0
         0         0         0         0         0         0         0         0
         0         0         0         0         0         0         0         0
         0         0         0         0         0         0         0         0
         0         0         0         0         0         0         0         0
         0         0         0         0         0         0         0         0
         0         0         0         0         0         0         0         0
         0         0         0         0         0         0         0         0
         0         0         0         0         0         0         0         0
         0         0         0         0         0         0         0         0
         0         0         0         0         0         0         0         0
         0         0         0         0         0         0         0         0
         0         0         0         0         0         0         0         0
         0         0         0         0         0         0         0         0
         0         0         0         0         0         0         0         0
         0         0         0         0         0         0         0         0
         0         0         0         0         0         0         0         0
         0         0         0         0         0         0         0         0
         0         0         0         0         0         0         0         0
         0         0         0         0         0         0         0         0
         0         0         0         0         0         0         0         0
         0         0         0         0         0         0         0         0
         0         0         0         0         0         0         0         0
         0         0         0         0         0         0         0         0
         0         0         0         0         0         0         0         0
         0         0         0         0         0         0         0         0
         0         0         0         0         0         0         0         0
         0         0         0         0         0         0         0         0
         0         0         0         0         0         0         0         0
         0         0         0         0         0         0         0         0
         0         0         0         0         0         0         0         0
         0         0         0         0         0         0         0         0
         0         0         0         0         0         0         0         0
         0         0         0         0         0         0         0         0
         0         0         0         0         0         0         0         0
         0         0         0         0         0         0         0         0
         0         0         0         0         0         0         0         0
         0         0         0         0         0         0         0         0
         0         0         0         0         0         0         0         0
         0         0         0         0         0         0         0         0
         0         0         0         0         0         0         0         0
         0         0         0         0         0         0         0         0
         0         0         0         0         0         0         0         0
         0         0         0         0         0         0         0         0
         0         0         0         0         0         0         0         0
         0         0         0         0         0         0         0         0
         0         0         0         0         0         0         0         0
         0         0         0         0         0         0         0         0
         0         0         0         0         0         0         0         0
         0         0         0         0         0         0         0         0
         0         0         0         0         0         0         0         0
         0         0         0         0         0         0         0         0
         0         0         0         0         0         0         0         0
         0         0         0         0         0         0         0         0
         0         0         0         0         0         0         0         0
         0         0         0         0         0         0         0         0
         0         0         0         0         0         0         0         0
         0         0         0         0         0         0         0         0
         0         0         0         0         0         0         0         0
         0         0         0         0         0         0         0         0
         0         0         0         0         0         0         0         0
         0         0         0         0         0         0         0         0
         0         0         0         0         0         0         0         0
         0         0         0         0         0         0         0         0
         0         0         0         0         0         0         0         0
         0         0         0         0         0         0         0         0
         0         0         0         0         0         0         0         0
         0         0         0         0         0         0         0         0
         0         0         0         0         0         0         0         0
         0         0         0         0         0         0         0         0
         0         0         0         0         0         0         0         0
         0         0         0         0         0         0         0         0
         0         0         0         0         0         0         0         0
         0         0         0         0         0         0         0         0
         0         0         0         0         0         0         0         0
         0         0         0         0         0         0         0         0
         0         0         0         0         0         0         0         0
         0         0         0         0         0         0         0         0
         0         0         0         0         0         0         0         0
         0         0         0         0         0         0         0         0
         0         0         0         0         0         0         0         0
         0         0         0         0         0         0         0         0
         0         0         0         0         0         0         0         0
         0         0         0         0         0         0         0         0
         0         0         0         0         0         0         0         0
         0         0         0         0         0         0         0         0
         0         0         0         0         0         0         0         0
         0         0         0         0         0         0         0         0
         0         0         0         0         0         0         0         0
         0         0         0         0         0         0         0         0
         0         0         0         0         0         0         0         0
         0         0         0         0         0         0         0         0
         0         0         0         0         0         0         0         0
         0         0         0         0         0         0         0         0
         0         0         0         0         0         0         0         0
         0         0         0         0         0         0         0         0
         0         0         0         0         0         0         0         0
         0         0         0         0         0         0         0         0
         0         0         0         0         0         0         0         0
         0         0         0         0         0         0         0         0
         0         0         0         0         0         0         0         0
         0         0         0         0         0         0         0         0
         0         0         0         0         0         0         0         0
         0         0         0         0         0         0         0         0
         0         0         0         0         0         0         0         0
         0         0         0         0         0         0         0         0
         0         0         0         0         0         0         0         0
         0         0         0         0         0         0         0         0
         0         0         0         0         0         0         0         0
         0         0         0         0         0         0         0         0
         0         0         0         0         0         0         0         0
         0         0         0         0         0         0         0         0
         0         0         0         0         0         0         0         0
         0         0         0         0         0         0         0         0
         0         0         0         0         0         0         0         0
         0         0         0         0         0         0         0         0
         0         0         0         0         0         0         0         0
         0         0         0         0         0         0         0         0
         0         0         0         0         0         0         0         0
         0         0         0         0         0         0         0         0
         0         0         0         0         0         0         0         0
         0         0         0         0         0         0         0         0
         0         0         0         0         0         0         0         0
         0         0         0         0         0         0         0         0
         0         0         0         0         0         0         0         0
         0         0         0         0         0         0         0         0
         0         0         0         0         0         0         0         0
         0         0         0         0         0         0         0         0
         0         0         0         0         0         0         0         0
         0         0         0         0         0         0         0         0
         0         0         0         0         0         0         0         0
         0         0         0         0         0         0         0         0
         0         0         0         0         0         0         0         0
         0         0         0         0         0         0         0         0
         0         0         0         0         0         0         0         0
         0         0         0         0         0         0         0         0
         0         0         0         0         0         0         0         0
         0         0         0         0         0         0         0         0
         0         0         0         0         0         0         0         0
         0         0         0         0         0         0         0         0
         0         0         0         0         0         0         0         0
         0         0         0         0         0         0         0         0
         0         0         0         0         0         0         0         0
         0         0         0         0         0         0         0         0
         0         0         0         0         0         0         0         0
         0         0         0         0         0         0         0         0
         0         0         0         0         0         0         0         0
         0         0         0         0         0         0         0         0
         0         0         0         0         0         0         0         0
         0         0         0         0         0         0         0         0
         0         0         0         0         0         0         0         0
         0         0         0         0         0         0         0         0
         0         0         0         0         0         0         0         0
         0         0         0         0         0         0         0         0
         0         0         0         0         0         0         0         0
         0         0         0         0         0         0         0         0
         0         0         0         0         0         0         0         0
         0         0         0         0         0         0         0         0
         0         0         0         0         0         0         0         0
         0         0         0         0         0         0         0         0
         0         0         0         0         0         0         0         0
         0         0         0         0         0         0         0         0
         0         0         0         0         0         0         0         0
         0         0         0         0         0         0         0         0
         0         0         0         0         0         0         0         0
         0         0         0         0         0         0         0         0
         0         0         0         0         0         0         0         0
         0         0         0         0         0         0         0         0
         0         0         0         0         0         0         0         0
         0         0         0         0         0         0         0         0
         0         0         0         0         0         0         0         0
         0         0         0         0         0         0         0         0
         0         0         0         0         0         0         0         0
         0         0         0         0         0         0         0         0
         0         0         0         0         0         0         0         0
         0         0         0         0         0         0         0         0
         0         0         0         0         0         0         0         0
         0         0         0         0         0         0         0         0
         0         0         0         0         0         0         0         0
         0         0         0         0         0         0         0         0
         0         0         0         0         0         0         0         0
         0         0         0         0         0         0         0         0
         0         0         0         0         0         0         0         0
         0         0         0         0         0         0         0         0
         0         0         0         0         0         0         0         0
         0         0         0         0         0         0         0         0
         0         0         0         0         0         0         0         0
         0         0         0         0         0         0         0         0
         0         0         0         0         0         0         0         0
         0         0         0         0         0         0         0         0
         0         0         0         0         0         0         0         0
         0         0         0         0         0         0         0         0
         0         0         0         0         0         0         0         0
         0         0         0         0         0         0         0         0
         0         0         0         0         0         0         0         0
         0         0         0         0         0         0         0         0
         0         0         0         0         0         0         0         0
         0         0         0         0         0         0         0         0
         0         0         0         0         0         0         0         0
         0         0         0         0         0         0         0         0
         0         0         0         0         0         0         0         0
         0         0         0         0         0         0         0         0
         0         0         0         0         0         0         0         0
         0         0         0         0         0         0         0         0
         0         0         0         0         0         0         0         0
         0         0         0         0         0         0         0         0
         0         0         0         0         0         0         0         0
         0         0         0         0         0         0         0         0
         0         0         0         0         0         0         0         0
         0         0         0         0         0         0         0         0
         0         0         0         0         0         0         0         0
         0         0         0         0         0         0         0         0
         0         0         0         0         0         0         0         0
         0         0         0         0         0         0         0         0
         0         0         0         0         0         0         0         0
         0         0         0         0         0         0         0         0
         0         0         0         0         0         0         0         0
         0         0         0         0         0         0         0         0
         0         0         0         0         0         0         0         0
         0         0         0         0         0         0         0         0
         0         0         0         0         0         0         0         0
         0         0         0         0         0         0         0         0
         0         0         0         0         0         0         0         0
         0         0         0         0         0         0         0         0
         0         0         0         0         0         0         0         0
         0         0         0         0         0         0         0         0
         0         0         0         0         0         0         0         0
         0         0         0         0         0         0         0         0
         0         0         0         0         0         0         0         0
         0         0         0         0         0         0         0         0
         0         0         0         0         0         0         0         0
         0         0         0         0         0         0         0         0
         0         0         0         0         0         0         0         0
         0         0         0         0         0         0         0         0
         0         0         0         0         0         0         0         0
         0         0         0         0         0         0         0         0
         0         0         0         0         0         0         0         0
         0         0         0         0         0         0         0         0
         0         0         0         0         0         0         0         0
         0         0         0         0         0         0         0         0
         0         0         0         0         0         0         0         0
         0         0         0         0         0         0         0         0
         0         0         0         0         0         0         0         0
         0         0         0         0         0         0         0         0
         0         0         0         0         0         0         0         0
         0         0         0         0         0         0         0         0
         0         0         0         0         0         0         0         0
         0         0         0         0         0         0         0         0
         0         0         0         0         0         0         0         0
         0         0         0         0         0         0         0         0
         0         0         0         0         0         0         0         0
         0         0         0         0         0         0         0         0
         0         0         0         0         0         0         0         0
         0         0         0         0         0         0         0         0
         0         0         0         0         0         0         0         0
         0         0         0         0         0         0         0         0
         0         0         0         0         0         0         0         0
         0         0         0         0         0         0         0         0
         0         0         0         0         0         0         0         0
         0         0         0         0         0         0         0         0
         0         0         0         0         0         0         0         0
         0         0         0         0         0         0         0         0
         0         0         0         0         0         0         0         0
         0         0         0         0         0         0         0         0
         0         0         0         0         0         0         0         0
         0         0         0         0         0         0         0         0
         0         0         0         0         0         0         0         0
         0         0         0         0         0         0         0         0
         0         0         0         0         0         0         0         0
         0         0         0         0         0         0         0         0
         0         0         0         0         0         0         0         0
         0         0         0         0         0         0         0         0
         0         0         0         0         0         0         0         0
         0         0         0         0         0         0         0         0
         0         0         0         0         0         0         0         0
         0         0         0         0         0         0         0         0
         0         0         0         0         0         0         0         0
         0         0         0         0         0         0         0         0
         0         0         0         0         0         0         0         0
         0         0         0         0         0         0         0         0
         0         0         0         0         0         0         0         0
         0         0         0         0         0         0         0         0
         0         0         0         0         0         0         0         0
         0         0         0         0         0         0         0         0
         0         0         0         0         0         0         0         0
         0         0         0         0         0         0         0         0
         0         0         0         0         0         0         0         0
         0         0         0         0         0         0         0         0
         0         0         0         0         0         0         0         0
         0         0         0         0         0         0         0         0
         0         0         0         0         0         0         0         0
         0         0         0         0         0         0         0         0
         0         0         0         0         0         0         0         0
         0         0         0         0         0         0         0         0
         0         0         0         0         0         0         0         0
         0         0         0         0         0         0         0         0
         0         0         0         0         0         0         0         0
         0         0         0         0         0         0         0         0
         0         0         0         0         0         0         0         0
         0         0         0         0         0         0         0         0
         0         0         0         0         0         0         0         0
         0         0         0         0         0         0         0         0
         0         0         0         0         0         0         0         0
         0         0         0         0         0         0         0         0
         0         0         0         0         0         0         0         0
         0         0         0         0         0         0         0         0
         0         0         0         0         0         0         0         0
         0         0         0         0         0         0         0         0
         0         0         0         0         0         0         0         0
         0         0         0         0         0         0         0         0
         0         0         0         0         0         0         0         0
         0         0         0         0         0         0         0         0
         0         0         0         0         0         0         0         0
         0         0         0         0         0         0         0         0
         0         0         0         0         0         0         0         0
         0         0         0         0         0         0         0         0
         0         0         0         0         0         0         0         0
         0         0         0         0         0         0         0         0
         0         0         0         0         0         0         0         0
         0         0         0         0         0         0         0         0
         0         0         0         0         0         0         0         0
         0         0         0         0         0         0         0         0
         0         0         0         0         0         0         0         0
         0         0         0         0         0         0         0         0
         0         0         0         0         0         0         0         0
         0         0         0         0         0         0         0         0
         0         0         0         0         0         0         0         0
         0         0         0         0         0         0         0         0
         0         0         0         0         0         0         0         0
         0         0         0         0         0         0         0         0
         0         0         0         0         0         0         0         0
         0         0         0         0         0         0         0         0
         0         0         0         0         0         0         0         0
         0         0         0         0         0         0         0         0
         0         0         0         0         0         0         0         0
         0         0         0         0         0         0         0         0
         0         0         0         0         0         0         0         0
         0         0         0         0         0         0         0         0
         0         0         0         0         0         0         0         0
         0         0         0         0         0         0         0         0
         0         0         0         0         0         0         0         0
         0         0         0         0         0         0         0         0
         0         0         0         0         0         0         0         0
         0         0         0         0         0         0         0         0
         0         0         0         0         0         0         0         0
         0         0         0         0         0         0         0         0
         0         0         0         0         0         0         0         0
         0         0         0         0         0         0         0         0
         0         0         0         0         0         0         0         0
         0         0         0         0         0         0         0         0
         0         0         0         0         0         0         0         0
         0         0         0         0         0         0         0         0
         0         0         0         0         0         0         0         0
         0         0         0         0         0         0         0         0
         0         0         0         0         0         0         0         0
         0         0         0         0         0         0         0         0
         0         0         0         0         0         0         0         0
         0         0         0         0         0         0         0         0
         0         0         0         0         0         0         0         0
         0         0         0         0         0         0         0         0
         0         0         0         0         0         0         0         0
         0         0         0         0         0         0         0         0
         0         0         0         0         0         0         0         0
         0         0         0         0         0         0         0         0
         0         0         0         0         0         0         0         0
         0         0         0         0         0         0         0         0
         0         0         0         0         0         0         0         0
         0         0         0         0         0         0         0         0
         0         0         0         0         0         0         0         0
         0         0         0         0         0         0         0         0
         0         0         0         0         0         0         0         0
         0         0         0         0         0         0         0         0
         0         0         0         0         0         0         0         0
         0         0         0         0         0         0         0         0
         0         0         0         0         0         0         0         0
         0         0         0         0         0         0         0         0
         0         0         0         0         0         0         0         0
         0         0         0         0         0         0         0         0
         0         0         0         0         0         0         0         0
         0         0         0         0         0         0         0         0
         0         0         0         0         0         0         0         0
         0         0         0         0         0         0         0         0
         0         0         0         0         0         0         0         0
         0         0         0         0         0         0         0         0
         0         0         0         0         0         0         0         0
         0         0         0         0         0         0         0         0
         0         0         0         0         0         0         0         0
         0         0         0         0         0         0         0         0
         0         0         0         0         0         0         0         0
         0         0         0         0         0         0         0         0
         0         0         0         0         0         0         0         0
         0         0         0         0         0         0         0         0
         0         0         0         0         0         0         0         0
         0         0         0         0         0         0         0         0
         0         0         0         0         0         0         0         0
         0         0         0         0         0         0         0         0
         0         0         0         0         0         0         0         0
         0         0         0         0         0         0         0         0
         0         0         0         0         0         0         0         0
         0         0         0         0         0         0         0         0
         0         0         0         0         0         0         0         0
         0         0         0         0         0         0         0         0
         0         0         0         0         0         0         0         0
         0         0         0         0         0         0         0         0
         0         0         0         0         0         0         0         0
         0         0         0         0         0         0         0         0
         0         0         0         0         0         0         0         0
         0         0         0         0         0         0         0         0
         0         0         0         0         0         0         0         0
         0         0         0         0         0         0         0         0
         0         0         0         0         0         0         0         0
         0         0         0         0         0         0         0         0
         0         0         0         0         0         0         0         0
         0         0         0         0         0         0         0         0
         0         0         0         0         0         0         0         0
         0         0         0         0         0         0         0         0
         0         0         0         0         0         0         0         0
         0         0         0         0         0         0         0         0
         0         0         0         0         0         0         0         0
         0         0         0         0         0         0         0         0
         0         0         0         0         0         0         0         0
         0         0         0         0         0         0         0         0
         0         0         0         0         0         0         0         0
         0         0         0         0         0         0         0         0
         0         0         0         0         0         0         0         0
         0         0         0         0         0         0         0         0
         0         0         0         0         0         0         0         0
         0         0         0         0         0         0         0         0
         0         0         0         0         0         0         0         0
         0         0         0         0         0         0         0         0
         0         0         0         0         0         0         0         0
         0         0         0         0         0         0         0         0
         0         0         0         0         0         0         0         0
         0         0         0         0         0         0         0         0
         0         0         0         0         0         0         0         0
         0         0         0         0         0         0         0         0
         0         0         0         0         0         0         0         0
         0         0         0         0         0         0         0         0
         0         0         0         0         0         0         0         0
         0         0         0         0         0         0         0         0
         0         0         0         0         0         0         0         0
         0         0         0         0         0         0         0         0
         0         0         0         0         0         0         0         0
         0         0         0         0         0         0         0         0
         0         0         0         0         0         0         0         0
         0         0         0         0         0         0         0         0
         0         0         0         0         0         0         0         0
         0         0         0         0         0         0         0         0
         0         0         0         0         0         0         0         0
         0         0         0         0         0         0         0         0
         0         0         0         0         0         0         0         0
         0         0         0         0         0         0         0         0
         0         0         0         0         0         0         0         0
         0         0         0         0         0         0         0         0
         0         0         0         0         0         0         0         0
         0         0         0         0         0         0         0         0
         0         0         0         0         0         0         0         0
         0         0         0         0         0         0         0         0
         0         0         0         0         0         0         0         0
         0         0         0         0         0         0         0         0
         0         0         0         0         0         0         0         0
         0         0         0         0         0         0         0         0
         0         0         0         0         0         0         0         0
         0         0         0         0         0         0         0         0
         0         0         0         0         0         0         0         0
         0         0         0         0         0         0         0         0
         0         0         0         0         0         0         0         0
         0         0         0         0         0         0         0         0
         0         0         0         0         0         0         0         0
         0         0         0         0         0         0         0         0
         0         0         0         0         0         0         0         0
         0         0         0         0         0         0         0         0
         0         0         0         0         0         0         0         0
         0         0         0         0         0         0         0         0
         0         0         0         0         0         0         0         0
         0         0         0         0         0         0         0         0
         0         0         0         0         0         0         0         0
         0         0         0         0         0         0         0         0
         0         0         0         0         0         0         0         0
         0         0         0         0         0         0         0         0
         0         0         0         0         0         0         0         0
         0         0         0         0         0         0         0         0
         0         0         0         0         0         0         0         0
         0         0         0         0         0         0         0         0
         0         0         0         0         0         0         0         0
         0         0         0         0         0         0         0         0
         0         0         0         0         0         0         0         0
         0         0         0         0         0         0         0         0
         0         0         0         0         0         0         0         0
         0         0         0         0         0         0         0         0
         0         0         0         0         0         0         0         0
         0         0         0         0         0         0         0         0
         0         0         0         0         0         0         0         0
         0         0         0         0         0         0         0         0
         0         0         0         0         0         0         0         0
         0         0         0         0         0         0         0         0
         0         0         0         0         0         0         0         0
         0         0         0         0         0         0         0         0
         0         0         0         0         0         0         0         0
         0         0         0         0         0         0         0         0
         0         0         0         0         0         0         0         0
         0         0         0         0         0         0         0         0
         0         0         0         0         0         0         0         0
         0         0         0         0         0         0         0         0
         0         0         0         0         0         0         0         0
         0         0         0         0         0         0         0         0
         0         0         0         0         0         0         0         0
         0         0         0         0         0         0         0         0
         0         0         0         0         0         0         0         0
         0         0         0         0         0         0         0         0
         0         0         0         0         0         0         0         0
         0         0         0         0         0         0         0         0
         0         0         0         0         0         0         0         0
         0         0         0         0         0         0         0         0
         0         0         0         0         0         0         0         0
         0         0         0         0         0         0         0         0
         0         0         0         0         0         0         0         0
         0         0         0         0         0         0         0         0
         0         0         0         0         0         0         0         0
         0         0         0         0         0         0         0         0
         0         0         0         0         0         0         0         0
         0         0         0         0         0         0         0         0
         0         0         0         0         0         0         0         0
         0         0         0         0         0         0         0         0
         0         0         0         0         0         0         0         0
         0         0         0         0         0         0         0         0
         0         0         0         0         0         0         0         0
         0         0         0         0         0         0         0         0
         0         0         0         0         0         0         0         0
         0         0         0         0         0         0         0         0
         0         0         0         0         0         0         0         0
         0         0         0         0         0         0         0         0
         0         0         0         0         0         0         0         0
         0         0         0         0         0         0         0         0
         0         0         0         0         0         0         0         0
         0         0         0         0         0         0         0         0
         0         0         0         0         0         0         0         0
         0         0         0         0         0         0         0         0
         0         0         0         0         0         0         0         0
         0         0         0         0         0         0         0         0
         0         0         0         0         0         0         0         0
         0         0         0         0         0         0         0         0
         0         0         0         0         0         0         0         0
         0         0         0         0         0         0         0         0
         0         0         0         0         0         0         0         0
         0         0         0         0         0         0         0         0
         0         0         0         0         0         0         0         0
         0         0         0         0         0         0         0         0
         0         0         0         0         0         0         0         0
         0         0         0         0         0         0         0         0
         0         0         0         0         0         0         0         0
         0         0         0         0         0         0         0         0
         0         0         0         0         0         0         0         0
         0         0         0         0         0         0         0         0
         0         0         0         0         0         0         0         0
         0         0         0         0         0         0         0         0
         0         0         0         0         0         0         0         0
         0         0         0         0         0         0         0         0
         0         0         0         0         0         0         0         0
         0         0         0         0         0         0         0         0
         0         0         0         0         0         0         0         0
         0         0         0         0         0         0         0         0
         0         0         0         0         0         0         0         0
         0         0         0         0         0         0         0         0
         0         0         0         0         0         0         0         0
         0         0         0         0         0         0         0         0
         0         0         0         0         0         0         0         0
         0         0         0         0         0         0         0         0
         0         0         0         0         0         0         0         0
         0         0         0         0         0         0         0         0
         0         0         0         0         0         0         0         0
         0         0         0         0         0         0         0         0
         0         0         0         0         0         0         0         0
         0         0         0         0         0         0         0         0
         0         0         0         0         0         0         0         0
         0         0         0         0         0         0         0         0
         0         0         0         0         0         0         0         0
         0         0         0         0         0         0         0         0
         0         0         0         0         0         0         0         0
         0         0         0         0         0         0         0         0
         0         0         0         0         0         0         0         0
         0         0         0         0         0         0         0         0
         0         0         0         0         0         0         0         0
         0         0         0         0         0         0         0         0
         0         0         0         0         0         0         0         0
         0         0         0         0         0         0         0         0
         0         0         0         0         0         0         0         0
         0         0         0         0         0         0         0         0
         0         0         0         0         0         0         0         0
         0         0         0         0         0         0         0         0
         0         0         0         0         0         0         0         0
         0         0         0         0         0         0         0         0
         0         0         0         0         0         0         0         0
         0         0         0         0         0         0         0         0
         0         0         0         0         0         0         0         0
         0         0         0         0         0         0         0         0
         0         0         0         0         0         0         0         0
         0         0         0         0         0         0         0         0
         0         0         0         0         0         0         0         0
         0         0         0         0         0         0         0         0
         0         0         0         0         0         0         0         0
         0         0         0         0         0         0         0         0
         0         0         0         0         0         0         0         0
         0         0         0         0         0         0         0         0
         0         0         0         0         0         0         0         0
         0         0         0         0         0         0         0         0
         0         0         0         0         0         0         0         0
         0         0         0         0         0         0         0         0
         0         0         0         0         0         0         0         0
         0         0         0         0         0         0         0         0
         0         0         0         0         0         0         0         0
         0         0         0         0         0         0         0         0
         0         0         0         0         0         0         0         0
         0         0         0         0         0         0         0         0
         0         0         0         0         0         0         0         0
         0         0         0         0         0         0         0         0
         0         0         0         0         0         0         0         0
         0         0         0         0         0         0         0         0
         0         0         0         0         0         0         0         0
         0         0         0         0         0         0         0         0
         0         0         0         0         0         0         0         0
         0         0         0         0         0         0         0         0
         0         0         0         0         0         0         0         0
         0         0         0         0         0         0         0         0
         0         0         0         0         0         0         0         0
         0         0         0         0         0         0         0         0
         0         0         0         0         0         0         0         0
         0         0         0         0         0         0         0         0
         0         0         0         0         0         0         0         0
         0         0         0         0         0         0         0         0
         0         0         0         0         0         0         0         0
         0         0         0         0         0         0         0         0
         0         0         0         0         0         0         0         0
         0         0         0         0         0         0         0         0
         0         0         0         0         0         0         0         0
         0         0         0         0         0         0         0         0
         0         0         0         0         0         0         0         0
         0         0         0         0         0         0         0         0
         0         0         0         0         0         0         0         0
         0         0         0         0         0         0         0         0
         0         0         0         0         0         0         0         0
         0         0         0         0         0         0         0         0
         0         0         0         0         0         0         0         0
         0         0         0         0         0         0         0         0
         0         0         0         0         0         0         0         0
         0         0         0         0         0         0         0         0
         0         0         0         0         0         0         0         0
         0         0         0         0         0         0         0         0
         0         0         0         0         0         0         0         0
         0         0         0         0         0         0         0         0
         0         0         0         0         0         0         0         0
         0         0         0         0         0         0         0         0
         0         0         0         0         0         0         0         0
         0         0         0         0         0         0         0         0
         0         0         0         0         0         0         0         0
         0         0         0         0         0         0         0         0
         0         0         0         0         0         0         0         0
         0         0         0         0         0         0         0         0
         0         0         0         0         0         0         0         0
         0         0         0         0         0         0         0         0
         0         0         0         0         0         0         0         0
         0         0         0         0         0         0         0         0
         0         0         0         0         0         0         0         0
         0         0         0         0         0         0         0         0
         0         0         0         0         0         0         0         0
         0         0         0         0         0         0         0         0
         0         0         0         0         0         0         0         0
         0         0         0         0         0         0         0         0
         0         0         0         0         0         0         0         0
         0         0         0         0         0         0         0         0
         0         0         0         0         0         0         0         0
         0         0         0         0         0         0         0         0
         0         0         0         0         0         0         0         0
         0         0         0         0         0         0         0         0
         0         0         0         0         0         0         0         0
         0         0         0         0         0         0         0         0
         0         0         0         0         0         0         0         0
         0         0         0         0         0         0         0         0
         0         0         0         0         0         0         0         0
         0         0         0         0         0         0         0         0
         0         0         0         0         0         0         0         0
         0         0         0         0         0         0         0         0
         0         0         0         0         0         0         0         0
         0         0         0         0         0         0         0         0
         0         0         0         0         0         0         0         0
         0         0         0         0         0         0         0         0
         0         0         0         0         0         0         0         0
         0         0         0         0         0         0         0         0
         0         0         0         0         0         0         0         0
         0         0         0         0         0         0         0         0
         0         0         0         0         0         0         0         0
         0         0         0         0         0         0         0         0
         0         0         0         0         0         0         0         0
         0         0         0         0         0         0         0         0
         0         0         0         0         0         0         0         0
         0         0         0         0         0         0         0         0
         0         0         0         0         0         0         0         0
         0         0         0         0         0         0         0         0
         0         0         0         0         0         0         0         0
         0         0         0         0         0         0         0         0
         0         0         0         0         0         0         0         0
         0         0         0         0         0         0         0         0
         0         0         0         0         0         0         0         0
         0         0         0         0         0         0         0         0
         0         0         0         0         0         0         0         0
         0         0         0         0         0         0         0         0
         0         0         0         0         0         0         0         0
         0         0         0         0         0         0         0         0
         0         0         0         0         0         0         0         0
         0         0         0         0         0         0         0         0
         0         0         0         0         0         0         0         0
         0         0         0         0         0         0         0         0
         0         0         0         0         0         0         0         0
         0         0         0         0         0         0         0         0
         0         0         0         0         0         0         0         0
         0         0         0         0         0         0         0         0
         0         0         0         0         0         0         0         0
         0         0         0         0         0         0         0         0
         0         0         0         0         0         0         0         0
         0         0         0         0         0         0         0         0
         0         0         0         0         0         0         0         0
         0         0         0         0         0         0         0         0
         0         0         0         0         0         0         0         0
         0         0         0         0         0         0         0         0
         0         0         0         0         0         0         0         0
         0         0         0         0         0         0         0         0
         0         0         0         0         0         0         0         0
         0         0         0         0         0         0         0         0
         0         0         0         0         0         0         0         0
         0         0         0         0         0         0         0         0
         0         0         0         0         0         0         0         0
         0         0         0         0         0         0         0         0
         0         0         0         0         0         0         0         0
         0         0         0         0         0         0         0         0
         0         0         0         0         0         0         0         0
         0         0         0         0         0         0         0         0
         0         0         0         0         0         0         0         0
         0         0         0         0         0         0         0         0
         0         0         0         0         0         0         0         0
         0         0         0         0         0         0         0         0
         0         0         0         0         0         0         0         0
         0         0         0         0         0         0         0         0
         0         0         0         0         0         0         0         0
         0         0         0         0         0         0         0         0
         0         0         0         0         0         0         0         0
         0         0         0         0         0         0         0         0
         0         0         0         0         0         0         0         0
         0         0         0         0         0         0         0         0
         0         0         0         0         0         0         0         0
         0         0         0         0         0         0         0         0
         0         0         0         0         0         0         0         0
         0         0         0         0         0         0         0         0
         0         0         0         0         0         0         0         0
         0         0         0         0         0         0         0         0
         0         0         0         0         0         0         0         0
         0         0         0         0         0         0         0         0
         0         0         0         0         0         0         0         0
         0         0         0         0         0         0         0         0
         0         0         0         0         0         0         0         0
         0         0         0         0         0         0         0         0
         0         0         0         0         0         0         0         0
         0         0         0         0         0         0         0         0
         0         0         0         0         0         0         0         0
         0         0         0         0         0         0         0         0
         0         0         0         0         0         0         0         0
         0         0         0         0         0         0         0         0
         0         0         0         0         0         0         0         0
         0         0         0         0         0         0         0         0
         0         0         0         0         0         0         0         0
         0         0         0         0         0         0         0         0
         0         0         0         0         0         0         0         0
         0         0         0         0         0         0         0         0
         0         0         0         0         0         0         0         0
         0         0         0         0         0         0         0         0
         0         0         0         0         0         0         0         0
         0         0         0         0         0         0         0         0
         0         0         0         0         0         0         0         0
         0         0         0         0         0         0         0         0
         0         0         0         0         0         0         0         0
         0         0         0         0         0         0         0         0
         0         0         0         0         0         0         0         0
         0         0         0         0         0         0         0         0
         0         0         0         0         0         0         0         0
         0         0         0         0         0         0         0         0
         0         0         0         0         0         0         0         0
         0         0         0         0         0         0         0         0
         0         0         0         0         0         0         0         0
         0         0         0         0         0         0         0         0
         0         0         0         0         0         0         0         0
         0         0         0         0         0         0         0         0
         0         0         0         0         0         0         0         0
         0         0         0         0         0         0         0         0
         0         0         0         0         0         0         0         0
         0         0         0         0         0         0         0         0
         0         0         0         0         0         0         0         0
         0         0         0         0         0         0         0         0
         0         0         0         0         0         0         0         0
         0         0         0         0         0         0         0         0
         0         0         0         0         0         0         0         0
         0         0         0         0         0         0         0         0
         0         0         0         0         0         0         0         0
         0         0         0         0         0         0         0         0
         0         0         0         0         0         0         0         0
         0         0         0         0         0         0         0         0
         0         0         0         0         0         0         0         0
         0         0         0         0         0         0         0         0
         0         0         0         0         0         0         0         0
         0         0         0         0         0         0         0         0
         0         0         0         0         0         0         0         0
         0         0         0         0         0         0         0         0
         0         0         0         0         0         0         0         0
         0         0         0         0         0         0         0         0
         0         0         0         0         0         0         0         0
         0         0         0         0         0         0         0         0
         0         0         0         0         0         0         0         0
         0         0         0         0         0         0         0         0
         0         0         0         0         0         0         0         0
         0         0         0         0         0         0         0         0
         0         0         0         0         0         0         0         0
         0         0         0         0         0         0         0         0
         0         0         0         0         0         0         0         0
         0         0         0         0         0         0         0         0
         0         0         0         0         0         0         0         0
         0         0         0         0         0         0         0         0
         0         0         0         0         0         0         0         0
         0         0         0         0         0         0         0         0
         0         0         0         0         0         0         0         0
         0         0         0         0         0         0         0         0
         0         0         0         0         0         0         0         0
         0         0         0         0         0         0         0         0
         0         0         0         0         0         0         0         0
         0         0         0         0         0         0         0         0
         0         0         0         0         0         0         0         0
         0         0         0         0         0         0         0         0
         0         0         0         0         0         0         0         0
         0         0         0         0         0         0         0         0
         0         0         0         0         0         0         0         0
         0         0         0         0         0         0         0         0
         0         0         0         0         0         0         0         0
         0         0         0         0         0         0         0         0
         0         0         0         0         0         0         0         0
         0         0         0         0         0         0         0         0
         0         0         0         0         0         0         0         0
         0         0         0         0         0         0         0         0
         0         0         0         0         0         0         0         0
         0         0         0         0         0         0         0         0
         0         0         0         0         0         0         0         0
         0         0         0         0         0         0         0         0
         0         0         0         0         0         0         0         0
         0         0         0         0         0         0         0         0
         0         0         0         0         0         0         0         0
         0         0         0         0         0         0         0         0
         0         0         0         0         0         0         0         0
         0         0         0         0         0         0         0         0
         0         0         0         0         0         0         0         0
         0         0         0         0         0         0         0         0
         0         0         0         0         0         0         0         0
         0         0         0         0         0         0         0         0
         0         0         0         0         0         0         0         0
         0         0         0         0         0         0         0         0
         0         0         0         0         0         0         0         0
         0         0         0         0         0         0         0         0
         0         0         0         0         0         0         0         0
         0         0         0         0         0         0         0         0
         0         0         0         0         0         0         0         0
         0         0         0         0         0         0         0         0
         0         0         0         0         0         0         0         0
         0         0         0         0         0         0         0         0
         0         0         0         0         0         0         0         0
         0         0         0         0         0         0         0         0
         0         0         0         0         0         0         0         0
         0         0         0         0         0         0         0         0
         0         0         0         0         0         0         0         0
         0         0         0         0         0         0         0         0
         0         0         0         0         0         0         0         0
         0         0         0         0         0         0         0         0
         0         0         0         0         0         0         0         0
         0         0         0         0         0         0         0         0
         0         0         0         0         0         0         0         0
         0         0         0         0         0         0         0         0
         0         0         0         0         0         0         0         0
         0         0         0         0         0         0         0         0
         0         0         0         0         0         0         0         0
         0         0         0         0         0         0         0         0
         0         0         0         0         0         0         0         0
         0         0         0         0         0         0         0         0
         0         0         0         0         0         0         0         0
         0         0         0         0         0         0         0         0
         0         0         0         0         0         0         0         0
         0         0         0         0         0         0         0         0
         0         0         0         0         0         0         0         0
         0         0         0         0         0         0         0         0
         0         0         0         0         0         0         0         0
         0         0         0         0         0         0         0         0
         0         0         0         0         0         0         0         0
         0         0         0         0         0         0         0         0
         0         0         0         0         0         0         0         0
         0         0         0         0         0         0         0         0
         0         0         0         0         0         0         0         0
         0         0         0         0         0         0         0         0
         0         0         0         0         0         0         0         0
         0         0         0         0         0         0         0         0
         0         0         0         0         0         0         0         0
         0         0         0         0         0         0         0         0
         0         0         0         0         0         0         0         0
         0         0         0         0         0         0         0         0
         0         0         0         0         0         0         0         0
         0         0         0         0         0         0         0         0
         0         0         0         0         0         0         0         0
         0         0         0         0         0         0         0         0
         0         0         0         0         0         0         0         0
         0         0         0         0         0         0         0         0
         0         0         0         0         0         0         0         0
         0         0         0         0         0         0         0         0
         0         0         0         0         0         0         0         0
         0         0         0         0         0         0         0         0
         0         0         0         0         0         0         0         0
         0         0         0         0         0         0         0         0
         0         0         0         0         0         0         0         0
         0         0         0         0         0         0         0         0
         0         0         0         0         0         0         0         0
         0         0         0         0         0         0         0         0
         0         0         0         0         0         0         0         0
         0         0         0         0         0         0         0         0
         0         0         0         0         0         0         0         0
         0         0         0         0         0         0         0         0
         0         0         0         0         0         0         0         0
         0         0         0         0         0         0         0         0
         0         0         0         0         0         0         0         0
         0         0         0         0         0         0         0         0
         0         0         0         0         0         0         0         0
         0         0         0         0         0         0         0         0
         0         0         0         0         0         0         0         0
         0         0         0         0         0         0         0         0
         0         0         0         0         0         0         0         0
         0         0         0         0         0         0         0         0
         0         0         0         0         0         0         0         0
         0         0         0         0         0         0         0         0
         0         0         0         0         0         0         0         0
         0         0         0         0         0         0         0         0
         0         0         0         0         0         0         0         0
         0         0         0         0         0         0         0         0
         0         0         0         0         0         0         0         0
         0         0         0         0         0         0         0         0
         0         0         0         0         0         0         0         0
         0         0         0         0         0         0         0         0
         0         0         0         0         0         0         0         0
         0         0         0         0         0         0         0         0
         0         0         0         0         0         0         0         0
         0         0         0         0         0         0         0         0
         0         0         0         0         0         0         0         0
         0         0         0         0         0         0         0         0
         0         0         0         0         0         0         0         0
         0         0         0         0         0         0         0         0
         0         0         0         0         0         0         0         0
         0         0         0         0         0         0         0         0
         0         0         0         0         0         0         0         0
         0         0         0         0         0         0         0         0
         0         0         0         0         0         0         0         0
         0         0         0         0         0         0         0         0
         0         0         0         0         0         0         0         0
         0         0         0         0         0         0         0         0
         0         0         0         0         0         0         0         0
         0         0         0         0         0         0         0         0
         0         0         0         0         0         0         0         0
         0         0         0         0         0         0         0         0
         0         0         0         0         0         0         0         0
         0         0         0         0         0         0         0         0
         0         0         0         0         0         0         0         0
         0         0         0         0         0         0         0         0
         0         0         0         0         0         0         0         0
         0         0         0         0         0         0         0         0
         0         0         0         0         0         0         0         0
         0         0         0         0         0         0         0         0
         0         0         0         0         0         0         0         0
         0         0         0         0         0         0         0         0
         0         0         0         0         0         0         0         0
         0         0         0         0         0         0         0         0
         0         0         0         0         0         0         0         0
         0         0         0         0         0         0         0         0
         0         0         0         0         0         0         0         0
         0         0         0         0         0         0         0         0
         0         0         0         0         0         0         0         0
         0         0         0         0         0         0         0         0
         0         0         0         0         0         0         0         0
         0         0         0         0         0         0         0         0
         0         0         0         0         0         0         0         0
         0         0         0         0         0         0         0         0
         0         0         0         0         0         0         0         0
         0         0         0         0         0         0         0         0
         0         0         0         0         0         0         0         0
         0         0         0         0         0         0         0         0
         0         0         0         0         0         0         0         0
         0         0         0         0         0         0         0         0
         0         0         0         0         0         0         0         0
         0         0         0         0         0         0         0         0
         0         0         0         0         0         0         0         0
         0         0         0         0         0         0         0         0
         0         0         0         0         0         0         0         0
         0         0         0         0         0         0         0         0
         0         0         0         0         0         0         0         0
         0         0         0         0         0         0         0         0
         0         0         0         0         0         0         0         0
         0         0         0         0         0         0         0         0
         0         0         0         0         0         0         0         0
         0         0         0         0         0         0         0         0
         0         0         0         0         0         0         0         0
         0         0         0         0         0         0         0         0
         0         0         0         0         0         0         0         0
         0         0         0         0         0         0         0         0
         0         0         0         0         0         0         0         0
         0         0         0         0         0         0         0         0
         0         0         0         0         0         0         0         0
         0         0         0         0         0         0         0         0
         0         0         0         0         0         0         0         0
         0         0         0         0         0         0         0         0
         0         0         0         0         0         0         0         0
         0         0         0         0         0         0         0         0
         0         0         0         0         0         0         0         0
         0         0         0         0         0         0         0         0
         0         0         0         0         0         0         0         0
         0         0         0         0         0         0         0         0
         0         0         0         0         0         0         0         0
         0         0         0         0         0         0         0         0
         0         0         0         0         0         0         0         0
         0         0         0         0         0         0         0         0
         0         0         0         0         0         0         0         0
         0         0         0         0         0         0         0         0
         0         0         0         0         0         0         0         0
         0         0         0         0         0         0         0         0
         0         0         0         0         0         0         0         0
         0         0         0         0         0         0         0         0
         0         0         0         0         0         0         0         0
         0         0         0         0         0         0         0         0
         0         0         0         0         0         0         0         0
         0         0         0         0         0         0         0         0
         0         0         0         0         0         0         0         0
         0         0         0         0         0         0         0         0
         0         0         0         0         0         0         0         0
         0         0         0         0         0         0         0         0
         0         0         0         0         0         0         0         0
         0         0         0         0         0         0         0         0
         0         0         0         0         0         0         0         0
         0         0         0         0         0         0         0         0
         0         0         0         0         0         0         0         0
         0         0         0         0         0         0         0         0
         0         0         0         0         0         0         0         0
         0         0         0         0         0         0         0         0
         0         0         0         0         0         0         0         0
         0         0         0         0         0         0         0         0
         0         0         0         0         0         0         0         0
         0         0         0         0         0         0         0         0
         0         0         0         0         0         0         0         0
         0         0         0         0         0         0         0         0
         0         0         0         0         0         0         0         0
         0         0         0         0         0         0         0         0
         0         0         0         0         0         0         0         0
         0         0         0         0         0         0         0         0
         0         0         0         0         0         0         0         0
         0         0         0         0         0         0         0         0
         0         0         0         0         0         0         0         0
         0         0         0         0         0         0         0         0
         0         0         0         0         0         0         0         0
         0         0         0         0         0         0         0         0
         0         0         0         0         0         0         0         0
         0         0         0         0         0         0         0         0
         0         0         0         0         0         0         0         0
         0         0         0         0         0         0         0         0
         0         0         0         0         0         0         0         0
         0         0         0         0         0         0         0         0
         0         0         0         0         0         0         0         0
         0         0         0         0         0         0         0         0
         0         0         0         0         0         0         0         0
         0         0         0         0         0         0         0         0
         0         0         0         0         0         0         0         0
         0         0         0         0         0         0         0         0
         0         0         0         0         0         0         0         0
         0         0         0         0         0         0         0         0
         0         0         0         0         0         0         0         0
         0         0         0         0         0         0         0         0
         0         0         0         0         0         0         0         0
         0         0         0         0         0         0         0         0
         0         0         0         0         0         0         0         0
         0         0         0         0         0         0         0         0
         0         0         0         0         0         0         0         0
         0         0         0         0         0         0         0         0
         0         0         0         0         0         0         0         0
         0         0         0         0         0         0         0         0
         0         0         0         0         0         0         0         0
         0         0         0         0         0         0         0         0
         0         0         0         0         0         0         0         0
         0         0         0         0         0         0         0         0
         0         0         0         0         0         0         0         0
         0         0         0         0         0         0         0         0
         0         0         0         0         0         0         0         0
         0         0         0         0         0         0         0         0
         0         0         0         0         0         0         0         0
         0         0         0         0         0         0         0         0
         0         0         0         0         0         0         0         0
         0         0         0         0         0         0         0         0
         0         0         0         0         0         0         0         0
         0         0         0         0         0         0         0         0
         0         0         0         0         0         0         0         0
         0         0         0         0         0         0         0         0
         0         0         0         0         0         0         0         0
         0         0         0         0         0         0         0         0
         0         0         0         0         0         0         0         0
         0         0         0         0         0         0         0         0
         0         0         0         0         0         0         0         0
         0         0         0         0         0         0         0         0
         0         0         0         0         0         0         0         0
         0         0         0         0         0         0         0         0
         0         0         0         0         0         0         0         0
         0         0         0         0         0         0         0         0
         0         0         0         0         0         0         0         0
         0         0         0         0         0         0         0         0
         0         0         0         0         0         0         0         0
         0         0         0         0         0         0         0         0
         0         0         0         0         0         0         0         0
         0         0         0         0         0         0         0         0
         0         0         0         0         0         0         0         0
         0         0         0         0         0         0         0         0
         0         0         0         0         0         0         0         0
         0         0         0         0         0         0         0         0
         0         0         0         0         0         0         0         0
         0         0         0         0         0         0         0         0
         0         0         0         0         0         0         0         0
         0         0         0         0         0         0         0         0
         0         0         0         0         0         0         0         0
         0         0         0         0         0         0         0         0
         0         0         0         0         0         0         0         0
         0         0         0         0         0         0         0         0
         0         0         0         0         0         0         0         0
         0         0         0         0         0         0         0         0
         0         0         0         0         0         0         0         0
         0         0         0         0         0         0         0         0
         0         0         0         0         0         0         0         0
         0         0         0         0         0         0         0         0
         0         0         0         0         0         0         0         0
         0         0         0         0         0         0         0         0
         0         0         0         0         0         0         0         0
         0         0         0         0         0         0         0         0
         0         0         0         0         0         0         0         0
         0         0         0         0         0         0         0         0
         0         0         0         0         0         0         0         0
         0         0         0         0         0         0         0         0
         0         0         0         0         0         0         0         0
         0         0         0         0         0         0         0         0
         0         0         0         0         0         0         0         0
         0         0         0         0         0         0         0         0
         0         0         0         0         0         0         0         0
         0         0         0         0         0         0         0         0
         0         0         0         0         0         0         0         0
         0         0         0         0         0         0         0         0
         0         0         0         0         0         0         0         0
         0         0         0         0         0         0         0         0
         0         0         0         0         0         0         0         0
         0         0         0         0         0         0         0         0
         0         0         0         0         0         0         0         0
         0         0         0         0         0         0         0         0
         0         0         0         0         0         0         0         0
         0         0         0         0         0         0         0         0
         0         0         0         0         0         0         0         0
         0         0         0         0         0         0         0         0
         0         0         0         0         0         0         0         0
         0         0         0         0         0         0         0         0
         0         0         0         0         0         0         0         0
         0         0         0         0         0         0         0         0
         0         0         0         0         0         0         0         0
         0         0         0         0         0         0         0         0
         0         0         0         0         0         0         0         0
         0         0         0         0         0         0         0         0
         0         0         0         0         0         0         0         0
         0         0         0         0         0         0         0         0
         0         0         0         0         0         0         0         0
         0         0         0         0         0         0         0         0
         0         0         0         0         0         0         0         0
         0         0         0         0         0         0         0         0
         0         0         0         0         0         0         0         0
         0         0         0         0         0         0         0         0
         0         0         0         0         0         0         0         0
         0         0         0         0         0         0         0         0
         0         0         0         0         0         0         0         0
         0         0         0         0         0         0         0         0
         0         0         0         0         0         0         0         0
         0         0         0         0         0         0         0         0
         0         0         0         0         0         0         0         0
         0         0         0         0         0         0         0         0
         0         0         0         0         0         0         0         0
         0         0         0         0         0         0         0         0
         0         0         0         0         0         0         0         0
         0         0         0         0         0         0         0         0
         0         0         0         0         0         0         0         0
         0         0         0         0         0         0         0         0
         0         0         0         0         0         0         0         0
         0         0         0         0         0         0         0         0
         0         0         0         0         0         0         0         0
         0         0         0         0         0         0         0         0
         0         0         0         0         0         0         0         0
         0         0         0         0         0         0         0         0
         0         0         0         0         0         0         0         0
         0         0         0         0         0         0         0         0
         0         0         0         0         0         0         0         0
         0         0         0         0         0         0         0         0
         0         0         0         0         0         0         0         0
         0         0         0         0         0         0         0         0
         0         0         0         0         0         0         0         0
         0         0         0         0         0         0         0         0
         0         0         0         0         0         0         0         0
         0         0         0         0         0         0         0         0
         0         0         0         0         0         0         0         0
         0         0         0         0         0         0         0         0
         0         0         0         0         0         0         0         0
         0         0         0         0         0         0         0         0
         0         0         0         0         0         0         0         0
         0         0         0         0         0         0         0         0
         0         0         0         0         0         0         0         0
         0         0         0         0         0         0         0         0
         0         0         0         0         0         0         0         0
         0         0         0         0         0         0         0         0
         0         0         0         0         0         0         0         0
         0         0         0         0         0         0         0         0
         0         0         0         0         0         0         0         0
         0         0         0         0         0         0         0         0
         0         0         0         0         0         0         0         0
         0         0         0         0         0         0         0         0
         0         0         0         0         0         0         0         0
         0         0         0         0         0         0         0         0
         0         0         0         0         0         0         0         0
         0         0         0         0         0         0         0         0
         0         0         0         0         0         0         0         0
         0         0         0         0         0         0         0         0
         0         0         0         0         0         0         0         0
         0         0         0         0         0         0         0         0
         0         0         0         0         0         0         0         0
         0         0         0         0         0         0         0         0
         0         0         0         0         0         0         0         0
         0         0         0         0         0         0         0         0
         0         0         0         0         0         0         0         0
         0         0         0         0         0         0         0         0
         0         0         0         0         0         0         0         0
         0         0         0         0         0         0         0         0
         0         0         0         0         0         0         0         0
         0         0         0         0         0         0         0         0
         0         0         0         0         0         0         0         0
         0         0         0         0         0         0         0         0
         0         0         0         0         0         0         0         0
         0         0         0         0         0         0         0         0
         0         0         0         0         0         0         0         0
         0         0         0         0         0         0         0         0
         0         0         0         0         0         0         0         0
         0         0         0         0         0         0         0         0
         0         0         0         0         0         0         0         0
         0         0         0         0         0         0         0         0
         0         0         0         0         0         0         0         0
         0         0         0         0         0         0         0         0
         0         0         0         0         0         0         0         0
         0         0         0         0         0         0         0         0
         0         0         0         0         0         0         0         0
         0         0         0         0         0         0         0         0
         0         0         0         0         0         0         0         0
         0         0         0         0         0         0         0         0
         0         0         0         0         0         0         0         0
         0         0         0         0         0         0         0         0
         0         0         0         0         0         0         0         0
         0         0         0         0         0         0         0         0
         0         0         0         0         0         0         0         0
         0         0         0         0         0         0         0         0
         0         0         0         0         0         0         0         0
         0         0         0         0         0         0         0         0
         0         0         0         0         0         0         0         0
         0         0         0         0         0         0         0         0
         0         0         0         0         0         0         0         0
         0         0         0         0         0         0         0         0
         0         0         0         0         0         0         0         0
         0         0         0         0         0         0         0         0
         0         0         0         0         0         0         0         0
         0         0         0         0         0         0         0         0
         0         0         0         0         0         0         0         0
         0         0         0         0         0         0         0         0
         0         0         0         0         0         0         0         0
         0         0         0         0         0         0         0         0
         0         0         0         0         0         0         0         0
         0         0         0         0         0         0         0         0
         0         0         0         0         0         0         0         0
         0         0         0         0         0         0         0         0
         0         0         0         0         0         0         0         0
         0         0         0         0         0         0         0         0
         0         0         0         0         0         0         0         0
         0         0         0         0         0         0         0         0
         0         0         0         0         0         0         0         0
         0         0         0         0         0         0         0         0
         0         0         0         0         0         0         0         0
         0         0         0         0         0         0         0         0
         0         0         0         0         0         0         0         0
         0         0         0         0         0         0         0         0
         0         0         0         0         0         0         0         0
         0         0         0         0         0         0         0         0
         0         0         0         0         0         0         0         0
         0         0         0         0         0         0         0         0
         0         0         0         0         0         0         0         0
         0         0         0         0         0         0         0         0
         0         0         0         0         0         0         0         0
         0         0         0         0         0         0         0         0
         0         0         0         0         0         0         0         0
         0         0         0         0         0         0         0         0
         0         0         0         0         0         0         0         0
         0         0         0         0         0         0         0         0
         0         0         0         0         0         0         0         0
         0         0         0         0         0         0         0         0
         0         0         0         0         0         0         0         0
         0         0         0         0         0         0         0         0
         0         0         0         0         0         0         0         0
         0         0         0         0         0         0         0         0
         0         0         0         0         0         0         0         0
         0         0         0         0         0         0         0         0
         0         0         0         0         0         0         0         0
         0         0         0         0         0         0         0         0
         0         0         0         0         0         0         0         0
         0         0         0         0         0         0         0         0
         0         0         0         0         0         0         0         0
         0         0         0         0         0         0         0         0
         0         0         0         0         0         0         0         0
         0         0         0         0         0         0         0         0
         0         0         0         0         0         0         0         0
         0         0         0         0         0         0         0         0
         0         0         0         0         0         0         0         0
         0         0         0         0         0         0         0         0
         0         0         0         0         0         0         0         0
         0         0         0         0         0         0         0         0
         0         0         0         0         0         0         0         0
         0         0         0         0         0         0         0         0
         0         0         0         0         0         0         0         0
         0         0         0         0         0         0         0         0
         0         0         0         0         0         0         0         0
         0         0         0         0         0         0         0         0
         0         0         0         0         0         0         0         0
         0         0         0         0         0         0         0         0
         0         0         0         0         0         0         0         0
         0         0         0         0         0         0         0         0
         0         0         0         0         0         0         0         0
         0         0         0         0         0         0         0         0
         0         0         0         0         0         0         0         0
         0         0         0         0         0         0         0         0
         0         0         0         0         0         0         0         0
         0         0         0         0         0         0         0         0
         0         0         0         0         0         0         0         0
         0         0         0         0         0         0         0         0
         0         0         0         0         0         0         0         0
         0         0         0         0         0         0         0         0
         0         0         0         0         0         0         0         0
         0         0         0         0         0         0         0         0
         0         0         0         0         0         0         0         0
         0         0         0         0         0         0         0         0
         0         0         0         0         0         0         0         0
         0         0         0         0         0         0         0         0
         0         0         0         0         0         0         0         0
         0         0         0         0         0         0         0         0
         0         0         0         0         0         0         0         0
         0         0         0         0         0         0         0         0
         0         0         0         0         0         0         0         0
         0         0         0         0         0         0         0         0
         0         0         0         0         0         0         0         0
         0         0         0         0         0         0         0         0
         0         0         0         0         0         0         0         0
         0         0         0         0         0         0         0         0
         0         0         0         0         0         0         0         0
         0         0         0         0         0         0         0         0
         0         0         0         0         0         0         0         0
         0         0         0         0         0         0         0         0
         0         0         0         0         0         0         0         0
         0         0         0         0         0         0         0         0
         0         0         0         0         0         0         0         0
         0         0         0         0         0         0         0         0
         0         0         0         0         0         0         0         0
         0         0         0         0         0         0         0         0
         0         0         0         0         0         0         0         0
         0         0         0         0         0         0         0         0
         0         0         0         0         0         0         0         0
         0         0         0         0         0         0         0         0
         0         0         0         0         0         0         0         0
         0         0         0         0         0         0         0         0
         0         0         0         0         0         0         0         0
         0         0         0         0         0         0         0         0
         0         0         0         0         0         0         0         0
         0         0         0         0         0         0         0         0
         0         0         0         0         0         0         0         0
         0         0         0         0         0         0         0         0
         0         0         0         0         0         0         0         0
         0         0         0         0         0         0         0         0
         0         0         0         0         0         0         0         0
         0         0         0         0         0         0         0         0
         0         0         0         0         0         0         0         0
         0         0         0         0         0         0         0         0
         0         0         0         0         0         0         0         0
         0         0         0         0         0         0         0         0
         0         0         0         0         0         0         0         0
         0         0         0         0         0         0         0         0
         0         0         0         0         0         0         0         0
         0         0         0         0         0         0         0         0
         0         0         0         0         0         0         0         0
         0         0         0         0         0         0         0         0
         0         0         0         0         0         0         0         0
         0         0         0         0         0         0         0         0
         0         0         0         0         0         0         0         0
         0         0         0         0         0         0         0         0
         0         0         0         0         0         0         0         0
         0         0         0         0         0         0         0         0
         0         0         0         0         0         0         0         0
         0         0         0         0         0         0         0         0
         0         0         0         0         0         0         0         0
         0         0         0         0         0         0         0         0
         0         0         0         0         0         0         0         0
         0         0         0         0         0         0         0         0
         0         0         0         0         0         0         0         0
         0         0         0         0         0         0         0         0
         0         0         0         0         0         0         0         0
         0         0         0         0         0         0         0         0
         0         0         0         0         0         0         0         0
         0         0         0         0         0         0         0         0
         0         0         0         0         0         0         0         0
         0         0         0         0         0         0         0         0
         0         0         0         0         0         0         0         0
         0         0         0         0         0         0         0         0
         0         0         0         0         0         0         0         0
         0         0         0         0         0         0         0         0
         0         0         0         0         0         0         0         0
         0         0         0         0         0         0         0         0
         0         0         0         0         0         0         0         0
         0         0         0         0         0         0         0         0
         0         0         0         0         0         0         0         0
         0         0         0         0         0         0         0         0
         0         0         0         0         0         0         0         0
         0         0         0         0         0         0         0         0
         0         0         0         0         0         0         0         0
         0         0         0         0         0         0         0         0
         0         0         0         0         0         0         0         0
         0         0         0         0         0         0         0         0
         0         0         0         0         0         0         0         0
         0         0         0         0         0         0         0         0
         0         0         0         0         0         0         0         0
         0         0         0         0         0         0         0         0
         0         0         0         0         0         0         0         0
         0         0         0         0         0         0         0         0
         0         0         0         0         0         0         0         0
         0         0         0         0         0         0         0         0
         0         0         0         0         0         0         0         0
         0         0         0         0         0         0         0         0
         0         0         0         0         0         0         0         0
         0         0         0         0         0         0         0         0
         0         0         0         0         0         0         0         0
         0         0         0         0         0         0         0         0
         0         0         0         0         0         0         0         0
         0         0         0         0         0         0         0         0
         0         0         0         0         0         0         0         0
         0         0         0         0         0         0         0         0
         0         0         0         0         0         0         0         0
         0         0         0         0         0         0         0         0
         0         0         0         0         0         0         0         0
         0         0         0         0         0         0         0         0
         0         0         0         0         0         0         0         0
         0         0         0         0         0         0         0         0
         0         0         0         0         0         0         0         0
         0         0         0         0         0         0         0         0
         0         0         0         0         0         0         0         0
         0         0         0         0         0         0         0         0
         0         0         0         0         0         0         0         0
         0         0         0         0         0         0         0         0
         0         0         0         0         0         0         0         0
         0         0         0         0         0         0         0         0
         0         0         0         0         0         0         0         0
         0         0         0         0         0         0         0         0
         0         0         0         0         0         0         0         0
         0         0         0         0         0         0         0         0
         0         0         0         0         0         0         0         0
         0         0         0         0         0         0         0         0
         0         0         0         0         0         0         0         0
         0         0         0         0         0         0         0         0
         0         0         0         0         0         0         0         0
         0         0         0         0         0         0         0         0
         0         0         0         0         0         0         0         0
         0         0         0         0         0         0         0         0
         0         0         0         0         0         0         0         0
         0         0         0         0         0         0         0         0
         0         0         0         0         0         0         0         0
         0         0         0         0         0         0         0         0
         0         0         0         0         0         0         0         0
         0         0         0         0         0         0         0         0
         0         0         0         0         0         0         0         0
         0         0         0         0         0         0         0         0
         0         0         0         0         0         0         0         0
         0         0         0         0         0         0         0         0
         0         0         0         0         0         0         0         0
         0         0         0         0         0         0         0         0
         0         0         0         0         0         0         0         0
         0         0         0         0         0         0         0         0
         0         0         0         0         0         0         0         0
         0         0         0         0         0         0         0         0
         0         0         0         0         0         0         0         0
         0         0         0         0         0         0         0         0
         0         0         0         0         0         0         0         0
         0         0         0         0         0         0         0         0
         0         0         0         0         0         0         0         0
         0         0         0         0         0         0         0         0
         0         0         0         0         0         0         0         0
         0         0         0         0         0         0         0         0
         0         0         0         0         0         0         0         0
         0         0         0         0         0         0         0         0
         0         0         0         0         0         0         0         0
         0         0         0         0         0         0         0         0
         0         0         0         0         0         0         0         0
         0         0         0         0         0         0         0         0
         0         0         0         0         0         0         0         0
         0         0         0         0         0         0         0         0
         0         0         0         0         0         0         0         0
         0         0         0         0         0         0         0         0
         0         0         0         0         0         0         0         0
         0         0         0         0         0         0         0         0
         0         0         0         0         0         0         0         0
         0         0         0         0         0         0         0         0
         0         0         0         0         0         0         0         0
         0         0         0         0         0         0         0         0
         0         0         0         0         0         0         0         0
         0         0         0         0         0         0         0         0
         0         0         0         0         0         0         0         0
         0         0         0         0         0         0         0         0
         0         0         0         0         0         0         0         0
         0         0         0         0         0         0         0         0
         0         0         0         0         0         0         0         0
         0         0         0         0         0         0         0         0
         0         0         0         0         0         0         0         0
         0         0         0         0         0         0         0         0
         0         0         0         0         0         0         0         0
         0         0         0         0         0         0         0         0
         0         0         0         0         0         0         0         0
         0         0         0         0         0         0         0         0
         0         0         0         0         0         0         0         0
         0         0         0         0         0         0         0         0
         0         0         0         0         0         0         0         0
         0         0         0         0         0         0         0         0
         0         0         0         0         0         0         0         0
         0         0         0         0         0         0         0         0
         0         0         0         0         0         0         0         0
         0         0         0         0         0         0         0         0
         0         0         0         0         0         0         0         0
         0         0         0         0         0         0         0         0
         0         0         0         0         0         0         0         0
         0         0         0         0         0         0         0         0
         0         0         0         0         0         0         0         0
         0         0         0         0         0         0         0         0
         0         0         0         0         0         0         0         0
         0         0         0         0         0         0         0         0
         0         0         0         0         0         0         0         0
         0         0         0         0         0         0         0         0
         0         0         0         0         0         0         0         0
         0         0         0         0         0         0         0         0
         0         0         0         0         0         0         0         0
         0         0         0         0         0         0         0         0
         0         0         0         0         0         0         0         0
         0         0         0         0         0         0         0         0
         0         0         0         0         0         0         0         0
         0         0         0         0         0         0         0         0
         0         0         0         0         0         0         0         0
         0         0         0         0         0         0         0         0
         0         0         0         0         0         0         0         0
         0         0         0         0         0         0         0         0
         0         0         0         0         0         0         0         0
         0         0         0         0         0         0         0         0
         0         0         0         0         0         0         0         0
         0         0         0         0         0         0         0         0
         0         0         0         0         0         0         0         0
         0         0         0         0         0         0         0         0
         0         0         0         0         0         0         0         0
         0         0         0         0         0         0         0         0
         0         0         0         0         0         0         0         0
         0         0         0         0         0         0         0         0
         0         0         0         0         0         0         0         0
         0         0         0         0         0         0         0         0
         0         0         0         0         0         0         0         0
         0         0         0         0         0         0         0         0
         0         0         0         0         0         0         0         0
         0         0         0         0         0         0         0         0
         0         0         0         0         0         0         0         0
         0         0         0         0         0         0         0         0
         0         0         0         0         0         0         0         0
         0         0         0         0         0         0         0         0
         0         0         0         0         0         0         0         0
         0         0         0         0         0         0         0         0
         0         0         0         0         0         0         0         0
         0         0         0         0         0         0         0         0
         0         0         0         0         0         0         0         0
         0         0         0         0         0         0         0         0
         0         0         0         0         0         0         0         0
         0         0         0         0         0         0         0         0
         0         0         0         0         0         0         0         0
         0         0         0         0         0         0         0         0
         0         0         0         0         0         0         0         0
         0         0         0         0         0         0         0         0
         0         0         0         0         0         0         0         0
         0         0         0         0         0         0         0         0
         0         0         0         0         0         0         0         0
         0         0         0         0         0         0         0         0
         0         0         0         0         0         0         0         0
         0         0         0         0         0         0         0         0
         0         0         0         0         0         0         0         0
         0         0         0         0         0         0         0         0
         0         0         0         0         0         0         0         0
         0         0         0         0         0         0         0         0
         0         0         0         0         0         0         0         0
         0         0         0         0         0         0         0         0
         0         0         0         0         0         0         0         0
         0         0         0         0         0         0         0         0
         0         0         0         0         0         0         0         0
         0         0         0         0         0         0         0         0
         0         0         0         0         0         0         0         0
         0         0         0         0         0         0         0         0
         0         0         0         0         0         0         0         0
         0         0         0         0         0         0         0         0
         0         0         0         0         0         0         0         0
         0         0         0         0         0         0         0         0
         0         0         0         0         0         0         0         0
         0         0         0         0         0         0         0         0
         0         0         0         0         0         0         0         0
         0         0         0         0         0         0         0         0
         0         0         0         0         0         0         0         0
         0         0         0         0         0         0         0         0
         0         0         0         0         0         0         0         0
         0         0         0         0         0         0         0         0
         0         0         0         0         0         0         0         0
         0         0         0         0         0         0         0         0
         0         0         0         0         0         0         0         0
         0         0         0         0         0         0         0         0
         0         0         0         0         0         0         0         0
         0         0         0         0         0         0         0         0
         0         0         0         0         0         0         0         0
         0         0         0         0         0         0         0         0
         0         0         0         0         0         0         0         0
         0         0         0         0         0         0         0         0
         0         0         0         0         0         0         0         0
         0         0         0         0         0         0         0         0
         0         0         0         0         0         0         0         0
         0         0         0         0         0         0         0         0
         0         0         0         0         0         0         0         0
         0         0         0         0         0         0         0         0
         0         0         0         0         0         0         0         0
         0         0         0         0         0         0         0         0
         0         0         0         0         0         0         0         0
         0         0         0         0         0         0         0         0
         0         0         0         0         0         0         0         0
         0         0         0         0         0         0         0         0
         0         0         0         0         0         0         0         0
         0         0         0         0         0         0         0         0
         0         0         0         0         0         0         0         0
         0         0         0         0         0         0         0         0
         0         0         0         0         0         0         0         0
         0         0         0         0         0         0         0         0
         0         0         0         0         0         0         0         0
         0         0         0         0         0         0         0         0
         0         0         0         0         0         0         0         0
         0         0         0         0         0         0         0         0
         0         0         0         0         0         0         0         0
         0         0         0         0         0         0         0         0
         0         0         0         0         0         0         0         0
         0         0         0         0         0         0         0         0
         0         0         0         0         0         0         0         0
         0         0         0         0         0         0         0         0
         0         0         0         0         0         0         0         0
         0         0         0         0         0         0         0         0
         0         0         0         0         0         0         0         0
         0         0         0         0         0         0         0         0
         0         0         0         0         0         0         0         0
         0         0         0         0         0         0         0         0
         0         0         0         0         0         0         0         0
         0         0         0         0         0         0         0         0
         0         0         0         0         0         0         0         0
         0         0         0         0         0         0         0         0
         0         0         0         0         0         0         0         0
         0         0         0         0         0         0         0         0
         0         0         0         0         0         0         0         0
         0         0         0         0         0         0         0         0
         0         0         0         0         0         0         0         0
         0         0         0         0         0         0         0         0
         0         0         0         0         0         0         0         0
         0         0         0         0         0         0         0         0
         0         0         0         0         0         0         0         0
         0         0         0         0         0         0         0         0
         0         0         0         0         0         0         0         0
         0         0         0         0         0         0         0         0
         0         0         0         0         0         0         0         0
         0         0         0         0         0         0         0         0
         0         0         0         0         0         0         0         0
         0         0         0         0         0         0         0         0
         0         0         0         0         0         0         0         0
         0         0         0         0         0         0         0         0
         0         0         0         0         0         0         0         0
         0         0         0         0         0         0         0         0
         0         0         0         0         0         0         0         0
         0         0         0         0         0         0         0         0
         0         0         0         0         0         0         0         0
         0         0         0         0         0         0         0         0
         0         0         0         0         0         0         0         0
         0         0         0         0         0         0         0         0
         0         0         0         0         0         0         0         0
         0         0         0         0         0         0         0         0
         0         0         0         0         0         0         0         0
         0         0         0         0         0         0         0         0
         0         0         0         0         0         0         0         0
         0         0         0         0         0         0         0         0
         0         0         0         0         0         0         0         0
         0         0         0         0         0         0         0         0
         0         0         0         0         0         0         0         0
         0         0         0         0         0         0         0         0
         0         0         0         0         0         0         0         0
         0         0         0         0         0         0         0         0
         0         0         0         0         0         0         0         0
         0         0         0         0         0         0         0         0
         0         0         0         0         0         0         0         0
         0         0         0         0         0         0         0         0
         0         0         0         0         0         0         0         0
         0         0         0         0         0         0         0         0
         0         0         0         0         0         0         0         0
         0         0         0         0         0         0         0         0
         0         0         0         0         0         0         0         0
         0         0         0         0         0         0         0         0
         0         0         0         0         0         0         0         0
         0         0         0         0         0         0         0         0
         0         0         0         0         0         0         0         0
         0         0         0         0         0         0         0         0
         0         0         0         0         0         0         0         0
         0         0         0         0         0         0         0         0
         0         0         0         0         0         0         0         0
         0         0         0         0         0         0         0         0
         0         0         0         0         0         0         0         0
         0         0         0         0         0         0         0         0
         0         0         0         0         0         0         0         0
         0         0         0         0         0         0         0         0
         0         0         0         0         0         0         0         0
         0         0         0         0         0         0         0         0
         0         0         0         0         0         0         0         0
         0         0         0         0         0         0         0         0
         0         0         0         0         0         0         0         0
         0         0         0         0         0         0         0         0
         0         0         0         0         0         0         0         0
         0         0         0         0         0         0         0         0
         0         0         0         0         0         0         0         0
         0         0         0         0         0         0         0         0
         0         0         0         0         0         0         0         0
         0         0         0         0         0         0         0         0
         0         0         0         0         0         0         0         0
         0         0         0         0         0         0         0         0
         0         0         0         0         0         0         0         0
         0         0         0         0         0         0         0         0
         0         0         0         0         0         0         0         0
         0         0         0         0         0         0         0         0
         0         0         0         0         0         0         0         0
         0         0         0         0         0         0         0         0
         0         0         0         0         0         0         0         0
         0         0         0         0         0         0         0         0
         0         0         0         0         0         0         0         0
         0         0         0         0         0         0         0         0
         0         0         0         0         0         0         0         0
         0         0         0         0         0         0         0         0
         0         0         0         0         0         0         0         0
         0         0         0         0         0         0         0         0
         0         0         0         0         0         0         0         0
         0         0         0         0         0         0         0         0
         0         0         0         0         0         0         0         0
         0         0         0         0         0         0         0         0
         0         0         0         0         0         0         0         0
         0         0         0         0         0         0         0         0
         0         0         0         0         0         0         0         0
         0         0         0         0         0         0         0         0
         0         0         0         0         0         0         0         0
         0         0         0         0         0         0         0         0
         0         0         0         0         0         0         0         0
         0         0         0         0         0         0         0         0
         0         0         0         0         0         0         0         0
         0         0         0         0         0         0         0         0
         0         0         0         0         0         0         0         0
         0         0         0         0         0         0         0         0
         0         0         0         0         0         0         0         0
         0         0         0         0         0         0         0         0
         0         0         0         0         0         0         0         0
         0         0         0         0         0         0         0         0
         0         0         0         0         0         0         0         0
         0         0         0         0         0         0         0         0
         0         0         0         0         0         0         0         0
         0         0         0         0         0         0         0         0
         0         0         0         0         0         0         0         0
         0         0         0         0         0         0         0         0
         0         0         0         0         0         0         0         0
         0         0         0         0         0         0         0         0
         0         0         0         0         0         0         0         0
         0         0         0         0         0         0         0         0
         0         0         0         0         0         0         0         0
         0         0         0         0         0         0         0         0
         0         0         0         0         0         0         0         0
         0         0         0         0         0         0         0         0
         0         0         0         0         0         0         0         0
         0         0         0         0         0         0         0         0
         0         0         0         0         0         0         0         0
         0         0         0         0         0         0         0         0
         0         0         0         0         0         0         0         0
         0         0         0         0         0         0         0         0
         0         0         0         0         0         0         0         0
         0         0         0         0         0         0         0         0
         0         0         0         0         0         0         0         0
         0         0         0         0         0         0         0         0
         0         0         0         0         0         0         0         0
         0         0         0         0         0         0         0         0
         0         0         0         0         0         0         0         0
         0         0         0         0         0         0         0         0
         0         0         0         0         0         0         0         0
         0         0         0         0         0         0         0         0
         0         0         0         0         0         0         0         0
         0         0         0         0         0         0         0         0
         0         0         0         0         0         0         0         0
         0         0         0         0         0         0         0         0
         0         0         0         0         0         0         0         0
         0         0         0         0         0         0         0         0
         0         0         0         0         0         0         0         0
         0         0         0         0         0         0         0         0
         0         0         0         0         0         0         0         0
         0         0         0         0         0         0         0         0
         0         0         0         0         0         0         0         0
         0         0         0         0         0         0         0         0
         0         0         0         0         0         0         0         0
         0         0         0         0         0         0         0         0
         0         0         0         0         0         0         0         0
         0         0         0         0         0         0         0         0
         0         0         0         0         0         0         0         0
         0         0         0         0         0         0         0         0
         0         0         0         0         0         0         0         0
         0         0         0         0         0         0         0         0
         0         0         0         0         0         0         0         0
         0         0         0         0         0         0         0         0
         0         0         0         0         0         0         0         0
         0         0         0         0         0         0         0         0
         0         0         0         0         0         0         0         0
         0         0         0         0         0         0         0         0
         0         0         0         0         0         0         0         0
         0         0         0         0         0         0         0         0
         0         0         0         0         0         0         0         0
         0         0         0         0         0         0         0         0
         0         0         0         0         0         0         0         0
         0         0         0         0         0         0         0         0
         0         0         0         0         0         0         0         0
         0         0         0         0         0         0         0         0
         0         0         0         0         0         0         0         0
         0         0         0         0         0         0         0         0
         0         0         0         0         0         0         0         0
         0         0         0         0         0         0         0         0
         0         0         0         0         0         0         0         0
         0         0         0         0         0         0         0         0
         0         0         0         0         0         0         0         0
         0         0         0         0         0         0         0         0
         0         0         0         0         0         0         0         0
         0         0         0         0         0         0         0         0
         0         0         0         0         0         0         0         0
         0         0         0         0         0         0         0         0
         0         0         0         0         0         0         0         0
         0         0         0         0         0         0         0         0
         0         0         0         0         0         0         0         0
         0         0         0         0         0         0         0         0
         0         0         0         0         0         0         0         0
         0         0         0         0         0         0         0         0
         0         0         0         0         0         0         0         0
         0         0         0         0         0         0         0         0
         0         0         0         0         0         0         0         0
         0         0         0         0         0         0         0         0
         0         0         0         0         0         0         0         0
         0         0         0         0         0         0         0         0
         0         0         0         0         0         0         0         0
         0         0         0         0         0         0         0         0
         0         0         0         0         0         0         0         0
         0         0         0         0         0         0         0         0
         0         0         0         0         0         0         0         0
         0         0         0         0         0         0         0         0
         0         0         0         0         0         0         0         0
         0         0         0         0         0         0         0         0
         0         0         0         0         0         0         0         0
         0         0         0         0         0         0         0         0
         0         0         0         0         0         0         0         0
         0         0         0         0         0         0         0         0
         0         0         0         0         0         0         0         0
         0         0         0         0         0         0         0         0
         0         0         0         0         0         0         0         0
         0         0         0         0         0         0         0         0
         0         0         0         0         0         0         0         0
         0         0         0         0         0         0         0         0
         0         0         0         0         0         0         0         0
         0         0         0         0         0         0         0         0
         0         0         0         0         0         0         0         0
         0         0         0         0         0         0         0         0
         0         0         0         0         0         0         0         0
         0         0         0         0         0         0         0         0
         0         0         0         0         0         0         0         0
         0         0         0         0         0         0         0         0
         0         0         0         0         0         0         0         0
         0         0         0         0         0         0         0         0
         0         0         0         0         0         0         0         0
         0         0         0         0         0         0         0         0
         0         0         0         0         0         0         0         0
         0         0         0         0         0         0         0         0
         0         0         0         0         0         0         0         0
         0         0         0         0         0         0         0         0
         0         0         0         0         0         0         0         0
         0         0         0         0         0         0         0         0
         0         0         0         0         0         0         0         0
         0         0         0         0         0         0         0         0
         0         0         0         0         0         0         0         0
         0         0         0         0         0         0         0         0
         0         0         0         0         0         0         0         0
         0         0         0         0         0         0         0         0
         0         0         0         0         0         0         0         0
         0         0         0         0         0         0         0         0
         0         0         0         0         0         0         0         0
         0         0         0         0         0         0         0         0
         0         0         0         0         0         0         0         0
         0         0         0         0         0         0         0         0
         0         0         0         0         0         0         0         0
         0         0         0         0         0         0         0         0
         0         0         0         0         0         0         0         0
         0         0         0         0         0         0         0         0
         0         0         0         0         0         0         0         0
         0         0         0         0         0         0         0         0
         0         0         0         0         0         0         0         0
         0         0         0         0         0         0         0         0
         0         0         0         0         0         0         0         0
         0         0         0         0         0         0         0         0
         0         0         0         0         0         0         0         0
         0         0         0         0         0         0         0         0
         0         0         0         0         0         0         0         0
         0         0         0         0         0         0         0         0
         0         0         0         0         0         0         0         0
         0         0         0         0         0         0         0         0
         0         0         0         0         0         0         0         0
         0         0         0         0         0         0         0         0
         0         0         0         0         0         0         0         0
         0         0         0         0         0         0         0         0
         0         0         0         0         0         0         0         0
         0         0         0         0         0         0         0         0
         0         0         0         0         0         0         0         0
         0         0         0         0         0         0         0         0
         0         0         0         0         0         0         0         0
         0         0         0         0         0         0         0         0
         0         0         0         0         0         0         0         0
         0         0         0         0         0         0         0         0
         0         0         0         0         0         0         0         0
         0         0         0         0         0         0         0         0
         0         0         0         0         0         0         0         0
         0         0         0         0         0         0         0         0
         0         0         0         0         0         0         0         0
         0         0         0         0         0         0         0         0
         0         0         0         0         0         0         0         0
         0         0         0         0         0         0         0         0
         0         0         0         0         0         0         0         0
         0         0         0         0         0         0         0         0
         0         0         0         0         0         0         0         0
         0         0         0         0         0         0         0         0
         0         0         0         0         0         0         0         0
         0         0         0         0         0         0         0         0
         0         0         0         0         0         0         0         0
         0         0         0         0         0         0         0         0
         0         0         0         0         0         0         0         0
         0         0         0         0         0         0         0         0
         0         0         0         0         0         0         0         0
         0         0         0         0         0         0         0         0
         0         0         0         0         0         0         0         0
         0         0         0         0         0         0         0         0
         0         0         0         0         0         0         0         0
         0         0         0         0         0         0         0         0
         0         0         0         0         0         0         0         0
         0         0         0         0         0         0         0         0
         0         0         0         0         0         0         0         0
         0         0         0         0         0         0         0         0
         0         0         0         0         0         0         0         0
         0         0         0         0         0         0         0         0
         0         0         0         0         0         0         0         0
         0         0         0         0         0         0         0         0
         0         0         0         0         0         0         0         0
         0         0         0         0         0         0         0         0
         0         0         0         0         0         0         0         0
         0         0         0         0         0         0         0         0
         0         0         0         0         0         0         0         0
         0         0         0         0         0         0         0         0
         0         0         0         0         0         0         0         0
         0         0         0         0         0         0         0         0
         0         0         0         0         0         0         0         0
         0         0         0         0         0         0         0         0
         0         0         0         0         0         0         0         0
         0         0         0         0         0         0         0         0
         0         0         0         0         0         0         0         0
         0         0         0         0         0         0         0         0
         0         0         0         0         0         0         0         0
         0         0         0         0         0         0         0         0
         0         0         0         0         0         0         0         0
         0         0         0         0         0         0         0         0
         0         0         0         0         0         0         0         0
         0         0         0         0         0         0         0         0
         0         0         0         0         0         0         0         0
         0         0         0         0         0         0         0         0
         0         0         0         0         0         0         0         0
         0         0         0         0         0         0         0         0
         0         0         0         0         0         0         0         0
         0         0         0         0         0         0         0         0
         0         0         0         0         0         0         0         0
         0         0         0         0         0         0         0         0
         0         0         0         0         0         0         0         0
         0         0         0         0         0         0         0         0
         0         0         0         0         0         0         0         0
         0         0         0         0         0         0         0         0
         0         0         0         0         0         0         0         0
         0         0         0         0         0         0         0         0
         0         0         0         0         0         0         0         0
         0         0         0         0         0         0         0         0
         0         0         0         0         0         0         0         0
         0         0         0         0         0         0         0         0
         0         0         0         0         0         0         0         0
         0         0         0         0         0         0         0         0
         0         0         0         0         0         0         0         0
         0         0         0         0         0         0         0         0
         0         0         0         0         0         0         0         0
         0         0         0         0         0         0         0         0
         0         0         0         0         0         0         0         0
         0         0         0         0         0         0         0         0
         0         0         0         0         0         0         0         0
         0         0         0         0         0         0         0         0
         0         0         0         0         0         0         0         0
         0         0         0         0         0         0         0         0
         0         0         0         0         0         0         0         0
         0         0         0         0         0         0         0         0
         0         0         0         0         0         0         0         0
         0         0         0         0         0         0         0         0
         0         0         0         0         0         0         0         0
         0         0         0         0         0         0         0         0
         0         0         0         0         0         0         0         0
         0         0         0         0         0         0         0         0
         0         0         0         0         0         0         0         0
         0         0         0         0         0         0         0         0
         0         0         0         0         0         0         0         0
         0         0         0         0         0         0         0         0
         0         0         0         0         0         0         0         0
         0         0         0         0         0         0         0         0
         0         0         0         0         0         0         0         0
         0         0         0         0         0         0         0         0
         0         0         0         0         0         0         0         0
         0         0         0         0         0         0         0         0
         0         0         0         0         0         0         0         0
         0         0         0         0         0         0         0         0
         0         0         0         0         0         0         0         0
         0         0         0         0         0         0         0         0
         0         0         0         0         0         0         0         0
         0         0         0         0         0         0         0         0
         0         0         0         0         0         0         0         0
         0         0         0         0         0         0         0         0
         0         0         0         0         0         0         0         0
         0         0         0         0         0         0         0         0
         0         0         0         0         0         0         0         0
         0         0         0         0         0         0         0         0
         0         0         0         0         0         0         0         0
         0         0         0         0         0         0         0         0
         0         0         0         0         0         0         0         0
         0         0         0         0         0         0         0         0
         0         0         0         0         0         0         0         0
         0         0         0         0         0         0         0         0
         0         0         0         0         0         0         0         0
         0         0         0         0         0         0         0         0
         0         0         0         0         0         0         0         0
         0         0         0         0         0         0         0         0
         0         0         0         0         0         0         0         0
         0         0         0         0         0         0         0         0
         0         0         0         0         0         0         0         0
         0         0         0         0         0         0         0         0
         0         0         0         0         0         0         0         0
         0         0         0         0         0         0         0         0
         0         0         0         0         0         0         0         0
         0         0         0         0         0         0         0         0
         0         0         0         0         0         0         0         0
         0         0         0         0         0         0         0         0
         0         0         0         0         0         0         0         0
         0         0         0         0         0         0         0         0
         0         0         0         0         0         0         0         0
         0         0         0         0         0         0         0         0
         0         0         0         0         0         0         0         0
         0         0         0         0         0         0         0         0
         0         0         0         0         0         0         0         0
         0         0         0         0         0         0         0         0
         0         0         0         0         0         0         0         0
         0         0         0         0         0         0         0         0
         0         0         0         0         0         0         0         0
         0         0         0         0         0         0         0         0
         0         0         0         0         0         0         0         0
         0         0         0         0         0         0         0         0
         0         0         0         0         0         0         0         0
         0         0         0         0         0         0         0         0
         0         0         0         0         0         0         0         0
         0         0         0         0         0         0         0         0
         0         0         0         0         0         0         0         0
         0         0         0         0         0         0         0         0
         0         0         0         0         0         0         0         0
         0         0         0         0         0         0         0         0
         0         0         0         0         0         0         0         0
         0         0         0         0         0         0         0         0
         0         0         0         0         0         0         0         0
         0         0         0         0         0         0         0         0
         0         0         0         0         0         0         0         0
         0         0         0         0         0         0         0         0
         0         0         0         0         0         0         0         0
         0         0         0         0         0         0         0         0
         0         0         0         0         0         0         0         0
         0         0         0         0         0         0         0         0
         0         0         0         0         0         0         0         0
         0         0         0         0         0         0         0         0
         0         0         0         0         0         0         0         0
         0         0         0         0         0         0         0         0
         0         0         0         0         0         0         0         0
         0         0         0         0         0         0         0         0
         0         0         0         0         0         0         0         0
         0         0         0         0         0         0         0         0
         0         0         0         0         0         0         0         0
         0         0         0         0         0         0         0         0
         0         0         0         0         0         0         0         0
         0         0         0         0         0         0         0         0
         0         0         0         0         0         0         0         0
         0         0         0         0         0         0         0         0
         0         0         0         0         0         0         0         0
         0         0         0         0         0         0         0         0
         0         0         0         0         0         0         0         0
         0         0         0         0         0         0         0         0
         0         0         0         0         0         0         0         0
         0         0         0         0         0         0         0         0
         0         0         0         0         0         0         0         0
         0         0         0         0         0         0         0         0
         0         0         0         0         0         0         0         0
         0         0         0         0         0         0         0         0
         0         0         0         0         0         0         0         0
         0         0         0         0         0         0         0         0
         0         0         0         0         0         0         0         0
         0         0         0         0         0         0         0         0
         0         0         0         0         0         0         0         0
         0         0         0         0         0         0         0         0
         0         0         0         0         0         0         0         0
         0         0         0         0         0         0         0         0
         0         0         0         0         0         0         0         0
         0         0         0         0         0         0         0         0
         0         0         0         0         0         0         0         0
         0         0         0         0         0         0         0         0
         0         0         0         0         0         0         0         0
         0         0         0         0         0         0         0         0
         0         0         0         0         0         0         0         0
         0         0         0         0         0         0         0         0
         0         0         0         0         0         0         0         0
         0         0         0         0         0         0         0         0
         0         0         0         0         0         0         0         0
         0         0         0         0         0         0         0         0
         0         0         0         0         0         0         0         0
         0         0         0         0         0         0         0         0
         0         0         0         0         0         0         0         0
         0         0         0         0         0         0         0         0
         0         0         0         0         0         0         0         0
         0         0         0         0         0         0         0         0
         0         0         0         0         0         0         0         0
         0         0         0         0         0         0         0         0
         0         0         0         0         0         0         0         0
         0         0         0         0         0         0         0         0
         0         0         0         0         0         0         0         0
         0         0         0         0         0         0         0         0
         0         0         0         0         0         0         0         0
         0         0         0         0         0         0         0         0
         0         0         0         0         0         0         0         0
         0         0         0         0         0         0         0         0
         0         0         0         0         0         0         0         0
         0         0         0         0         0         0         0         0
         0         0         0         0         0         0         0         0
         0         0         0         0         0         0         0         0
         0         0         0         0         0         0         0         0
         0         0         0         0         0         0         0         0
         0         0         0         0         0         0         0         0
         0         0         0         0         0         0         0         0
         0         0         0         0         0         0         0         0
         0         0         0         0         0         0         0         0
         0         0         0         0         0         0         0         0
         0         0         0         0         0         0         0         0
         0         0         0         0         0         0         0         0
         0         0         0         0         0         0         0         0
         0         0         0         0         0         0         0         0
         0         0         0         0         0         0         0         0
         0         0         0         0         0         0         0         0
         0         0         0         0         0         0         0         0
         0         0         0         0         0         0         0         0
         0         0         0         0         0         0         0         0
         0         0         0         0         0         0         0         0
         0         0         0         0         0         0         0         0
         0         0         0         0         0         0         0         0
         0         0         0         0         0         0         0         0
         0         0         0         0         0         0         0         0
         0         0         0         0         0         0         0         0
         0         0         0         0         0         0         0         0
         0         0         0         0         0         0         0         0
         0         0         0         0         0         0         0         0
         0         0         0         0         0         0         0         0
         0         0         0         0         0         0         0         0
         0         0         0         0         0         0         0         0
         0         0         0         0         0         0         0         0
         0         0         0         0         0         0         0         0
         0         0         0         0         0         0         0         0
         0         0         0         0         0         0         0         0
         0         0         0         0         0         0         0         0
         0         0         0         0         0         0         0         0
         0         0         0         0         0         0         0         0
         0         0         0         0         0         0         0         0
         0         0         0         0         0         0         0         0
         0         0         0         0         0         0         0         0
         0         0         0         0         0         0         0         0
         0         0         0         0         0         0         0         0
         0         0         0         0         0         0         0         0
         0         0         0         0         0         0         0         0
         0         0         0         0         0         0         0         0
         0         0         0         0         0         0         0         0
         0         0         0         0         0         0         0         0
         0         0         0         0         0         0         0         0
         0         0         0         0         0         0         0         0
         0         0         0         0         0         0         0         0
         0         0         0         0         0         0         0         0
         0         0         0         0         0         0         0         0
         0         0         0         0         0         0         0         0
         0         0         0         0         0         0         0         0
         0         0         0         0         0         0         0         0
         0         0         0         0         0         0         0         0
         0         0         0         0         0         0         0         0
         0         0         0         0         0         0         0         0
         0         0         0         0         0         0         0         0
         0         0         0         0         0         0         0         0
         0         0         0         0         0         0         0         0
         0         0         0         0         0         0         0         0
         0         0         0         0         0         0         0         0
         0         0         0         0         0         0         0         0
         0         0         0         0         0         0         0         0
         0         0         0         0         0         0         0         0
         0         0         0         0         0         0         0         0
         0         0         0         0         0         0         0         0
         0         0         0         0         0         0         0         0
         0         0         0         0         0         0         0         0
         0         0         0         0         0         0         0         0
         0         0         0         0         0         0         0         0
         0         0         0         0         0         0         0         0
         0         0         0         0         0         0         0         0
         0         0         0         0         0         0         0         0
         0         0         0         0         0         0         0         0
         0         0         0         0         0         0         0         0
         0         0         0         0         0         0         0         0
         0         0         0         0         0         0         0         0
         0         0         0         0         0         0         0         0
         0         0         0         0         0         0         0         0
         0         0         0         0         0         0         0         0
         0         0         0         0         0         0         0         0
         0         0         0         0         0         0         0         0
         0         0         0         0         0         0         0         0
         0         0         0         0         0         0         0         0
         0         0         0         0         0         0         0         0
         0         0         0         0         0         0         0         0
         0         0         0         0         0         0         0         0
         0         0         0         0         0         0         0         0
         0         0         0         0         0         0         0         0
         0         0         0         0         0         0         0         0
         0         0         0         0         0         0         0         0
         0         0         0         0         0         0         0         0
         0         0         0         0         0         0         0         0
         0         0         0         0         0         0         0         0
         0         0         0         0         0         0         0         0
         0         0         0         0         0         0         0         0
         0         0         0         0         0         0         0         0
         0         0         0         0         0         0         0         0
         0         0         0         0         0         0         0         0
         0         0         0         0         0         0         0         0
         0         0         0         0         0         0         0         0
         0         0         0         0         0         0         0         0
         0         0         0         0         0         0         0         0
         0         0         0         0         0         0         0         0
         0         0         0         0         0         0         0         0
         0         0         0         0         0         0         0         0
         0         0         0         0         0         0         0         0
         0         0         0         0         0         0         0         0
         0         0         0         0         0         0         0         0
         0         0         0         0         0         0         0         0
         0         0         0         0         0         0         0         0
         0         0         0         0         0         0         0         0
         0         0         0         0         0         0         0         0
         0         0         0         0         0         0         0         0
         0         0         0         0         0         0         0         0
         0         0         0         0         0         0         0         0
         0         0         0         0         0         0         0         0
         0         0         0         0         0         0         0         0
         0         0         0         0         0         0         0         0
         0         0         0         0         0         0         0         0
         0         0         0         0         0         0         0         0
         0         0         0         0         0         0         0         0
         0         0         0         0         0         0         0         0
         0         0         0         0         0         0         0         0
         0         0         0         0         0         0         0         0
         0         0         0         0         0         0         0         0
         0         0         0         0         0         0         0         0
         0         0         0         0         0         0         0         0
         0         0         0         0         0         0         0         0
         0         0         0         0         0         0         0         0
         0         0         0         0         0         0         0         0
         0         0         0         0         0         0         0         0
         0         0         0         0         0         0         0         0
         0         0         0         0         0         0         0         0
         0         0         0         0         0         0         0         0
         0         0         0         0         0         0         0         0
         0         0         0         0         0         0         0         0
         0         0         0         0         0         0         0         0
         0         0         0         0         0         0         0         0
         0         0         0         0         0         0         0         0
         0         0         0         0         0         0         0         0
         0         0         0         0         0         0         0         0
         0         0         0         0         0         0         0         0
         0         0         0         0         0         0         0         0
         0         0         0         0         0         0         0         0
         0         0         0         0         0         0         0         0
         0         0         0         0         0         0         0         0
         0         0         0         0         0         0         0         0
         0         0         0         0         0         0         0         0
         0         0         0         0         0         0         0         0
         0         0         0         0         0         0         0         0
         0         0         0         0         0         0         0         0
         0         0         0         0         0         0         0         0
         0         0         0         0         0         0         0         0
         0         0         0         0         0         0         0         0
         0         0         0         0         0         0         0         0
         0         0         0         0         0         0         0         0
         0         0         0         0         0         0         0         0
         0         0         0         0         0         0         0         0
         0         0         0         0         0         0         0         0
         0         0         0         0         0         0         0         0
         0         0         0         0         0         0         0         0
         0         0         0         0         0         0         0         0
         0         0         0         0         0         0         0         0
         0         0         0         0         0         0         0         0
         0         0         0         0         0         0         0         0
         0         0         0         0         0         0         0         0
         0         0         0         0         0         0         0         0
         0         0         0         0         0         0         0         0
         0         0         0         0         0         0         0         0
         0         0         0         0         0         0         0         0
         0         0         0         0         0         0         0         0
         0         0         0         0         0         0         0         0
         0         0         0         0         0         0         0         0
         0         0         0         0         0         0         0         0
         0         0         0         0         0         0         0         0
         0         0         0         0         0         0         0         0
         0         0         0         0         0         0         0         0
         0         0         0         0         0         0         0         0
         0         0         0         0         0         0         0         0
         0         0         0         0         0         0         0         0
         0         0         0         0         0         0         0         0
         0         0         0         0         0         0         0         0
         0         0         0         0         0         0         0         0
         0         0         0         0         0         0         0         0
         0         0         0         0         0         0         0         0
         0         0         0         0         0         0         0         0
         0         0         0         0         0         0         0         0
         0         0         0         0         0         0         0         0
         0         0         0         0         0         0         0         0
         0         0         0         0         0         0         0         0
         0         0         0         0         0         0         0         0
         0         0         0         0         0         0         0         0
         0         0         0         0         0         0         0         0
         0         0         0         0         0         0         0         0
         0         0         0         0         0         0         0         0
         0         0         0         0         0         0         0         0
         0         0         0         0         0         0         0         0
         0         0         0         0         0         0         0         0
         0         0         0         0         0         0         0         0
         0         0         0         0         0         0         0         0
         0         0         0         0         0         0         0         0
         0         0         0         0         0         0         0         0
         0         0         0         0         0         0         0         0
         0         0         0         0         0         0         0         0
         0         0         0         0         0         0         0         0
         0         0         0         0         0         0         0         0
         0         0         0         0         0         0         0         0
         0         0         0         0         0         0         0         0
         0         0         0         0         0         0         0         0
         0         0         0         0         0         0         0         0
         0         0         0         0         0         0         0         0
         0         0         0         0         0         0         0         0
         0         0         0         0         0         0         0         0
         0         0         0         0         0         0         0         0
         0         0         0         0         0         0         0         0
         0         0         0         0         0         0         0         0
         0         0         0         0         0         0         0         0
         0         0         0         0         0         0         0         0
         0         0         0         0         0         0         0         0
         0         0         0         0         0         0         0         0
         0         0         0         0         0         0         0         0
         0         0         0         0         0         0         0         0
         0         0         0         0         0         0         0         0
         0         0         0         0         0         0         0         0
         0         0         0         0         0         0         0         0
         0         0         0         0         0         0         0         0
         0         0         0         0         0         0         0         0
         0         0         0         0         0         0         0         0
         0         0         0         0         0         0         0         0
         0         0         0         0         0         0         0         0
         0         0         0         0         0         0         0         0
         0         0         0         0         0         0         0         0
         0         0         0         0         0         0         0         0
         0         0         0         0         0         0         0         0
         0         0         0         0         0         0         0         0
         0         0         0         0         0         0         0         0
         0         0         0         0         0         0         0         0
         0         0         0         0         0         0         0         0
         0         0         0         0         0         0         0         0
         0         0         0         0         0         0         0         0
         0         0         0         0         0         0         0         0
         0         0         0         0         0         0         0         0
         0         0         0         0         0         0         0         0
         0         0         0         0         0         0         0         0
         0         0         0         0         0         0         0         0
         0         0         0         0         0         0         0         0
         0         0         0         0         0         0         0         0
         0         0         0         0         0         0         0         0
         0         0         0         0         0         0         0         0
         0         0         0         0         0         0         0         0
         0         0         0         0         0         0         0         0
         0         0         0         0         0         0         0         0
         0         0         0         0         0         0         0         0
         0         0         0         0         0         0         0         0
         0         0         0         0         0         0         0         0
         0         0         0         0         0         0         0         0
         0         0         0         0         0         0         0         0
         0         0         0         0         0         0         0         0
         0         0         0         0         0         0         0         0
         0         0         0         0         0         0         0         0
         0         0         0         0         0         0         0         0
         0         0         0         0         0         0         0         0
         0         0         0         0         0         0         0         0
         0         0         0         0         0         0         0         0
         0         0         0         0         0         0         0         0
         0         0         0         0         0         0         0         0
         0         0         0         0         0         0         0         0
         0         0         0         0         0         0         0         0
         0         0         0         0         0         0         0         0
         0         0         0         0         0         0         0         0
         0         0         0         0         0         0         0         0
         0         0         0         0         0         0         0         0
         0         0         0         0         0         0         0         0
         0         0         0         0         0         0         0         0
         0         0         0         0         0         0         0         0
         0         0         0         0         0         0         0         0
         0         0         0         0         0         0         0         0
         0         0         0         0         0         0         0         0
         0         0         0         0         0         0         0         0
         0         0         0         0         0         0         0         0
         0         0         0         0         0         0         0         0
         0         0         0         0         0         0         0         0
         0         0         0         0         0         0         0         0
         0         0         0         0         0         0         0         0
         0         0         0         0         0         0         0         0
         0         0         0         0         0         0         0         0
         0         0         0         0         0         0         0         0
         0         0         0         0         0         0         0         0
         0         0         0         0         0         0         0         0
         0         0         0         0         0         0         0         0
         0         0         0         0         0         0         0         0
         0         0         0         0         0         0         0         0
         0         0         0         0         0         0         0         0
         0         0         0         0         0         0         0         0
         0         0         0         0         0         0         0         0
         0         0         0         0         0         0         0         0
         0         0         0         0         0         0         0         0
         0         0         0         0         0         0         0         0
         0         0         0         0         0         0         0         0
         0         0         0         0         0         0         0         0
         0         0         0         0         0         0         0         0
         0         0         0         0         0         0         0         0
         0         0         0         0         0         0         0         0
         0         0         0         0         0         0         0         0
         0         0         0         0         0         0         0         0
         0         0         0         0         0         0         0         0
         0         0         0         0         0         0         0         0
         0         0         0         0         0         0         0         0
         0         0         0         0         0         0         0         0
         0         0         0         0         0         0         0         0
         0         0         0         0         0         0         0         0
         0         0         0         0         0         0         0         0
         0         0         0         0         0         0         0         0
         0         0         0         0         0         0         0         0
         0         0         0         0         0         0         0         0
         0         0         0         0         0         0         0         0
         0         0         0         0         0         0         0         0
         0         0         0         0         0         0         0         0
         0         0         0         0         0         0         0         0
         0         0         0         0         0         0         0         0
         0         0         0         0         0         0         0         0
         0         0         0         0         0         0         0         0
         0         0         0         0         0         0         0         0
         0         0         0         0         0         0         0         0
         0         0         0         0         0         0         0         0
         0         0         0         0         0         0         0         0
         0         0         0         0         0         0         0         0
         0         0         0         0         0         0         0         0
         0         0         0         0         0         0         0         0
         0         0         0         0         0         0         0         0
         0         0         0         0         0         0         0         0
         0         0         0         0         0         0         0         0
         0         0         0         0         0         0         0         0
         0         0         0         0         0         0         0         0
         0         0         0         0         0         0         0         0
         0         0         0         0         0         0         0         0
         0         0         0         0         0         0         0         0
         0         0         0         0         0         0         0         0
         0         0         0         0         0         0         0         0
         0         0         0         0         0         0         0         0
         0         0         0         0         0         0         0         0
         0         0         0         0         0         0         0         0
         0         0         0         0         0         0         0         0
         0         0         0         0         0         0         0         0
         0         0         0         0         0         0         0         0
         0         0         0         0         0         0         0         0
         0         0         0         0         0         0         0         0
         0         0         0         0         0         0         0         0
         0         0         0         0         0         0         0         0
         0         0         0         0         0         0         0         0
         0         0         0         0         0         0         0         0
         0         0         0         0         0         0         0         0
         0         0         0         0         0         0         0         0
         0         0         0         0         0         0         0         0
         0         0         0         0         0         0         0         0
         0         0         0         0         0         0         0         0
         0         0         0         0         0         0         0         0
         0         0         0         0         0         0         0         0
         0         0         0         0         0         0         0         0
         0         0         0         0         0         0         0         0
         0         0         0         0         0         0         0         0
         0         0         0         0         0         0         0         0
         0         0         0         0         0         0         0         0
         0         0         0         0         0         0         0         0
         0         0         0         0         0         0         0         0
         0         0         0         0         0         0         0         0
         0         0         0         0         0         0         0         0
         0         0         0         0         0         0         0         0
         0         0         0         0         0         0         0         0
         0         0         0         0         0         0         0         0
         0         0         0         0         0         0         0         0
         0         0         0         0         0         0         0         0
         0         0         0         0         0         0         0         0
         0         0         0         0         0         0         0         0
         0         0         0         0         0         0         0         0
         0         0         0         0         0         0         0         0
         0         0         0         0         0         0         0         0
         0         0         0         0         0         0         0         0
         0         0         0         0         0         0         0         0
         0         0         0         0         0         0         0         0
         0         0         0         0         0         0         0         0
         0         0         0         0         0         0         0         0
         0         0         0         0         0         0         0         0
         0         0         0         0         0         0         0         0
         0         0         0         0         0         0         0         0
         0         0         0         0         0         0         0         0
         0         0         0         0         0         0         0         0
         0         0         0         0         0         0         0         0
         0         0         0         0         0         0         0         0
         0         0         0         0         0         0         0         0
         0         0         0         0         0         0         0         0
         0         0         0         0         0         0         0         0
         0         0         0         0         0         0         0         0
         0         0         0         0         0         0         0         0
         0         0         0         0         0         0         0         0
         0         0         0         0         0         0         0         0
         0         0         0         0         0         0         0         0
         0         0         0         0         0         0         0         0
         0         0         0         0         0         0         0         0
         0         0         0         0         0         0         0         0
         0         0         0         0         0         0         0         0
         0         0         0         0         0         0         0         0
         0         0         0         0         0         0         0         0
         0         0         0         0         0         0         0         0
         0         0         0         0         0         0         0         0
         0         0         0         0         0         0         0         0
         0         0         0         0         0         0         0         0
         0         0         0         0         0         0         0         0
         0         0         0         0         0         0         0         0
         0         0         0         0         0         0         0         0
         0         0         0         0         0         0         0         0
         0         0         0         0         0         0         0         0
         0         0         0         0         0         0         0         0
         0         0         0         0         0         0         0         0
         0         0         0         0         0         0         0         0
         0         0         0         0         0         0         0         0
         0         0         0         0         0         0         0         0
         0         0         0         0         0         0         0         0
         0         0         0         0         0         0         0         0
         0         0         0         0         0         0         0         0
         0         0         0         0         0         0         0         0
         0         0         0         0         0         0         0         0
         0         0         0         0         0         0         0         0
         0         0         0         0         0         0         0         0
         0         0         0         0         0         0         0         0
         0         0         0         0         0         0         0         0
         0         0         0         0         0         0         0         0
         0         0         0         0         0         0         0         0
         0         0         0         0         0         0         0         0
         0         0         0         0         0         0         0         0
         0         0         0         0         0         0         0         0
         0         0         0         0         0         0         0         0
         0         0         0         0         0         0         0         0
         0         0         0         0         0         0         0         0
         0         0         0         0         0         0         0         0
         0         0         0         0         0         0         0         0
         0         0         0         0         0         0         0         0
         0         0         0         0         0         0         0         0
         0         0         0         0         0         0         0         0
         0         0         0         0         0         0         0         0
         0         0         0         0         0         0         0         0
         0         0         0         0         0         0         0         0
         0         0         0         0         0         0         0         0
         0         0         0         0         0         0         0         0
         0         0         0         0         0         0         0         0
         0         0         0         0         0         0         0         0
         0         0         0         0         0         0         0         0
         0         0         0         0         0         0         0         0
         0         0         0         0         0         0         0         0
         0         0         0         0         0         0         0         0
         0         0         0         0         0         0         0         0
         0         0         0         0         0         0         0         0
         0         0         0         0         0         0         0         0
         0         0         0         0         0         0         0         0
         0         0         0         0         0         0         0         0
         0         0         0         0         0         0         0         0
         0         0         0         0         0         0         0         0
         0         0         0         0         0         0         0         0
         0         0         0         0         0         0         0         0
         0         0         0         0         0         0         0         0
         0         0         0         0         0         0         0         0
         0         0         0         0         0         0         0         0
         0         0         0         0         0         0         0         0
         0         0         0         0         0         0         0         0
         0         0         0         0         0         0         0         0
         0         0         0         0         0         0         0         0
         0         0         0         0         0         0         0         0
         0         0         0         0         0         0         0         0
         0         0         0         0         0         0         0         0
         0         0         0         0         0         0         0         0
         0         0         0         0         0         0         0         0
         0         0         0         0         0         0         0         0
         0         0         0         0         0         0         0         0
         0         0         0         0         0         0         0         0
         0         0         0         0         0         0         0         0
         0         0         0         0         0         0         0         0
         0         0         0         0         0         0         0         0
         0         0         0         0         0         0         0         0
         0         0         0         0         0         0         0         0
         0         0         0         0         0         0         0         0
         0         0         0         0         0         0         0         0
         0         0         0         0         0         0         0         0
         0         0         0         0         0         0         0         0
         0         0         0         0         0         0         0         0
         0         0         0         0         0         0         0         0
         0         0         0         0         0         0         0         0
         0         0         0         0         0         0         0         0
         0         0         0         0         0         0         0         0
         0         0         0         0         0         0         0         0
         0         0         0         0         0         0         0         0
         0         0         0         0         0         0         0         0
         0         0         0         0         0         0         0         0
         0         0         0         0         0         0         0         0
         0         0         0         0         0         0         0         0
         0         0         0         0         0         0         0         0
         0         0         0         0         0         0         0         0
         0         0         0         0         0         0         0         0
         0         0         0         0         0         0         0         0
         0         0         0         0         0         0         0         0
         0         0         0         0         0         0         0         0
         0         0         0         0         0         0         0         0
         0         0         0         0         0         0         0         0
         0         0         0         0         0         0         0         0
         0         0         0         0         0         0         0         0
         0         0         0         0         0         0         0         0
         0         0         0         0         0         0         0         0
         0         0         0         0         0         0         0         0
         0         0         0         0         0         0         0         0
         0         0         0         0         0         0         0         0
         0         0         0         0         0         0         0         0
         0         0         0         0         0         0         0         0
         0         0         0         0         0         0         0         0
         0         0         0         0         0         0         0         0
         0         0         0         0         0         0         0         0
         0         0         0         0         0         0         0         0
         0         0         0         0         0         0         0         0
         0         0         0         0         0         0         0         0
         0         0         0         0         0         0         0         0
         0         0         0         0         0         0         0         0
         0         0         0         0         0         0         0         0
         0         0         0         0         0         0         0         0
         0         0         0         0         0         0         0         0
         0         0         0         0         0         0         0         0
         0         0         0         0         0         0         0         0
         0         0         0         0         0         0         0         0
         0         0         0         0         0         0         0         0
         0         0         0         0         0         0         0         0
         0         0         0         0         0         0         0         0
         0         0         0         0         0         0         0         0
         0         0         0         0         0         0         0         0
         0         0         0         0         0         0         0         0
         0         0         0         0         0         0         0         0
         0         0         0         0         0         0         0         0
         0         0         0         0         0         0         0         0
         0         0         0         0         0         0         0         0
         0         0         0         0         0         0         0         0
         0         0         0         0         0         0         0         0
         0         0         0         0         0         0         0         0
         0         0         0         0         0         0         0         0
         0         0         0         0         0         0         0         0
         0         0         0         0         0         0         0         0
         0         0         0         0         0         0         0         0
         0         0         0         0         0         0         0         0
         0         0         0         0         0         0         0         0
         0         0         0         0         0         0         0         0
         0         0         0         0         0         0         0         0
         0         0         0         0         0         0         0         0
         0         0         0         0         0         0         0         0
         0         0         0         0         0         0         0         0
         0         0         0         0         0         0         0         0
         0         0         0         0         0         0         0         0
         0         0         0         0         0         0         0         0
         0         0         0         0         0         0         0         0
         0         0         0         0         0         0         0         0
         0         0         0         0         0         0         0         0
         0         0         0         0         0         0         0         0
         0         0         0         0         0         0         0         0
         0         0         0         0         0         0         0         0
         0         0         0         0         0         0         0         0
         0         0         0         0         0         0         0         0
         0         0         0         0         0         0         0         0
         0         0         0         0         0         0         0         0
         0         0         0         0         0         0         0         0
         0         0         0         0         0         0         0         0
         0         0         0         0         0         0         0         0
         0         0         0         0         0         0         0         0
         0         0         0         0         0         0         0         0
         0         0         0         0         0         0         0         0
         0         0         0         0         0         0         0         0
         0         0         0         0         0         0         0         0
         0         0         0         0         0         0         0         0
         0         0         0         0         0         0         0         0
         0         0         0         0         0         0         0         0
         0         0         0         0         0         0         0         0
         0         0         0         0         0         0         0         0
         0         0         0         0         0         0         0         0
         0         0         0         0         0         0         0         0
         0         0         0         0         0         0         0         0
         0         0         0         0         0         0         0         0
         0         0         0         0         0         0         0         0
         0         0         0         0         0         0         0         0
         0         0         0         0         0         0         0         0
         0         0         0         0         0         0         0         0
         0         0         0         0         0         0         0         0
         0         0         0         0         0         0         0         0
         0         0         0         0         0         0         0         0
         0         0         0         0         0         0         0         0
         0         0         0         0         0         0         0         0
         0         0         0         0         0         0         0         0
         0         0         0         0         0         0         0         0
         0         0         0         0         0         0         0         0
         0         0         0         0         0         0         0         0
         0         0         0         0         0         0         0         0
         0         0         0         0         0         0         0         0
         0         0         0         0         0         0         0         0
         0         0         0         0         0         0         0         0
         0         0         0         0         0         0         0         0
         0         0         0         0         0         0         0         0
         0         0         0         0         0         0         0         0
         0         0         0         0         0         0         0         0
         0         0         0         0         0         0         0         0
         0         0         0         0         0         0         0         0
         0         0         0         0         0         0         0         0
         0         0         0         0         0         0         0         0
         0         0         0         0         0         0         0         0
         0         0         0         0         0         0         0         0
         0         0         0         0         0         0         0         0
         0         0         0         0         0         0         0         0
         0         0         0         0         0         0         0         0
         0         0         0         0         0         0         0         0
         0         0         0         0         0         0         0         0
         0         0         0         0         0         0         0         0
         0         0         0         0         0         0         0         0
         0         0         0         0         0         0         0         0
         0         0         0         0         0         0         0         0
         0         0         0         0         0         0         0         0
         0         0         0         0         0         0         0         0
         0         0         0         0         0         0         0         0
         0         0         0         0         0         0         0         0
         0         0         0         0         0         0         0         0
         0         0         0         0         0         0         0         0
         0         0         0         0         0         0         0         0
         0         0         0         0         0         0         0         0
         0         0         0         0         0         0         0         0
         0         0         0         0         0         0         0         0
         0         0         0         0         0         0         0         0
         0         0         0         0         0         0         0         0
         0         0         0         0         0         0         0         0
         0         0         0         0         0         0         0         0
         0         0         0         0         0         0         0         0
         0         0         0         0         0         0         0         0
         0         0         0         0         0         0         0         0
         0         0         0         0         0         0         0         0
         0         0         0         0         0         0         0         0
         0         0         0         0         0         0         0         0
         0         0         0         0         0         0         0         0
         0         0         0         0         0         0         0         0
         0         0         0         0         0         0         0         0
         0         0         0         0         0         0         0         0
         0         0         0         0         0         0         0         0
         0         0         0         0         0         0         0         0
         0         0         0         0         0         0         0         0
         0         0         0         0         0         0         0         0
         0         0         0         0         0         0         0         0
         0         0         0         0         0         0         0         0
         0         0         0         0         0         0         0         0
         0         0         0         0         0         0         0         0
         0         0         0         0         0         0         0         0
         0         0         0         0         0         0         0         0
         0         0         0         0         0         0         0         0
         0         0         0         0         0         0         0         0
         0         0         0         0         0         0         0         0
         0         0         0         0         0         0         0         0
         0         0         0         0         0         0         0         0
         0         0         0         0         0         0         0         0
         0         0         0         0         0         0         0         0
         0         0         0         0         0         0         0         0
         0         0         0         0         0         0         0         0
         0         0         0         0         0         0         0         0
         0         0         0         0         0         0         0         0
         0         0         0         0         0         0         0         0
         0         0         0         0         0         0         0         0
         0         0         0         0         0         0         0         0
         0         0         0         0         0         0         0         0
         0         0         0         0         0         0         0         0
         0         0         0         0         0         0         0         0
         0         0         0         0         0         0         0         0
         0         0         0         0         0         0         0         0
         0         0         0         0         0         0         0         0
         0         0         0         0         0         0         0         0
         0         0         0         0         0         0         0         0
         0         0         0         0         0         0         0         0
         0         0         0         0         0         0         0         0
         0         0         0         0         0         0         0         0
         0         0         0         0         0         0         0         0
         0         0         0         0         0         0         0         0
         0         0         0         0         0         0         0         0
         0         0         0         0         0         0         0         0
         0         0         0         0         0         0         0         0
         0         0         0         0         0         0         0         0
         0         0         0         0         0         0         0         0
         0         0         0         0         0         0         0         0
         0         0         0         0         0         0         0         0
         0         0         0         0         0         0         0         0
         0         0         0         0         0         0         0         0
         0         0         0         0         0         0         0         0
         0         0         0         0         0         0         0         0
         0         0         0         0         0         0         0         0
         0         0         0         0         0         0         0         0
         0         0         0         0         0         0         0         0
         0         0         0         0         0         0         0         0
         0         0         0         0         0         0         0         0
         0         0         0         0         0         0         0         0
         0         0         0         0         0         0         0         0
         0         0         0         0         0         0         0         0
         0         0         0         0         0         0         0         0
         0         0         0         0         0         0         0         0
         0         0         0         0         0         0         0         0
         0         0         0         0         0         0         0         0
         0         0         0         0         0         0         0         0
         0         0         0         0         0         0         0         0
         0         0         0         0         0         0         0         0
         0         0         0         0         0         0         0         0
         0         0         0         0         0         0         0         0
         0         0         0         0         0         0         0         0
         0         0         0         0         0         0         0         0
         0         0         0         0         0         0         0         0
         0         0         0         0         0         0         0         0
         0         0         0         0         0         0         0         0
         0         0         0         0         0         0         0         0
         0         0         0         0         0         0         0         0
         0         0         0         0         0         0         0         0
         0         0         0         0         0         0         0         0
         0         0         0         0         0         0         0         0
         0         0         0         0         0         0         0         0
         0         0         0         0         0         0         0         0
         0         0         0         0         0         0         0         0
         0         0         0         0         0         0         0         0
         0         0         0         0         0         0         0         0
         0         0         0         0         0         0         0         0
         0         0         0         0         0         0         0         0
         0         0         0         0         0         0         0         0
         0         0         0         0         0         0         0         0
         0         0         0         0         0         0         0         0
         0         0         0         0         0         0         0         0
         0         0         0         0         0         0         0         0
         0         0         0         0         0         0         0         0
         0         0         0         0         0         0         0         0
         0         0         0         0         0         0         0         0
         0         0         0         0         0         0         0         0
         0         0         0         0         0         0         0         0
         0         0         0         0         0         0         0         0
         0         0         0         0         0         0         0         0
         0         0         0         0         0         0         0         0
         0         0         0         0         0         0         0         0
         0         0         0         0         0         0         0         0
         0         0         0         0         0         0         0         0
         0         0         0         0         0         0         0         0
         0         0         0         0         0         0         0         0
         0         0         0         0         0         0         0         0
         0         0         0         0         0         0         0         0
         0         0         0         0         0         0         0         0
         0         0         0         0         0         0         0         0
         0         0         0         0         0         0         0         0
         0         0         0         0         0         0         0         0
         0         0         0         0         0         0         0         0
         0         0         0         0         0         0         0         0
         0         0         0         0         0         0         0         0
         0         0         0         0         0         0         0         0
         0         0         0         0         0         0         0         0
         0         0         0         0         0         0         0         0
         0         0         0         0         0         0         0         0
         0         0         0         0         0         0         0         0
         0         0         0         0         0         0         0         0
         0         0         0         0         0         0         0         0
         0         0         0         0         0         0         0         0
         0         0         0         0         0         0         0         0
         0         0         0         0         0         0         0         0
         0         0         0         0         0         0         0         0
         0         0         0         0         0         0         0         0
         0         0         0         0         0         0         0         0
         0         0         0         0         0         0         0         0
         0         0         0         0         0         0         0         0
         0         0         0         0         0         0         0         0
         0         0         0         0         0         0         0         0
         0         0         0         0         0         0         0         0
         0         0         0         0         0         0         0         0
         0         0         0         0         0         0         0         0
         0         0         0         0         0         0         0         0
         0         0         0         0         0         0         0         0
         0         0         0         0         0         0         0         0
         0         0         0         0         0         0         0         0
         0         0         0         0         0         0         0         0
         0         0         0         0         0         0         0         0
         0         0         0         0         0         0         0         0
         0         0         0         0         0         0         0         0
         0         0         0         0         0         0         0         0
         0         0         0         0         0         0         0         0
         0         0         0         0         0         0         0         0
         0         0         0         0         0         0         0         0
         0         0         0         0         0         0         0         0
         0         0         0         0         0         0         0         0
         0         0         0         0         0         0         0         0
         0         0         0         0         0         0         0         0
         0         0         0         0         0         0         0         0
         0         0         0         0         0         0         0         0
         0         0         0         0         0         0         0         0
         0         0         0         0         0         0         0         0
         0         0         0         0         0         0         0         0
         0         0         0         0         0         0         0         0
         0         0         0         0

     10104         0 !NGRP NST2
         0         1         0         4         1         0         7         1         0
        10         1         0        13         1         0        15         1         0
        17         1         0        20         1         0        23         1         0
        25         0         0        26         1         0        30         1         0
        33         1         0        36         1         0        38         0         0
        39         1         0        43         1         0        46         1         0
        49         1         0        51         1         0        55         1         0
        58         1         0        61         1         0        64         1         0
        66         1         0        70         1         0        74         1         0
        78         1         0        81         1         0        84         1         0
        87         1         0        89         1         0        91         1         0
        94         1         0        97         1         0        99         0         0
       100         1         0       104         1         0       107         1         0
       110         1         0       112         0         0       113         1         0
       117         1         0       120         1         0       123         1         0
       125         1         0       129         1         0       132         1         0
       135         1         0       138         1         0       140         1         0
       144         1         0       148         1         0       152         1         0
       155         1         0       158         1         0       161         1         0
       163         1         0       165         1         0       168         1         0
       171         1         0       173         0         0       174         1         0
       178         1         0       181         1         0       184         1         0
       186         0         0       187         1         0       191         1         0
       194         1         0       197         1         0       199         1         0
       203         1         0       206         1         0       209         1         0
       212         1         0       214         1         0       218         1         0
       222         1         0       226         1         0       229         1         0
       232         1         0       235         1         0       237         1         0
       239         1         0       242         1         0       245         1         0
       247         0         0       248         1         0       252         1         0
       255         1         0       258         1         0       260         0         0
       261         1         0       265         1         0       268         1         0
       271         1         0       273         1         0       277         1         0
       280         1         0       283         1         0       286         1         0
       288         1         0       292         1         0       296         1         0
       300         1         0       303         1         0       306         1         0
       309         1         0       311         1         0       313         1         0
       316         1         0       319         1         0       321         0         0
       322         1         0       326         1         0       329         1         0
       332         1         0       334         0         0       335         1         0
       339         1         0       342         1         0       345         1         0
       347         1         0       351         1         0       354         1         0
       357         1         0       360         1         0       362         1         0
       366         1         0       370         1         0       374         1         0
       377         1         0       380         1         0       383         1         0
       385         1         0       387         1         0       390         1         0
       393         1         0       395         0         0       396         1         0
       400         1         0       403         1         0       406         1         0
       408         0         0       409         1         0       413         1         0
       416         1         0       419         1         0       421         1         0
       425         1         0       428         1         0       431         1         0
       434         1         0       436         1         0       440         1         0
       444         1         0       448         1         0       451         1         0
       454         1         0       457         1         0       459         1         0
       461         1         0       464         1         0       467         1         0
       469         0         0       470         1         0       474         1         0
       477         1         0       480         1         0       482         0         0
       483         1         0       487         1         0       490         1         0
       493         1         0       495         1         0       499         1         0
       502         1         0       505         1         0       508         1         0
       510         1         0       514         1         0       518         1         0
       522         1         0       525         1         0       528         1         0
       531         1         0       533         1         0       535         1         0
       538         1         0       541         1         0       543         0         0
       544         1         0       548         1         0       551         1         0
       554         1         0       556         0         0       557         1         0
       561         1         0       564         1         0       567         1         0
       569         1         0       573         1         0       576         1         0
       579         1         0       582         1         0       584         1         0
       588         1         0       592         1         0       596         1         0
       599         1         0       602         1         0       605         1         0
       607         1         0       609         1         0       612         1         0
       615         1         0       617         0         0       618         1         0
       622         1         0       625         1         0       628         1         0
       630         0         0       631         1         0       635         1         0
       638         1         0       641         1         0       643         1         0
       647         1         0       650         1         0       653         1         0
       656         1         0       658         1         0       662         1         0
       666         1         0       670         1         0       673         1         0
       676         1         0       679         1         0       681         1         0
       683         1         0       686         1         0       689         1         0
       691         0         0       692         1         0       696         1         0
       699         1         0       702         1         0       704         0         0
       705         1         0       709         1         0       712         1         0
       715         1         0       717         1         0       721         1         0
       724         1         0       727         1         0       730         1         0
       732         1         0       736         1         0       740         1         0
       744         1         0       747         1         0       750         1         0
       753         1         0       755         1         0       757         1         0
       760         1         0       763         1         0       765         0         0
       766         1         0       770         1         0       773         1         0
       776         1         0       778         0         0       779         1         0
       783         1         0       786         1         0       789         1         0
       791         1         0       795         1         0       798         1         0
       801         1         0       804         1         0       806         1         0
       810         1         0       814         1         0       818         1         0
       821         1         0       824         1         0       827         1         0
       829         1         0       831         1         0       834         1         0
       837         1         0       839         0         0       840         1         0
       844         1         0       847         1         0       850         1         0
       852         0         0       853         1         0       857         1         0
       860         1         0       863         1         0       865         1         0
       869         1         0       872         1         0       875         1         0
       878         1         0       880         1         0       884         1         0
       888         1         0       892         1         0       895         1         0
       898         1         0       901         1         0       903         1         0
       905         1         0       908         1         0       911         1         0
       913         0         0       914         1         0       918         1         0
       921         1         0       924         1         0       926         0         0
       927         1         0       931         1         0       934         1         0
       937         1         0       939         1         0       943         1         0
       946         1         0       949         1         0       952         1         0
       954         1         0       958         1         0       962         1         0
       966         1         0       969         1         0       972         1         0
       975         1         0       977         1         0       979         1         0
       982         1         0       985         1         0       987         0         0
       988         1         0       992         1         0       995         1         0
       998         1         0      1000         0         0      1001         1         0
      1005         1         0      1008         1         0      1011         1         0
      1013         1         0      1017         1         0      1020         1         0
      1023         1         0      1026         1         0      1028         1         0
      1032         1         0      1036         1         0      1040         1         0
      1043         1         0      1046         1         0      1049         1         0
      1051         1         0      1053         1         0      1056         1         0
      1059         1         0      1061         0         0      1062         1         0
      1066         1         0      1069         1         0      1072         1         0
      1074         0         0      1075         1         0      1079         1         0
      1082         1         0      1085         1         0      1087         1         0
      1091         1         0      1094         1         0      1097         1         0
      1100         1         0      1102         1         0      1106         1         0
      1110         1         0      1114         1         0      1117         1         0
      1120         1         0      1123         1         0      1125         1         0
      1127         1         0      1130         1         0      1133         1         0
      1135         0         0      1136         1         0      1140         1         0
      1143         1         0      1146         1         0      1148         0         0
      1149         1         0      1153         1         0      1156         1         0
      1159         1         0      1161         1         0      1165         1         0
      1168         1         0      1171         1         0      1174         1         0
      1176         1         0      1180         1         0      1184         1         0
      1188         1         0      1191         1         0      1194         1         0
      1197         1         0      1199         1         0      1201         1         0
      1204         1         0      1207         1         0      1209         0         0
      1210         1         0      1214         1         0      1217         1         0
      1220         1         0      1222         0         0      1223         1         0
      1227         1         0      1230         1         0      1233         1         0
      1235         1         0      1239         1         0      1242         1         0
      1245         1         0      1248         1         0      1250         1         0
      1254         1         0      1258         1         0      1262         1         0
      1265         1         0      1268         1         0      1271         1         0
      1273         1         0      1275         1         0      1278         1         0
      1281         1         0      1283         0         0      1284         1         0
      1288         1         0      1291         1         0      1294         1         0
      1296         0         0      1297         1         0      1301         1         0
      1304         1         0      1307         1         0      1309         1         0
      1313         1         0      1316         1         0      1319         1         0
      1322         1         0      1324         1         0      1328         1         0
      1332         1         0      1336         1         0      1339         1         0
      1342         1         0      1345         1         0      1347         1         0
      1349         1         0      1352         1         0      1355         1         0
      1357         0         0      1358         1         0      1362         1         0
      1365         1         0      1368         1         0      1370         0         0
      1371         1         0      1375         1         0      1378         1         0
      1381         1         0      1383         1         0      1387         1         0
      1390         1         0      1393         1         0      1396         1         0
      1398         1         0      1402         1         0      1406         1         0
      1410         1         0      1413         1         0      1416         1         0
      1419         1         0      1421         1         0      1423         1         0
      1426         1         0      1429         1         0      1431         0         0
      1432         1         0      1436         1         0      1439         1         0
      1442         1         0      1444         0         0      1445         1         0
      1449         1         0      1452         1         0      1455         1         0
      1457         1         0      1461         1         0      1464         1         0
      1467         1         0      1470         1         0      1472         1         0
      1476         1         0      1480         1         0      1484         1         0
      1487         1         0      1490         1         0      1493         1         0
      1495         1         0      1497         1         0      1500         1         0
      1503         1         0      1505         0         0      1506         1         0
      1510         1         0      1513         1         0      1516         1         0
      1518         0         0      1519         1         0      1523         1         0
      1526         1         0      1529         1         0      1531         1         0
      1535         1         0      1538         1         0      1541         1         0
      1544         1         0      1546         1         0      1550         1         0
      1554         1         0      1558         1         0      1561         1         0
      1564         1         0      1567         1         0      1569         1         0
      1571         1         0      1574         1         0      1577         1         0
      1579         0         0      1580         1         0      1584         1         0
      1587         1         0      1590         1         0      1592         0         0
      1593         1         0      1597         1         0      1600         1         0
      1603         1         0      1605         1         0      1609         1         0
      1612         1         0      1615         1         0      1618         1         0
      1620         1         0      1624         1         0      1628         1         0
      1632         1         0      1635         1         0      1638         1         0
      1641         1         0      1643         1         0      1645         1         0
      1648         1         0      1651         1         0      1653         0         0
      1654         1         0      1658         1         0      1661         1         0
      1664         1         0      1666         0         0      1667         1         0
      1671         1         0      1674         1         0      1677         1         0
      1679         1         0      1683         1         0      1686         1         0
      1689         1         0      1692         1         0      1694         1         0
      1698         1         0      1702         1         0      1706         1         0
      1709         1         0      1712         1         0      1715         1         0
      1717         1         0      1719         1         0      1722         1         0
      1725         1         0      1727         0         0      1728         1         0
      1732         1         0      1735         1         0      1738         1         0
      1740         0         0      1741         1         0      1745         1         0
      1748         1         0      1751         1         0      1753         1         0
      1757         1         0      1760         1         0      1763         1         0
      1766         1         0      1768         1         0      1772         1         0
      1776         1         0      1780         1         0      1783         1         0
      1786         1         0      1789         1         0      1791         1         0
      1793         1         0      1796         1         0      1799         1         0
      1801         0         0      1802         1         0      1806         1         0
      1809         1         0      1812         1         0      1814         0         0
      1815         1         0      1819         1         0      1822         1         0
      1825         1         0      1827         1         0      1831         1         0
      1834         1         0      1837         1         0      1840         1         0
      1842         1         0      1846         1         0      1850         1         0
      1854         1         0      1857         1         0      1860         1         0
      1863         1         0      1865         1         0      1867         1         0
      1870         1         0      1873         1         0      1875         0         0
      1876         1         0      1880         1         0      1883         1         0
      1886         1         0      1888         0         0      1889         1         0
      1893         1         0      1896         1         0      1899         1         0
      1901         1         0      1905         1         0      1908         1         0
      1911         1         0      1914         1         0      1916         1         0
      1920         1         0      1924         1         0      1928         1         0
      1931         1         0      1934         1         0      1937         1         0
      1939         1         0      1941         1         0      1944         1         0
      1947         1         0      1949         0         0      1950         1         0
      1954         1         0      1957         1         0      1960         1         0
      1962         0         0      1963         1         0      1967         1         0
      1970         1         0      1973         1         0      1975         1         0
      1979         1         0      1982         1         0      1985         1         0
      1988         1         0      1990         1         0      1994         1         0
      1998         1         0      2002         1         0      2005         1         0
      2008         1         0      2011         1         0      2013         1         0
      2015         1         0      2018         1         0      2021         1         0
      2023         0         0      2024         1         0      2028         1         0
      2031         1         0      2034         1         0      2036         0         0
      2037         1         0      2041         1         0      2044         1         0
      2047         1         0      2049         1         0      2053         1         0
      2056         1         0      2059         1         0      2062         1         0
      2064         1         0      2068         1         0      2072         1         0
      2076         1         0      2079         1         0      2082         1         0
      2085         1         0      2087         1         0      2089         1         0
      2092         1         0      2095         1         0      2097         0         0
      2098         1         0      2102         1         0      2105         1         0
      2108         1         0      2110         0         0      2111         1         0
      2115         1         0      2118         1         0      2121         1         0
      2123         1         0      2127         1         0      2130         1         0
      2133         1         0      2136         1         0      2138         1         0
      2142         1         0      2146         1         0      2150         1         0
      2153         1         0      2156         1         0      2159         1         0
      2161         1         0      2163         1         0      2166         1         0
      2169         1         0      2171         0         0      2172         1         0
      2176         1         0      2179         1         0      2182         1         0
      2184         0         0      2185         1         0      2189         1         0
      2192         1         0      2195         1         0      2197         1         0
      2201         1         0      2204         1         0      2207         1         0
      2210         1         0      2212         1         0      2216         1         0
      2220         1         0      2224         1         0      2227         1         0
      2230         1         0      2233         1         0      2235         1         0
      2237         1         0      2240         1         0      2243         1         0
      2245         0         0      2246         1         0      2250         1         0
      2253         1         0      2256         1         0      2258         0         0
      2259         1         0      2263         1         0      2266         1         0
      2269         1         0      2271         1         0      2275         1         0
      2278         1         0      2281         1         0      2284         1         0
      2286         1         0      2290         1         0      2294         2         0
      2310         2         0      2321         1         0      2329         1         0
      2338         1         0      2341         1         0      2344         1         0
      2347         1         0      2350         1         0      2353         1         0
      2356         1         0      2358         1         0      2360         1         0
      2363         1         0      2366         1         0      2369         1         0
      2372         1         0      2375         1         0      2378         1         0
      2381         1         0      2385         1         0      2388         1         0
      2391         1         0      2394         1         0      2397         1         0
      2400         1         0      2403         1         0      2406         1         0
      2409         1         0      2412         1         0      2415         1         0
      2418         1         0      2421         1         0      2424         1         0
      2428         2         0      2444         2         0      2455         1         0
      2463         1         0      2472         1         0      2475         1         0
      2478         1         0      2481         1         0      2484         1         0
      2487         1         0      2490         1         0      2492         1         0
      2494         1         0      2497         1         0      2500         1         0
      2503         1         0      2506         1         0      2509         1         0
      2512         1         0      2515         1         0      2519         1         0
      2522         1         0      2525         1         0      2528         1         0
      2531         1         0      2534         1         0      2537         1         0
      2540         1         0      2543         1         0      2546         1         0
      2549         1         0      2552         1         0      2555         1         0
      2558         1         0      2562         2         0      2578         2         0
      2589         1         0      2597         1         0      2606         1         0
      2609         1         0      2612         1         0      2615         1         0
      2618         1         0      2621         1         0      2624         1         0
      2626         1         0      2628         1         0      2631         1         0
      2634         1         0      2637         1         0      2640         1         0
      2643         1         0      2646         1         0      2649         1         0
      2653         1         0      2656         1         0      2659         1         0
      2662         1         0      2665         1         0      2668         1         0
      2671         1         0      2674         1         0      2677         1         0
      2680         1         0      2683         1         0      2686         1         0
      2689         1         0      2692         1         0      2696         2         0
      2712         2         0      2723         1         0      2731         1         0
      2740         1         0      2743         1         0      2746         1         0
      2749         1         0      2752         1         0      2755         1         0
      2758         1         0      2760         1         0      2762         1         0
      2765         1         0      2768         1         0      2771         1         0
      2774         1         0      2777         1         0      2780         1         0
      2783         1         0      2787         1         0      2790         1         0
      2793         1         0      2796         1         0      2799         1         0
      2802         1         0      2805         1         0      2808         1         0
      2811         1         0      2814         1         0      2817         1         0
      2820         1         0      2823         1         0      2826         1         0
      2830         2         0      2846         2         0      2857         1         0
      2865         1         0      2874         1         0      2877         1         0
      2880         1         0      2883         1         0      2886         1         0
      2889         1         0      2892         1         0      2894         1         0
      2896         1         0      2899         1         0      2902         1         0
      2905         1         0      2908         1         0      2911         1         0
      2914         1         0      2917         1         0      2921         1         0
      2924         1         0      2927         1         0      2930         1         0
      2933         1         0      2936         1         0      2939         1         0
      2942         1         0      2945         1         0      2948         1         0
      2951         1         0      2954         1         0      2957         1         0
      2960         1         0      2964         2         0      2980         2         0
      2991         1         0      2999         1         0      3008         1         0
      3011         1         0      3014         1         0      3017         1         0
      3020         1         0      3023         1         0      3026         1         0
      3028         1         0      3030         1         0      3033         1         0
      3036         1         0      3039         1         0      3042         1         0
      3045         1         0      3048         1         0      3051         1         0
      3055         1         0      3058         1         0      3061         1         0
      3064         1         0      3067         1         0      3070         1         0
      3073         1         0      3076         1         0      3079         1         0
      3082         1         0      3085         1         0      3088         1         0
      3091         1         0      3094         1         0      3098         2         0
      3114         2         0      3125         1         0      3133         1         0
      3142         1         0      3145         1         0      3148         1         0
      3151         1         0      3154         1         0      3157         1         0
      3160         1         0      3162         1         0      3164         1         0
      3167         1         0      3170         1         0      3173         1         0
      3176         1         0      3179         1         0      3182         1         0
      3185         1         0      3189         1         0      3192         1         0
      3195         1         0      3198         1         0      3201         1         0
      3204         1         0      3207         1         0      3210         1         0
      3213         1         0      3216         1         0      3219         1         0
      3222         1         0      3225         1         0      3228         1         0
      3232         2         0      3248         2         0      3259         1         0
      3267         1         0      3276         1         0      3279         1         0
      3282         1         0      3285         1         0      3288         1         0
      3291         1         0      3294         1         0      3296         1         0
      3298         1         0      3301         1         0      3304         1         0
      3307         1         0      3310         1         0      3313         1         0
      3316         1         0      3319         1         0      3323         1         0
      3326         1         0      3329         1         0      3332         1         0
      3335         1         0      3338         1         0      3341         1         0
      3344         1         0      3347         1         0      3350         1         0
      3353         1         0      3356         1         0      3359         1         0
      3362         1         0      3366         2         0      3382         2         0
      3393         1         0      3401         1         0      3410         1         0
      3413         1         0      3416         1         0      3419         1         0
      3422         1         0      3425         1         0      3428         1         0
      3430         1         0      3432         1         0      3435         1         0
      3438         1         0      3441         1         0      3444         1         0
      3447         1         0      3450         1         0      3453         1         0
      3457         1         0      3460         1         0      3463         1         0
      3466         1         0      3469         1         0      3472         1         0
      3475         1         0      3478         1         0      3481         1         0
      3484         1         0      3487         1         0      3490         1         0
      3493         1         0      3496         1         0      3500         2         0
      3516         2         0      3527         1         0      3535         1         0
      3544         1         0      3547         1         0      3550         1         0
      3553         1         0      3556         1         0      3559         1         0
      3562         1         0      3564         1         0      3566         1         0
      3569         1         0      3572         1         0      3575         1         0
      3578         1         0      3581         1         0      3584         1         0
      3587         1         0      3591         1         0      3594         1         0
      3597         1         0      3600         1         0      3603         1         0
      3606         1         0      3609         1         0      3612         1         0
      3615         1         0      3618         1         0      3621         1         0
      3624         1         0      3627         1         0      3630         1         0
      3634         2         0      3650         2         0      3661         1         0
      3669         1         0      3678         1         0      3681         1         0
      3684         1         0      3687         1         0      3690         1         0
      3693         1         0      3696         1         0      3698         1         0
      3700         1         0      3703         1         0      3706         1         0
      3709         1         0      3712         1         0      3715         1         0
      3718         1         0      3721         1         0      3725         1         0
      3728         1         0      3731         1         0      3734         1         0
      3737         1         0      3740         1         0      3743         1         0
      3746         1         0      3749         1         0      3752         1         0
      3755         1         0      3758         1         0      3761         1         0
      3764         1         0      3768         2         0      3784         2         0
      3795         1         0      3803         1         0      3812         1         0
      3815         1         0      3818         1         0      3821         1         0
      3824         1         0      3827         1         0      3830         1         0
      3832         1         0      3834         1         0      3837         1         0
      3840         1         0      3843         1         0      3846         1         0
      3849         1         0      3852         1         0      3855         1         0
      3859         1         0      3862         1         0      3865         1         0
      3868         1         0      3871         1         0      3874         1         0
      3877         1         0      3880         1         0      3883         1         0
      3886         1         0      3889         1         0      3892         1         0
      3895         1         0      3898         1         0      3902         2         0
      3918         2         0      3929         1         0      3937         1         0
      3946         1         0      3949         1         0      3952         1         0
      3955         1         0      3958         1         0      3961         1         0
      3964         1         0      3966         1         0      3968         1         0
      3971         1         0      3974         1         0      3977         1         0
      3980         1         0      3983         1         0      3986         1         0
      3989         1         0      3993         1         0      3996         1         0
      3999         1         0      4002         1         0      4005         1         0
      4008         1         0      4011         1         0      4014         1         0
      4017         1         0      4020         1         0      4023         1         0
      4026         1         0      4029         1         0      4032         1         0
      4036         2         0      4052         2         0      4063         1         0
      4071         1         0      4080         1         0      4083         1         0
      4086         1         0      4089         1         0      4092         1         0
      4095         1         0      4098         1         0      4100         1         0
      4102         1         0      4105         1         0      4108         1         0
      4111         1         0      4114         1         0      4117         1         0
      4120         1         0      4123         1         0      4127         1         0
      4130         1         0      4133         1         0      4136         1         0
      4139         1         0      4142         1         0      4145         1         0
      4148         1         0      4151         1         0      4154         1         0
      4157         1         0      4160         1         0      4163         1         0
      4166         1         0      4170         2         0      4186         2         0
      4197         1         0      4205         1         0      4214         1         0
      4217         1         0      4220         1         0      4223         1         0
      4226         1         0      4229         1         0      4232         1         0
      4234         1         0      4236         1         0      4239         1         0
      4242         1         0      4245         1         0      4248         1         0
      4251         1         0      4254         1         0      4257         1         0
      4261         1         0      4264         1         0      4267         1         0
      4270         1         0      4273         1         0      4276         1         0
      4279         1         0      4282         1         0      4285         1         0
      4288         1         0      4291         1         0      4294         1         0
      4297         1         0      4300         1         0      4304         2         0
      4320         2         0      4331         1         0      4339         1         0
      4348         1         0      4351         1         0      4354         1         0
      4357         1         0      4360         1         0      4363         1         0
      4366         1         0      4368         1         0      4370         1         0
      4373         1         0      4376         1         0      4379         1         0
      4382         1         0      4385         1         0      4388         1         0
      4391         1         0      4395         1         0      4398         1         0
      4401         1         0      4404         1         0      4407         1         0
      4410         1         0      4413         1         0      4416         1         0
      4419         1         0      4422         1         0      4425         1         0
      4428         1         0      4431         1         0      4434         1         0
      4438         2         0      4454         2         0      4465         1         0
      4473         1         0      4482         1         0      4485         1         0
      4488         1         0      4491         1         0      4494         1         0
      4497         1         0      4500         1         0      4502         1         0
      4504         1         0      4507         1         0      4510         1         0
      4513         1         0      4516         1         0      4519         1         0
      4522         1         0      4525         1         0      4529         1         0
      4532         1         0      4535         1         0      4538         1         0
      4541         1         0      4544         1         0      4547         1         0
      4550         1         0      4553         1         0      4556         1         0
      4559         1         0      4562         1         0      4565         1         0
      4568         1         0      4572         2         0      4588         2         0
      4599         1         0      4607         1         0      4616         1         0
      4619         1         0      4622         1         0      4625         1         0
      4628         1         0      4631         1         0      4634         1         0
      4636         1         0      4638         1         0      4641         1         0
      4644         1         0      4647         1         0      4650         1         0
      4653         1         0      4656         1         0      4659         1         0
      4663         1         0      4666         1         0      4669         1         0
      4672         1         0      4675         1         0      4678         1         0
      4681         1         0      4684         1         0      4687         1         0
      4690         1         0      4693         1         0      4696         1         0
      4699         1         0      4702         1         0      4706         2         0
      4722         2         0      4733         1         0      4741         1         0
      4750         1         0      4753         1         0      4756         1         0
      4759         1         0      4762         1         0      4765         1         0
      4768         1         0      4770         1         0      4772         1         0
      4775         1         0      4778         1         0      4781         1         0
      4784         1         0      4787         1         0      4790         1         0
      4793         1         0      4797         1         0      4800         1         0
      4803         1         0      4806         1         0      4809         1         0
      4812         1         0      4815         1         0      4818         1         0
      4821         1         0      4824         1         0      4827         1         0
      4830         1         0      4833         1         0      4836         1         0
      4840         2         0      4856         2         0      4867         1         0
      4875         1         0      4884         1         0      4887         1         0
      4890         1         0      4893         1         0      4896         1         0
      4899         1         0      4902         1         0      4904         1         0
      4906         1         0      4909         1         0      4912         1         0
      4915         1         0      4918         1         0      4921         1         0
      4924         1         0      4927         1         0      4931         1         0
      4934         1         0      4937         1         0      4940         1         0
      4943         1         0      4946         1         0      4949         1         0
      4952         1         0      4955         1         0      4958         1         0
      4961         1         0      4964         1         0      4967         1         0
      4970         1         0      4974         2         0      4990         2         0
      5001         1         0      5009         1         0      5018         1         0
      5021         1         0      5024         1         0      5027         1         0
      5030         1         0      5033         1         0      5036         1         0
      5038         1         0      5040         1         0      5043         1         0
      5046         1         0      5049         1         0      5052         1         0
      5055         1         0      5058         1         0      5061         1         0
      5065         1         0      5068         1         0      5071         1         0
      5074         1         0      5077         1         0      5080         1         0
      5083         1         0      5086         1         0      5089         1         0
      5092         1         0      5095         1         0      5098         1         0
      5101         1         0      5104         1         0      5108         2         0
      5124         2         0      5135         1         0      5143         1         0
      5152         1         0      5155         1         0      5158         1         0
      5161         1         0      5164         1         0      5167         1         0
      5170         1         0      5172         1         0      5174         1         0
      5177         1         0      5180         1         0      5183         1         0
      5186         1         0      5189         1         0      5192         1         0
      5195         1         0      5199         1         0      5202         1         0
      5205         1         0      5208         1         0      5211         1         0
      5214         1         0      5217         1         0      5220         1         0
      5223         1         0      5226         1         0      5229         1         0
      5232         1         0      5235         1         0      5238         1         0
      5242         2         0      5258         2         0      5269         1         0
      5277         1         0      5286         1         0      5289         1         0
      5292         1         0      5295         1         0      5298         1         0
      5301         1         0      5304         1         0      5306         1         0
      5308         1         0      5311         1         0      5314         1         0
      5317         1         0      5320         1         0      5323         1         0
      5326         1         0      5329         1         0      5333         1         0
      5336         1         0      5339         1         0      5342         1         0
      5345         1         0      5348         1         0      5351         1         0
      5354         1         0      5357         1         0      5360         1         0
      5363         1         0      5366         1         0      5369         1         0
      5372         1         0      5376         2         0      5392         2         0
      5403         1         0      5411         1         0      5420         1         0
      5423         1         0      5426         1         0      5429         1         0
      5432         1         0      5435         1         0      5438         1         0
      5440         1         0      5442         1         0      5445         1         0
      5448         1         0      5451         1         0      5454         1         0
      5457         1         0      5460         1         0      5463         1         0
      5467         1         0      5470         1         0      5473         1         0
      5476         1         0      5479         1         0      5482         1         0
      5485         1         0      5488         1         0      5491         1         0
      5494         1         0      5497         1         0      5500         1         0
      5503         1         0      5506         1         0      5510         2         0
      5526         2         0      5537         1         0      5545         1         0
      5554         1         0      5557         1         0      5560         1         0
      5563         1         0      5566         1         0      5569         1         0
      5572         1         0      5574         1         0      5576         1         0
      5579         1         0      5582         1         0      5585         1         0
      5588         1         0      5591         1         0      5594         1         0
      5597         1         0      5601         1         0      5604         1         0
      5607         1         0      5610         1         0      5613         1         0
      5616         1         0      5619         1         0      5622         1         0
      5625         1         0      5628         1         0      5631         1         0
      5634         1         0      5637         1         0      5640         1         0
      5644         2         0      5660         2         0      5671         1         0
      5679         1         0      5688         1         0      5691         1         0
      5694         1         0      5697         1         0      5700         1         0
      5703         1         0      5706         1         0      5708         1         0
      5710         1         0      5713         1         0      5716         1         0
      5719         1         0      5722         1         0      5725         1         0
      5728         1         0      5731         1         0      5735         1         0
      5738         1         0      5741         1         0      5744         1         0
      5747         1         0      5750         1         0      5753         1         0
      5756         1         0      5759         1         0      5762         1         0
      5765         1         0      5768         1         0      5771         1         0
      5774         1         0      5778         2         0      5794         2         0
      5805         1         0      5813         1         0      5822         1         0
      5825         1         0      5828         1         0      5831         1         0
      5834         1         0      5837         1         0      5840         1         0
      5842         1         0      5844         1         0      5847         1         0
      5850         1         0      5853         1         0      5856         1         0
      5859         1         0      5862         1         0      5865         1         0
      5869         1         0      5872         1         0      5875         1         0
      5878         1         0      5881         1         0      5884         1         0
      5887         1         0      5890         1         0      5893         1         0
      5896         1         0      5899         1         0      5902         1         0
      5905         1         0      5908         1         0      5912         2         0
      5928         2         0      5939         1         0      5947         1         0
      5956         1         0      5959         1         0      5962         1         0
      5965         1         0      5968         1         0      5971         1         0
      5974         1         0      5976         1         0      5978         1         0
      5981         1         0      5984         1         0      5987         1         0
      5990         1         0      5993         1         0      5996         1         0
      5999         1         0      6003         1         0      6006         1         0
      6009         1         0      6012         1         0      6015         1         0
      6018         1         0      6021         1         0      6024         1         0
      6027         1         0      6030         1         0      6033         1         0
      6036         1         0      6039         1         0      6042         1         0
      6046         2         0      6062         2         0      6073         1         0
      6081         1         0      6090         1         0      6093         1         0
      6096         1         0      6099         1         0      6102         1         0
      6105         1         0      6108         1         0      6110         1         0
      6112         1         0      6115         1         0      6118         1         0
      6121         1         0      6124         1         0      6127         1         0
      6130         1         0      6133         1         0      6137         1         0
      6140         1         0      6143         1         0      6146         1         0
      6149         1         0      6152         1         0      6155         1         0
      6158         1         0      6161         1         0      6164         1         0
      6167         1         0      6170         1         0      6173         1         0
      6176         1         0      6180         2         0      6196         2         0
      6207         1         0      6215         1         0      6224         1         0
      6227         1         0      6230         1         0      6233         1         0
      6236         1         0      6239         1         0      6242         1         0
      6244         1         0      6246         1         0      6249         1         0
      6252         1         0      6255         1         0      6258         1         0
      6261         1         0      6264         1         0      6267         1         0
      6271         1         0      6274         1         0      6277         1         0
      6280         1         0      6283         1         0      6286         1         0
      6289         1         0      6292         1         0      6295         1         0
      6298         1         0      6301         1         0      6304         1         0
      6307         1         0      6310         1         0      6314         2         0
      6330         2         0      6341         1         0      6349         1         0
      6358         1         0      6361         1         0      6364         1         0
      6367         1         0      6370         1         0      6373         1         0
      6376         1         0      6378         1         0      6380         1         0
      6383         1         0      6386         1         0      6389         1         0
      6392         1         0      6395         1         0      6398         1         0
      6401         1         0      6405         1         0      6408         1         0
      6411         1         0      6414         1         0      6417         1         0
      6420         1         0      6423         1         0      6426         1         0
      6429         1         0      6432         1         0      6435         1         0
      6438         1         0      6441         1         0      6444         1         0
      6448         2         0      6464         2         0      6475         1         0
      6483         1         0      6492         1         0      6495         1         0
      6498         1         0      6501         1         0      6504         1         0
      6507         1         0      6510         1         0      6512         1         0
      6514         1         0      6517         1         0      6520         1         0
      6523         1         0      6526         1         0      6529         1         0
      6532         1         0      6535         1         0      6539         1         0
      6542         1         0      6545         1         0      6548         1         0
      6551         1         0      6554         1         0      6557         1         0
      6560         1         0      6563         1         0      6566         1         0
      6569         1         0      6572         1         0      6575         1         0
      6578         1         0      6582         2         0      6598         2         0
      6609         1         0      6617         1         0      6626         1         0
      6629         1         0      6632         1         0      6635         1         0
      6638         1         0      6641         1         0      6644         1         0
      6646         1         0      6648         1         0      6651         1         0
      6654         1         0      6657         1         0      6660         1         0
      6663         1         0      6666         1         0      6669         1         0
      6673         1         0      6676         1         0      6679         1         0
      6682         1         0      6685         1         0      6688         1         0
      6691         1         0      6694         1         0      6697         1         0
      6700         1         0      6703         1         0      6706         1         0
      6709         1         0      6712         1         0      6716         2         0
      6732         2         0      6743         1         0      6751         1         0
      6760         1         0      6763         1         0      6766         1         0
      6769         1         0      6772         1         0      6775         1         0
      6778         1         0      6780         1         0      6782         1         0
      6785         1         0      6788         1         0      6791         1         0
      6794         1         0      6797         1         0      6800         1         0
      6803         1         0      6807         1         0      6810         1         0
      6813         1         0      6816         1         0      6819         1         0
      6822         1         0      6825         1         0      6828         1         0
      6831         1         0      6834         1         0      6837         1         0
      6840         1         0      6843         1         0      6846         1         0
      6850         2         0      6866         2         0      6877         1         0
      6885         1         0      6894         1         0      6897         1         0
      6900         1         0      6903         1         0      6906         1         0
      6909         1         0      6912         1         0      6914         1         0
      6916         1         0      6919         1         0      6922         1         0
      6925         1         0      6928         1         0      6931         1         0
      6934         1         0      6937         1         0      6941         1         0
      6944         1         0      6947         1         0      6950         1         0
      6953         1         0      6956         1         0      6959         1         0
      6962         1         0      6965         1         0      6968         1         0
      6971         1         0      6974         1         0      6977         1         0
      6980         1         0      6984         2         0      7000         2         0
      7011         1         0      7019         1         0      7028         1         0
      7031         1         0      7034         1         0      7037         1         0
      7040         1         0      7043         1         0      7046         1         0
      7048         1         0      7050         1         0      7053         1         0
      7056         1         0      7059         1         0      7062         1         0
      7065         1         0      7068         1         0      7071         1         0
      7075         1         0      7078         1         0      7081         1         0
      7084         1         0      7087         1         0      7090         1         0
      7093         1         0      7096         1         0      7099         1         0
      7102         1         0      7105         1         0      7108         1         0
      7111         1         0      7114         1         0      7118         2         0
      7134         2         0      7145         1         0      7153         1         0
      7162         1         0      7165         1         0      7168         1         0
      7171         1         0      7174         1         0      7177         1         0
      7180         1         0      7182         1         0      7184         1         0
      7187         1         0      7190         1         0      7193         1         0
      7196         1         0      7199         1         0      7202         1         0
      7205         1         0      7209         1         0      7212         1         0
      7215         1         0      7218         1         0      7221         1         0
      7224         1         0      7227         1         0      7230         1         0
      7233         1         0      7236         1         0      7239         1         0
      7242         1         0      7245         1         0      7248         1         0
      7252         2         0      7268         2         0      7279         1         0
      7287         1         0      7296         1         0      7299         1         0
      7302         1         0      7305         1         0      7308         1         0
      7311         1         0      7314         1         0      7316         1         0
      7318         1         0      7321         1         0      7324         1         0
      7327         1         0      7330         1         0      7333         1         0
      7336         1         0      7339         1         0      7343         1         0
      7346         1         0      7349         1         0      7352         1         0
      7355         1         0      7358         1         0      7361         1         0
      7364         1         0      7367         1         0      7370         1         0
      7373         1         0      7376         1         0      7379         1         0
      7382         1         0      7386         2         0      7402         2         0
      7413         1         0      7421         1         0      7430         1         0
      7433         1         0      7436         1         0      7439         1         0
      7442         1         0      7445         1         0      7448         1         0
      7450         1         0      7452         1         0      7455         1         0
      7458         1         0      7461         1         0      7464         1         0
      7467         1         0      7470         1         0      7473         1         0
      7477         1         0      7480         1         0      7483         1         0
      7486         1         0      7489         1         0      7492         1         0
      7495         1         0      7498         1         0      7501         1         0
      7504         1         0      7507         1         0      7510         1         0
      7513         1         0      7516         1         0      7520         2         0
      7536         2         0      7547         1         0      7555         1         0
      7564         1         0      7567         1         0      7570         1         0
      7573         1         0      7576         1         0      7579         1         0
      7582         1         0      7584         1         0      7586         1         0
      7589         1         0      7592         1         0      7595         1         0
      7598         1         0      7601         1         0      7604         1         0
      7607         1         0      7611         1         0      7614         1         0
      7617         1         0      7620         1         0      7623         1         0
      7626         1         0      7629         1         0      7632         1         0
      7635         1         0      7638         1         0      7641         1         0
      7644         1         0      7647         1         0      7650         1         0
      7654         2         0      7670         2         0      7681         1         0
      7689         1         0      7698         1         0      7701         1         0
      7704         1         0      7707         1         0      7710         1         0
      7713         1         0      7716         1         0      7718         1         0
      7720         1         0      7723         1         0      7726         1         0
      7729         1         0      7732         1         0      7735         1         0
      7738         1         0      7741         1         0      7745         1         0
      7748         1         0      7751         1         0      7754         1         0
      7757         1         0      7760         1         0      7763         1         0
      7766         1         0      7769         1         0      7772         1         0
      7775         1         0      7778         1         0      7781         1         0
      7784         1         0      7788         2         0      7804         2         0
      7815         1         0      7823         1         0      7832         1         0
      7835         1         0      7838         1         0      7841         1         0
      7844         1         0      7847         1         0      7850         1         0
      7852         1         0      7854         1         0      7857         1         0
      7860         1         0      7863         1         0      7866         1         0
      7869         1         0      7872         1         0      7875         1         0
      7879         1         0      7882         1         0      7885         1         0
      7888         1         0      7891         1         0      7894         1         0
      7897         1         0      7900         1         0      7903         1         0
      7906         1         0      7909         1         0      7912         1         0
      7915         1         0      7918         1         0      7922         2         0
      7938         2         0      7949         1         0      7957         1         0
      7966         1         0      7969         1         0      7972         1         0
      7975         1         0      7978         1         0      7981         1         0
      7984         1         0      7986         1         0      7988         1         0
      7991         1         0      7994         1         0      7997         1         0
      8000         1         0      8003         1         0      8006         1         0
      8009         1         0      8013         1         0      8016         1         0
      8019         1         0      8022         1         0      8025         1         0
      8028         1         0      8031         1         0      8034         1         0
      8037         1         0      8040         1         0      8043         1         0
      8046         1         0      8049         1         0      8052         1         0
      8056         2         0      8072         2         0      8083         1         0
      8091         1         0      8100         1         0      8103         1         0
      8106         1         0      8109         1         0      8112         1         0
      8115         1         0      8118         1         0      8120         1         0
      8122         1         0      8125         1         0      8128         1         0
      8131         1         0      8134         1         0      8137         1         0
      8140         1         0      8143         1         0      8147         1         0
      8150         1         0      8153         1         0      8156         1         0
      8159         1         0      8162         1         0      8165         1         0
      8168         1         0      8171         1         0      8174         1         0
      8177         1         0      8180         1         0      8183         1         0
      8186         1         0      8190         2         0      8206         2         0
      8217         1         0      8225         1         0      8234         1         0
      8237         1         0      8240         1         0      8243         1         0
      8246         1         0      8249         1         0      8252         1         0
      8254         1         0      8256         1         0      8259         1         0
      8262         1         0      8265         1         0      8268         1         0
      8271         1         0      8274         1         0      8277         1         0
      8281         1         0      8284         1         0      8287         1         0
      8290         1         0      8293         1         0      8296         1         0
      8299         1         0      8302         1         0      8305         1         0
      8308         1         0      8311         1         0      8314         1         0
      8317         1         0      8320         1         0      8324         2         0
      8340         2         0      8351         1         0      8359         1         0
      8368         1         0      8371         1         0      8374         1         0
      8377         1         0      8380         1         0      8383         1         0
      8386         1         0      8388         1         0      8390         1         0
      8393         1         0      8396         1         0      8399         1         0
      8402         1         0      8405         1         0      8408         1         0
      8411         1         0      8415         1         0      8418         1         0
      8421         1         0      8424         1         0      8427         1         0
      8430         1         0      8433         1         0      8436         1         0
      8439         1         0      8442         1         0      8445         1         0
      8448         1         0      8451         1         0      8454         1         0
      8458         2         0      8474         2         0      8485         1         0
      8493         1         0      8502         1         0      8505         1         0
      8508         1         0      8511         1         0      8514         1         0
      8517         1         0      8520         1         0      8522         1         0
      8524         1         0      8527         1         0      8530         1         0
      8533         1         0      8536         1         0      8539         1         0
      8542         1         0      8545         1         0      8549         1         0
      8552         1         0      8555         1         0      8558         1         0
      8561         1         0      8564         1         0      8567         1         0
      8570         1         0      8573         1         0      8576         1         0
      8579         1         0      8582         1         0      8585         1         0
      8588         1         0      8592         2         0      8608         2         0
      8619         1         0      8627         1         0      8636         1         0
      8639         1         0      8642         1         0      8645         1         0
      8648         1         0      8651         1         0      8654         1         0
      8656         1         0      8658         1         0      8661         1         0
      8664         1         0      8667         1         0      8670         1         0
      8673         1         0      8676         1         0      8679         1         0
      8683         1         0      8686         1         0      8689         1         0
      8692         1         0      8695         1         0      8698         1         0
      8701         1         0      8704         1         0      8707         1         0
      8710         1         0      8713         1         0      8716         1         0
      8719         1         0      8722         1         0      8726         2         0
      8742         2         0      8753         1         0      8761         1         0
      8770         1         0      8773         1         0      8776         1         0
      8779         1         0      8782         1         0      8785         1         0
      8788         1         0      8790         1         0      8792         1         0
      8795         1         0      8798         1         0      8801         1         0
      8804         1         0      8807         1         0      8810         1         0
      8813         1         0      8817         1         0      8820         1         0
      8823         1         0      8826         1         0      8829         1         0
      8832         1         0      8835         1         0      8838         1         0
      8841         1         0      8844         1         0      8847         1         0
      8850         1         0      8853         1         0      8856         1         0
      8860         2         0      8876         2         0      8887         1         0
      8895         1         0      8904         1         0      8907         1         0
      8910         1         0      8913         1         0      8916         1         0
      8919         1         0      8922         1         0      8924         1         0
      8926         1         0      8929         1         0      8932         1         0
      8935         1         0      8938         1         0      8941         1         0
      8944         1         0      8947         1         0      8951         1         0
      8954         1         0      8957         1         0      8960         1         0
      8963         1         0      8966         1         0      8969         1         0
      8972         1         0      8975         1         0      8978         1         0
      8981         1         0      8984         1         0      8987         1         0
      8990         1         0      8994         2         0      9010         2         0
      9021         1         0      9029         1         0      9038         1         0
      9041         1         0      9044         1         0      9047         1         0
      9050         1         0      9053         1         0      9056         1         0
      9058         1         0      9060         1         0      9063         1         0
      9066         1         0      9069         1         0      9072         1         0
      9075         1         0      9078         1         0      9081         1         0
      9085         1         0      9088         1         0      9091         1         0
      9094         1         0      9097         1         0      9100         1         0
      9103         1         0      9106         1         0      9109         1         0
      9112         1         0      9115         1         0      9118         1         0
      9121         1         0      9124         1         0      9128         2         0
      9144         2         0      9155         1         0      9163         1         0
      9172         1         0      9175         1         0      9178         1         0
      9181         1         0      9184         1         0      9187         1         0
      9190         1         0      9192         1         0      9194         1         0
      9197         1         0      9200         1         0      9203         1         0
      9206         1         0      9209         1         0      9212         1         0
      9215         1         0      9219         1         0      9222         1         0
      9225         1         0      9228         1         0      9231         1         0
      9234         1         0      9237         1         0      9240         1         0
      9243         1         0      9246         1         0      9249         1         0
      9252         1         0      9255         1         0      9258         1         0
      9262         2         0      9278         2         0      9289         1         0
      9297         1         0      9306         1         0      9309         1         0
      9312         1         0      9315         1         0      9318         1         0
      9321         1         0      9324         1         0      9326         1         0
      9328         1         0      9331         1         0      9334         1         0
      9337         1         0      9340         1         0      9343         1         0
      9346         1         0      9349         1         0      9353         1         0
      9356         1         0      9359         1         0      9362         1         0
      9365         1         0      9368         1         0      9371         1         0
      9374         1         0      9377         1         0      9380         1         0
      9383         1         0      9386         1         0      9389         1         0
      9392         1         0      9396         2         0      9412         2         0
      9423         1         0      9431         1         0      9440         1         0
      9443         1         0      9446         1         0      9449         1         0
      9452         1         0      9455         1         0      9458         1         0
      9460         1         0      9462         1         0      9465         1         0
      9468         1         0      9471         1         0      9474         1         0
      9477         1         0      9480         1         0      9483         1         0
      9487         1         0      9490         1         0      9493         1         0
      9496         1         0      9499         1         0      9502         1         0
      9505         1         0      9508         1         0      9511         1         0
      9514         1         0      9517         1         0      9520         1         0
      9523         1         0      9526         1         0      9530         2         0
      9546         2         0      9557         1         0      9565         1         0
      9574         1         0      9577         1         0      9580         1         0
      9583         1         0      9586         1         0      9589         1         0
      9592         1         0      9594         1         0      9596         1         0
      9599         1         0      9602         1         0      9605         1         0
      9608         1         0      9611         1         0      9614         1         0
      9617         1         0      9621         1         0      9624         1         0
      9627         1         0      9630         1         0      9633         1         0
      9636         1         0      9639         1         0      9642         1         0
      9645         1         0      9648         1         0      9651         1         0
      9654         1         0      9657         1         0      9660         1         0
      9664         2         0      9680         2         0      9691         1         0
      9699         1         0      9708         1         0      9711         1         0
      9714         1         0      9717         1         0      9720         1         0
      9723         1         0      9726         1         0      9728         1         0
      9730         1         0      9733         1         0      9736         1         0
      9739         1         0      9742         1         0      9745         1         0
      9748         1         0      9751         1         0      9755         1         0
      9758         1         0      9761         1         0      9764         1         0
      9767         1         0      9770         1         0      9773         1         0
      9776         1         0      9779         1         0      9782         1         0
      9785         1         0      9788         1         0      9791         1         0
      9794         1         0      9798         2         0      9814         2         0
      9825         1         0      9833         1         0      9842         1         0
      9845         1         0      9848         1         0      9851         1         0
      9854         1         0      9857         1         0      9860         1         0
      9862         1         0      9864         1         0      9867         1         0
      9870         1         0      9873         1         0      9876         1         0
      9879         1         0      9882         1         0      9885         1         0
      9889         1         0      9892         1         0      9895         1         0
      9898         1         0      9901         1         0      9904         1         0
      9907         1         0      9910         1         0      9913         1         0
      9916         1         0      9919         1         0      9922         1         0
      9925         1         0      9928         1         0      9932         2         0
      9948         2         0      9959         1         0      9967         1         0
      9976         1         0      9979         1         0      9982         1         0
      9985         1         0      9988         1         0      9991         1         0
      9994         1         0      9996         1         0      9998         1         0
     10001         1         0     10004         1         0     10007         1         0
     10010         1         0     10013         1         0     10016         1         0
     10019         1         0     10023         1         0     10026         1         0
     10029         1         0     10032         1         0     10035         1         0
     10038         1         0     10041         1         0     10044         1         0
     10047         1         0     10050         1         0     10053         1         0
     10056         1         0     10059         1         0     10062         1         0
     10066         2         0     10082         2         0     10093         1         0
     10101         1         0     10110         1         0     10113         1         0
     10116         1         0     10119         1         0     10122         1         0
     10125         1         0     10128         1         0     10130         1         0
     10132         1         0     10135         1         0     10138         1         0
     10141         1         0     10144         1         0     10147         1         0
     10150         1         0     10153         1         0     10157         1         0
     10160         1         0     10163         1         0     10166         1         0
     10169         1         0     10172         1         0     10175         1         0
     10178         1         0     10181         1         0     10184         1         0
     10187         1         0     10190         1         0     10193         1         0
     10196         1         0     10200         2         0     10216         2         0
     10227         1         0     10235         1         0     10244         1         0
     10247         1         0     10250         1         0     10253         1         0
     10256         1         0     10259         1         0     10262         1         0
     10264         1         0     10266         1         0     10269         1         0
     10272         1         0     10275         1         0     10278         1         0
     10281         1         0     10284         1         0     10287         1         0
     10291         1         0     10294         1         0     10297         1         0
     10300         1         0     10303         1         0     10306         1         0
     10309         1         0     10312         1         0     10315         1         0
     10318         1         0     10321         1         0     10324         1         0
     10327         1         0     10330         1         0     10334         2         0
     10350         2         0     10361         1         0     10369         1         0
     10378         1         0     10381         1         0     10384         1         0
     10387         1         0     10390         1         0     10393         1         0
     10396         1         0     10398         1         0     10400         1         0
     10403         1         0     10406         1         0     10409         1         0
     10412         1         0     10415         1         0     10418         1         0
     10421         1         0     10425         1         0     10428         1         0
     10431         1         0     10434         1         0     10437         1         0
     10440         1         0     10443         1         0     10446         1         0
     10449         1         0     10452         1         0     10455         1         0
     10458         1         0     10461         1         0     10464         1         0
     10468         2         0     10484         2         0     10495         1         0
     10503         1         0     10512         1         0     10515         1         0
     10518         1         0     10521         1         0     10524         1         0
     10527         1         0     10530         1         0     10532         1         0
     10534         1         0     10537         1         0     10540         1         0
     10543         1         0     10546         1         0     10549         1         0
     10552         1         0     10555         1         0     10559         1         0
     10562         1         0     10565         1         0     10568         1         0
     10571         1         0     10574         1         0     10577         1         0
     10580         1         0     10583         1         0     10586         1         0
     10589         1         0     10592         1         0     10595         1         0
     10598         1         0     10602         2         0     10618         2         0
     10629         1         0     10637         1         0     10646         1         0
     10649         1         0     10652         1         0     10655         1         0
     10658         1         0     10661         1         0     10664         1         0
     10666         1         0     10668         1         0     10671         1         0
     10674         1         0     10677         1         0     10680         1         0
     10683         1         0     10686         1         0     10689         1         0
     10693         1         0     10696         1         0     10699         1         0
     10702         1         0     10705         1         0     10708         1         0
     10711         1         0     10714         1         0     10717         1         0
     10720         1         0     10723         1         0     10726         1         0
     10729         1         0     10732         1         0     10736         2         0
     10752         2         0     10763         1         0     10771         1         0
     10780         1         0     10783         1         0     10786         1         0
     10789         1         0     10792         1         0     10795         1         0
     10798         1         0     10800         1         0     10802         1         0
     10805         1         0     10808         1         0     10811         1         0
     10814         1         0     10817         1         0     10820         1         0
     10823         1         0     10827         1         0     10830         1         0
     10833         1         0     10836         1         0     10839         1         0
     10842         1         0     10845         1         0     10848         1         0
     10851         1         0     10854         1         0     10857         1         0
     10860         1         0     10863         1         0     10866         1         0
     10870         2         0     10886         2         0     10897         1         0
     10905         1         0     10914         1         0     10917         1         0
     10920         1         0     10923         1         0     10926         1         0
     10929         1         0     10932         1         0     10934         1         0
     10936         1         0     10939         1         0     10942         1         0
     10945         1         0     10948         1         0     10951         1         0
     10954         1         0     10957         1         0     10961         1         0
     10964         1         0     10967         1         0     10970         1         0
     10973         1         0     10976         1         0     10979         1         0
     10982         1         0     10985         1         0     10988         1         0
     10991         1         0     10994         1         0     10997         1         0
     11000         1         0     11004         2         0     11020         2         0
     11031         1         0     11039         1         0     11048         1         0
     11051         1         0     11054         1         0     11057         1         0
     11060         1         0     11063         1         0     11066         1         0
     11068         1         0     11070         1         0     11073         1         0
     11076         1         0     11079         1         0     11082         1         0
     11085         1         0     11088         1         0     11091         1         0
     11095         1         0     11098         1         0     11101         1         0
     11104         1         0     11107         1         0     11110         1         0
     11113         1         0     11116         1         0     11119         1         0
     11122         1         0     11125         1         0     11128         1         0
     11131         1         0     11134         1         0     11138         2         0
     11154         2         0     11165         1         0     11173         1         0
     11182         1         0     11185         1         0     11188         1         0
     11191         1         0     11194         1         0     11197         1         0
     11200         1         0     11202         1         0     11204         1         0
     11207         1         0     11210         1         0     11213         1         0
     11216         1         0     11219         1         0     11222         1         0
     11225         1         0     11229         1         0     11232         1         0
     11235         1         0     11238         1         0     11241         1         0
     11244         1         0     11247         1         0     11250         1         0
     11253         1         0     11256         1         0     11259         1         0
     11262         1         0     11265         1         0     11268         1         0
     11272         2         0     11288         2         0     11299         1         0
     11307         1         0     11316         1         0     11319         1         0
     11322         1         0     11325         1         0     11328         1         0
     11331         1         0     11334         1         0     11336         1         0
     11338         1         0     11341         1         0     11344         1         0
     11347         1         0     11350         1         0     11353         1         0
     11356         1         0     11359         1         0     11363         1         0
     11366         1         0     11369         1         0     11372         1         0
     11375         1         0     11378         1         0     11381         1         0
     11384         1         0     11387         1         0     11390         1         0
     11393         1         0     11396         1         0     11399         1         0
     11402         1         0     11406         2         0     11422         2         0
     11433         1         0     11441         1         0     11450         1         0
     11453         1         0     11456         1         0     11459         1         0
     11462         1         0     11465         1         0     11468         1         0
     11470         1         0     11472         1         0     11475         1         0
     11478         1         0     11481         1         0     11484         1         0
     11487         1         0     11490         1         0     11493         1         0
     11497         1         0     11500         1         0     11503         1         0
     11506         1         0     11509         1         0     11512         1         0
     11515         1         0     11518         1         0     11521         1         0
     11524         1         0     11527         1         0     11530         1         0
     11533         1         0     11536         1         0     11540         2         0
     11556         2         0     11567         1         0     11575         1         0
     11584         1         0     11587         1         0     11590         1         0
     11593         1         0     11596         1         0     11599         1         0
     11602         1         0     11604         1         0     11606         1         0
     11609         1         0     11612         1         0     11615         1         0
     11618         1         0     11621         1         0     11624         1         0
     11627         1         0     11631         1         0     11634         1         0
     11637         1         0     11640         1         0     11643         1         0
     11646         1         0     11649         1         0     11652         1         0
     11655         1         0     11658         1         0     11661         1         0
     11664         1         0     11667         1         0     11670         1         0
     11674         2         0     11690         2         0     11701         1         0
     11709         1         0     11718         1         0     11721         1         0
     11724         1         0     11727         1         0     11730         1         0
     11733         1         0     11736         1         0     11738         1         0
     11740         1         0     11743         1         0     11746         1         0
     11749         1         0     11752         1         0     11755         1         0
     11758         1         0     11761         1         0     11765         1         0
     11768         1         0     11771         1         0     11774         1         0
     11777         1         0     11780         1         0     11783         1         0
     11786         1         0     11789         1         0     11792         1         0
     11795         1         0     11798         1         0     11801         1         0
     11804         1         0     11808         2         0     11824         2         0
     11835         1         0     11843         1         0     11852         1         0
     11855         1         0     11858         1         0     11861         1         0
     11864         1         0     11867         1         0     11870         1         0
     11872         1         0     11874         1         0     11877         1         0
     11880         1         0     11883         1         0     11886         1         0
     11889         1         0     11892         1         0     11895         1         0
     11899         1         0     11902         1         0     11905         1         0
     11908         1         0     11911         1         0     11914         1         0
     11917         1         0     11920         1         0     11923         1         0
     11926         1         0     11929         1         0     11932         1         0
     11935         1         0     11938         1         0     11942         2         0
     11958         2         0     11969         1         0     11977         1         0
     11986         1         0     11989         1         0     11992         1         0
     11995         1         0     11998         1         0     12001         1         0
     12004         1         0     12006         1         0     12008         1         0
     12011         1         0     12014         1         0     12017         1         0
     12020         1         0     12023         1         0     12026         1         0
     12029         1         0     12033         1         0     12036         1         0
     12039         1         0     12042         1         0     12045         1         0
     12048         1         0     12051         1         0     12054         1         0
     12057         1         0     12060         1         0     12063         1         0
     12066         1         0     12069         1         0     12072         1         0
     12076         2         0     12092         2         0     12103         1         0
     12111         1         0     12120         1         0     12123         1         0
     12126         1         0     12129         1         0     12132         1         0
     12135         1         0     12138         1         0     12140         1         0
     12142         1         0     12145         1         0     12148         1         0
     12151         1         0     12154         1         0     12157         1         0
     12160         1         0     12163         1         0     12167         1         0
     12170         1         0     12173         1         0     12176         1         0
     12179         1         0     12182         1         0     12185         1         0
     12188         1         0     12191         1         0     12194         1         0
     12197         1         0     12200         1         0     12203         1         0
     12206         1         0     12210         2         0     12226         2         0
     12237         1         0     12245         1         0     12254         1         0
     12257         1         0     12260         1         0     12263         1         0
     12266         1         0     12269         1         0     12272         1         0
     12274         1         0     12276         1         0     12279         1         0
     12282         1         0     12285         1         0     12288         1         0
     12291         1         0     12294         1         0     12297         1         0
     12301         1         0     12304         1         0     12307         1         0
     12310         1         0     12313         1         0     12316         1         0
     12319         1         0     12322         1         0     12325         1         0
     12328         1         0     12331         1         0     12334         1         0
     12337         1         0     12340         1         0     12344         2         0
     12360         2         0     12371         1         0     12379         1         0
     12388         1         0     12391         1         0     12394         1         0
     12397         1         0     12400         1         0     12403         1         0
     12406         1         0     12408         1         0     12410         1         0
     12413         1         0     12416         1         0     12419         1         0
     12422         1         0     12425         1         0     12428         1         0
     12431         1         0     12435         1         0     12438         1         0
     12441         1         0     12444         1         0     12447         1         0
     12450         1         0     12453         1         0     12456         1         0
     12459         1         0     12462         1         0     12465         1         0
     12468         1         0     12471         1         0     12474         1         0
     12478         2         0     12494         2         0     12505         1         0
     12513         1         0     12522         1         0     12525         1         0
     12528         1         0     12531         1         0     12534         1         0
     12537         1         0     12540         1         0     12542         1         0
     12544         1         0     12547         1         0     12550         1         0
     12553         1         0     12556         1         0     12559         1         0
     12562         1         0     12565         1         0     12569         1         0
     12572         1         0     12575         1         0     12578         1         0
     12581         1         0     12584         1         0     12587         1         0
     12590         1         0     12593         1         0     12596         1         0
     12599         1         0     12602         1         0     12605         1         0
     12608         1         0     12612         2         0     12628         2         0
     12639         1         0     12647         1         0     12656         1         0
     12659         1         0     12662         1         0     12665         1         0
     12668         1         0     12671         1         0     12674         1         0
     12676         1         0     12678         1         0     12681         1         0
     12684         1         0     12687         1         0     12690         1         0
     12693         1         0     12696         1         0     12699         1         0
     12703         1         0     12706         1         0     12709         1         0
     12712         1         0     12715         1         0     12718         1         0
     12721         1         0     12724         1         0     12727         1         0
     12730         1         0     12733         1         0     12736         1         0
     12739         1         0     12742         1         0     12746         2         0
     12762         2         0     12773         1         0     12781         1         0
     12790         1         0     12793         1         0     12796         1         0
     12799         1         0     12802         1         0     12805         1         0
     12808         1         0     12810         1         0     12812         1         0
     12815         1         0     12818         1         0     12821         1         0
     12824         1         0     12827         1         0     12830         1         0
     12833         1         0     12837         1         0     12840         1         0
     12843         1         0     12846         1         0     12849         1         0
     12852         1         0     12855         1         0     12858         1         0
     12861         1         0     12864         1         0     12867         1         0
     12870         1         0     12873         1         0     12876         1         0
     12880         2         0     12896         2         0     12907         1         0
     12915         1         0     12924         1         0     12927         1         0
     12930         1         0     12933         1         0     12936         1         0
     12939         1         0     12942         1         0     12944         1         0
     12946         1         0     12949         1         0     12952         1         0
     12955         1         0     12958         1         0     12961         1         0
     12964         1         0     12967         1         0     12971         1         0
     12974         1         0     12977         1         0     12980         1         0
     12983         1         0     12986         1         0     12989         1         0
     12992         1         0     12995         1         0     12998         1         0
     13001         1         0     13004         1         0     13007         1         0
     13010         1         0     13014         2         0     13030         2         0
     13041         1         0     13049         1         0     13058         1         0
     13061         1         0     13064         1         0     13067         1         0
     13070         1         0     13073         1         0     13076         1         0
     13078         1         0     13080         1         0     13083         1         0
     13086         1         0     13089         1         0     13092         1         0
     13095         1         0     13098         1         0     13101         1         0
     13105         1         0     13108         1         0     13111         1         0
     13114         1         0     13117         1         0     13120         1         0
     13123         1         0     13126         1         0     13129         1         0
     13132         1         0     13135         1         0     13138         1         0
     13141         1         0     13144         1         0     13148         2         0
     13164         2         0     13175         1         0     13183         1         0
     13192         1         0     13195         1         0     13198         1         0
     13201         1         0     13204         1         0     13207         1         0
     13210         1         0     13212         1         0     13214         1         0
     13217         1         0     13220         1         0     13223         1         0
     13226         1         0     13229         1         0     13232         1         0
     13235         1         0     13239         1         0     13242         1         0
     13245         1         0     13248         1         0     13251         1         0
     13254         1         0     13257         1         0     13260         1         0
     13263         1         0     13266         1         0     13269         1         0
     13272         1         0     13275         1         0     13278         1         0
     13282         2         0     13298         2         0     13309         1         0
     13317         1         0     13326         1         0     13329         1         0
     13332         1         0     13335         1         0     13338         1         0
     13341         1         0     13344         1         0     13346         1         0
     13348         1         0     13351         1         0     13354         1         0
     13357         1         0     13360         1         0     13363         1         0
     13366         1         0     13369         1         0     13373         1         0
     13376         1         0     13379         1         0     13382         1         0
     13385         1         0     13388         1         0     13391         1         0
     13394         1         0     13397         1         0     13400         1         0
     13403         1         0     13406         1         0     13409         1         0
     13412         1         0     13416         2         0     13432         2         0
     13443         1         0     13451         1         0     13460         1         0
     13463         1         0     13466         1         0     13469         1         0
     13472         1         0     13475         1         0     13478         1         0
     13480         1         0     13482         1         0     13485         1         0
     13488         1         0     13491         1         0     13494         1         0
     13497         1         0     13500         1         0     13503         1         0
     13507         1         0     13510         1         0     13513         1         0
     13516         1         0     13519         1         0     13522         1         0
     13525         1         0     13528         1         0     13531         1         0
     13534         1         0     13537         1         0     13540         1         0
     13543         1         0     13546         1         0     13550         2         0
     13566         2         0     13577         1         0     13585         1         0
     13594         1         0     13597         1         0     13600         1         0
     13603         1         0     13606         1         0     13609         1         0
     13612         1         0     13614         1         0     13616         1         0
     13619         1         0     13622         1         0     13625         1         0
     13628         1         0     13631         1         0     13634         1         0
     13637         1         0     13641         1         0     13644         1         0
     13647         1         0     13650         1         0     13653         1         0
     13656         1         0     13659         1         0     13662         1         0
     13665         1         0     13668         1         0     13671         1         0
     13674         1         0     13677         1         0     13680         1         0
     13684         2         0     13700         2         0     13711         1         0
     13719         1         0     13728         1         0     13731         1         0
     13734         1         0     13737         1         0     13740         1         0
     13743         1         0     13746         1         0     13748         1         0
     13750         1         0     13753         1         0     13756         1         0
     13759         1         0     13762         1         0     13765         1         0
     13768         1         0     13771         1         0     13775         1         0
     13778         1         0     13781         1         0     13784         1         0
     13787         1         0     13790         1         0     13793         1         0
     13796         1         0     13799         1         0     13802         1         0
     13805         1         0     13808         1         0     13811         1         0
     13814         1         0     13818         2         0     13834         2         0
     13845         1         0     13853         1         0     13862         1         0
     13865         1         0     13868         1         0     13871         1         0
     13874         1         0     13877         1         0     13880         1         0
     13882         1         0     13884         1         0     13887         1         0
     13890         1         0     13893         1         0     13896         1         0
     13899         1         0     13902         1         0     13905         1         0
     13909         1         0     13912         1         0     13915         1         0
     13918         1         0     13921         1         0     13924         1         0
     13927         1         0     13930         1         0     13933         1         0
     13936         1         0     13939         1         0     13942         1         0
     13945         1         0     13948         1         0     13952         2         0
     13968         2         0     13979         1         0     13987         1         0
     13996         1         0     13999         1         0     14002         1         0
     14005         1         0     14008         1         0     14011         1         0
     14014         1         0     14016         1         0     14018         1         0
     14021         1         0     14024         1         0     14027         1         0
     14030         1         0     14033         1         0     14036         1         0
     14039         1         0     14043         1         0     14046         1         0
     14049         1         0     14052         1         0     14055         1         0
     14058         1         0     14061         1         0     14064         1         0
     14067         1         0     14070         1         0     14073         1         0
     14076         1         0     14079         1         0     14082         1         0
     14086         2         0     14102         2         0     14113         1         0
     14121         1         0     14130         1         0     14133         1         0
     14136         1         0     14139         1         0     14142         1         0
     14145         1         0     14148         1         0     14150         1         0
     14152         1         0     14155         1         0     14158         1         0
     14161         1         0     14164         1         0     14167         1         0
     14170         1         0     14173         1         0     14177         1         0
     14180         1         0     14183         1         0     14186         1         0
     14189         1         0     14192         1         0     14195         1         0
     14198         1         0     14201         1         0     14204         1         0
     14207         1         0     14210         1         0     14213         1         0
     14216         1         0     14220         2         0     14236         2         0
     14247         1         0     14255         1         0     14264         1         0
     14267         1         0     14270         1         0     14273         1         0
     14276         1         0     14279         1         0     14282         1         0
     14284         1         0     14286         1         0     14289         1         0
     14292         1         0     14295         1         0     14298         1         0
     14301         1         0     14304         1         0     14307         1         0
     14311         1         0     14314         1         0     14317         1         0
     14320         1         0     14323         1         0     14326         1         0
     14329         1         0     14332         1         0     14335         1         0
     14338         1         0     14341         1         0     14344         1         0
     14347         1         0     14350         1         0     14354         2         0
     14370         2         0     14381         1         0     14389         1         0
     14398         1         0     14401         1         0     14404         1         0
     14407         1         0     14410         1         0     14413         1         0
     14416         1         0     14418         1         0     14420         1         0
     14423         1         0     14426         1         0     14429         1         0
     14432         1         0     14435         1         0     14438         1         0
     14441         1         0     14445         1         0     14448         1         0
     14451         1         0     14454         1         0     14457         1         0
     14460         1         0     14463         1         0     14466         1         0
     14469         1         0     14472         1         0     14475         1         0
     14478         1         0     14481         1         0     14484         1         0
     14488         2         0     14504         2         0     14515         1         0
     14523         1         0     14532         1         0     14535         1         0
     14538         1         0     14541         1         0     14544         1         0
     14547         1         0     14550         1         0     14552         1         0
     14554         1         0     14557         1         0     14560         1         0
     14563         1         0     14566         1         0     14569         1         0
     14572         1         0     14575         1         0     14579         1         0
     14582         1         0     14585         1         0     14588         1         0
     14591         1         0     14594         1         0     14597         1         0
     14600         1         0     14603         1         0     14606         1         0
     14609         1         0     14612         1         0     14615         1         0
     14618         1         0     14622         2         0     14638         2         0
     14649         1         0     14657         1         0     14666         1         0
     14669         1         0     14672         1         0     14675         1         0
     14678         1         0     14681         1         0     14684         1         0
     14686         1         0     14688         1         0     14691         1         0
     14694         1         0     14697         1         0     14700         1         0
     14703         1         0     14706         1         0     14709         1         0
     14713         1         0     14716         1         0     14719         1         0
     14722         1         0     14725         1         0     14728         1         0
     14731         1         0     14734         1         0     14737         1         0
     14740         1         0     14743         1         0     14746         1         0
     14749         1         0     14752         1         0     14756         2         0
     14772         2         0     14783         1         0     14791         1         0
     14800         1         0     14803         1         0     14806         1         0
     14809         1         0     14812         1         0     14815         1         0
     14818         1         0     14820         1         0     14822         1         0
     14825         1         0     14828         1         0     14831         1         0
     14834         1         0     14837         1         0     14840         1         0
     14843         1         0     14847         1         0     14850         1         0
     14853         1         0     14856         1         0     14859         1         0
     14862         1         0     14865         1         0     14868         1         0
     14871         1         0     14874         1         0     14877         1         0
     14880         1         0     14883         1         0     14886         1         0
     14890         2         0     14906         2         0     14917         1         0
     14925         1         0     14934         1         0     14937         1         0
     14940         1         0     14943         1         0     14946         1         0
     14949         1         0     14952         1         0     14954         1         0
     14956         1         0     14959         1         0     14962         1         0
     14965         1         0     14968         1         0     14971         1         0
     14974         1         0     14977         1         0     14981         1         0
     14984         1         0     14987         1         0     14990         1         0
     14993         1         0     14996         1         0     14999         1         0
     15002         1         0     15005         1         0     15008         1         0
     15011         1         0     15014         1         0     15017         1         0
     15020         1         0     15024         2         0     15040         2         0
     15051         1         0     15059         1         0     15068         1         0
     15071         1         0     15074         1         0     15077         1         0
     15080         1         0     15083         1         0     15086         1         0
     15088         1         0     15090         1         0     15093         1         0
     15096         1         0     15099         1         0     15102         1         0
     15105         1         0     15108         1         0     15111         1         0
     15115         1         0     15118         1         0     15121         1         0
     15124         1         0     15127         1         0     15130         1         0
     15133         1         0     15136         1         0     15139         1         0
     15142         1         0     15145         1         0     15148         1         0
     15151         1         0     15154         1         0     15158         2         0
     15174         2         0     15185         1         0     15193         1         0
     15202         1         0     15205         1         0     15208         1         0
     15211         1         0     15214         1         0     15217         1         0
     15220         1         0     15222         1         0     15224         1         0
     15227         1         0     15230         1         0     15233         1         0
     15236         1         0     15239         1         0     15242         1         0
     15245         1         0     15249         1         0     15252         1         0
     15255         1         0     15258         1         0     15261         1         0
     15264         1         0     15267         1         0     15270         1         0
     15273         1         0     15276         1         0     15279         1         0
     15282         1         0     15285         1         0     15288         1         0
     15292         2         0     15308         2         0     15319         1         0
     15327         1         0     15336         1         0     15339         1         0
     15342         1         0     15345         1         0     15348         1         0
     15351         1         0     15354         1         0     15356         1         0
     15358         1         0     15361         1         0     15364         1         0
     15367         1         0     15370         1         0     15373         1         0
     15376         1         0     15379         1         0     15383         1         0
     15386         1         0     15389         1         0     15392         1         0
     15395         1         0     15398         1         0     15401         1         0
     15404         1         0     15407         1         0     15410         1         0
     15413         1         0     15416         1         0     15419         1         0
     15422         1         0     15426         2         0     15442         2         0
     15453         1         0     15461         1         0     15470         1         0
     15473         1         0     15476         1         0     15479         1         0
     15482         1         0     15485         1         0     15488         1         0
     15490         1         0     15492         1         0     15495         1         0
     15498         1         0     15501         1         0     15504         1         0
     15507         1         0     15510         1         0     15513         1         0
     15517         1         0     15520         1         0     15523         1         0
     15526         1         0     15529         1         0     15532         1         0
     15535         1         0     15538         1         0     15541         1         0
     15544         1         0     15547         1         0     15550         1         0
     15553         1         0     15556         1         0     15560         2         0
     15576         2         0     15587         1         0     15595         1         0
     15604         1         0     15607         1         0     15610         1         0
     15613         1         0     15616         1         0     15619         1         0
     15622         1         0     15624         1         0     15626         1         0
     15629         1         0     15632         1         0     15635         1         0
     15638         1         0     15641         1         0     15644         1         0
     15647         1         0     15651         1         0     15654         1         0
     15657         1         0     15660         1         0     15663         1         0
     15666         1         0     15669         1         0     15672         1         0
     15675         1         0     15678         1         0     15681         1         0
     15684         1         0     15687         1         0     15690         1         0
     15694         2         0     15710         2         0     15721         1         0
     15729         1         0     15738         1         0     15741         1         0
     15744         1         0     15747         1         0     15750         1         0
     15753         1         0     15756         1         0     15758         1         0
     15760         1         0     15763         1         0     15766         1         0
     15769         1         0     15772         1         0     15775         1         0
     15778         1         0     15781         1         0     15785         1         0
     15788         1         0     15791         1         0     15794         1         0
     15797         1         0     15800         1         0     15803         1         0
     15806         1         0     15809         1         0     15812         1         0
     15815         1         0     15818         1         0     15821         1         0
     15824         1         0     15828         2         0     15844         2         0
     15855         1         0     15863         1         0     15872         1         0
     15875         1         0     15878         1         0     15881         1         0
     15884         1         0     15887         1         0     15890         1         0
     15892         1         0     15894         1         0     15897         1         0
     15900         1         0     15903         1         0     15906         1         0
     15909         1         0     15912         1         0     15915         1         0
     15919         1         0     15922         1         0     15925         1         0
     15928         1         0     15931         1         0     15934         1         0
     15937         1         0     15940         1         0     15943         1         0
     15946         1         0     15949         1         0     15952         1         0
     15955         1         0     15958         1         0     15962         2         0
     15978         2         0     15989         1         0     15997         1         0
     16006         1         0     16009         1         0     16012         1         0
     16015         1         0     16018         1         0     16021         1         0
     16024         1         0     16026         1         0     16028         1         0
     16031         1         0     16034         1         0     16037         1         0
     16040         1         0     16043         1         0     16046         1         0
     16049         1         0     16053         1         0     16056         1         0
     16059         1         0     16062         1         0     16065         1         0
     16068         1         0     16071         1         0     16074         1         0
     16077         1         0     16080         1         0     16083         1         0
     16086         1         0     16089         1         0     16092         1         0
     16096         2         0     16112         2         0     16123         1         0
     16131         1         0     16140         1         0     16143         1         0
     16146         1         0     16149         1         0     16152         1         0
     16155         1         0     16158         1         0     16160         1         0
     16162         1         0     16165         1         0     16168         1         0
     16171         1         0     16174         1         0     16177         1         0
     16180         1         0     16183         1         0     16187         1         0
     16190         1         0     16193         1         0     16196         1         0
     16199         1         0     16202         1         0     16205         1         0
     16208         1         0     16211         1         0     16214         1         0
     16217         1         0     16220         1         0     16223         1         0
     16226         1         0     16230         2         0     16246         2         0
     16257         1         0     16265         1         0     16274         1         0
     16277         1         0     16280         1         0     16283         1         0
     16286         1         0     16289         1         0     16292         1         0
     16294         1         0     16296         1         0     16299         1         0
     16302         1         0     16305         1         0     16308         1         0
     16311         1         0     16314         1         0     16317         1         0
     16321         1         0     16324         1         0     16327         1         0
     16330         1         0     16333         1         0     16336         1         0
     16339         1         0     16342         1         0     16345         1         0
     16348         1         0     16351         1         0     16354         1         0
     16357         1         0     16360         1         0     16364         2         0
     16380         2         0     16391         1         0     16399         1         0
     16408         1         0     16411         1         0     16414         1         0
     16417         1         0     16420         1         0     16423         1         0
     16426         1         0     16428         1         0     16430         1         0
     16433         1         0     16436         1         0     16439         1         0
     16442         1         0     16445         1         0     16448         1         0
     16451         1         0     16455         1         0     16458         1         0
     16461         1         0     16464         1         0     16467         1         0
     16470         1         0     16473         1         0     16476         1         0
     16479         1         0     16482         1         0     16485         1         0
     16488         1         0     16491         1         0     16494         1         0
     16498         2         0     16514         2         0     16525         1         0
     16533         1         0     16542         1         0     16545         1         0
     16548         1         0     16551         1         0     16554         1         0
     16557         1         0     16560         1         0     16562         1         0
     16564         1         0     16567         1         0     16570         1         0
     16573         1         0     16576         1         0     16579         1         0
     16582         1         0     16585         1         0     16589         1         0
     16592         1         0     16595         1         0     16598         1         0
     16601         1         0     16604         1         0     16607         1         0
     16610         1         0     16613         1         0     16616         1         0
     16619         1         0     16622         1         0     16625         1         0
     16628         1         0     16632         2         0     16648         2         0
     16659         1         0     16667         1         0     16676         1         0
     16679         1         0     16682         1         0     16685         1         0
     16688         1         0     16691         1         0     16694         1         0
     16696         1         0     16698         1         0     16701         1         0
     16704         1         0     16707         1         0     16710         1         0
     16713         1         0     16716         1         0     16719         1         0
     16723         1         0     16726         1         0     16729         1         0
     16732         1         0     16735         1         0     16738         1         0
     16741         1         0     16744         1         0     16747         1         0
     16750         1         0     16753         1         0     16756         1         0
     16759         1         0     16762         1         0     16766         2         0
     16782         2         0     16793         1         0     16801         1         0
     16810         1         0     16813         1         0     16816         1         0
     16819         1         0     16822         1         0     16825         1         0
     16828         1         0     16830         1         0     16832         1         0
     16835         1         0     16838         1         0     16841         1         0
     16844         1         0     16847         1         0     16850         1         0
     16853         1         0     16857         1         0     16860         1         0
     16863         1         0     16866         1         0     16869         1         0
     16872         1         0     16875         1         0     16878         1         0
     16881         1         0     16884         1         0     16887         1         0
     16890         1         0     16893         1         0     16896         1         0
     16900         2         0     16916         2         0     16927         1         0
     16935         1         0     16944         1         0     16947         1         0
     16950         1         0     16953         1         0     16956         1         0
     16959         1         0     16962         1         0     16964         1         0
     16966         1         0     16969         1         0     16972         1         0
     16975         1         0     16978         1         0     16981         1         0
     16984         1         0     16987         1         0     16991         1         0
     16994         1         0     16997         1         0     17000         1         0
     17003         1         0     17006         1         0     17009         1         0
     17012         1         0     17015         1         0     17018         1         0
     17021         1         0     17024         1         0     17027         1         0
     17030         1         0     17034         2         0     17050         2         0
     17061         1         0     17069         1         0     17078         1         0
     17081         1         0     17084         1         0     17087         1         0
     17090         1         0     17093         1         0     17096         1         0
     17098         1         0     17100         1         0     17103         1         0
     17106         1         0     17109         1         0     17112         1         0
     17115         1         0     17118         1         0     17121         1         0
     17125         1         0     17128         1         0     17131         1         0
     17134         1         0     17137         1         0     17140         1         0
     17143         1         0     17146         1         0     17149         1         0
     17152         1         0     17155         1         0     17158         1         0
     17161         1         0     17164         1         0     17168         2         0
     17184         2         0     17195         1         0     17203         1         0
     17212         1         0     17215         1         0     17218         1         0
     17221         1         0     17224         1         0     17227         1         0
     17230         1         0     17232         1         0     17234         1         0
     17237         1         0     17240         1         0     17243         1         0
     17246         1         0     17249         1         0     17252         1         0
     17255         1         0     17259         1         0     17262         1         0
     17265         1         0     17268         1         0     17271         1         0
     17274         1         0     17277         1         0     17280         1         0
     17283         1         0     17286         1         0     17289         1         0
     17292         1         0     17295         1         0     17298         1         0
     17302         2         0     17318         2         0     17329         1         0
     17337         1         0     17346         1         0     17349         1         0
     17352         1         0     17355         1         0     17358         1         0
     17361         1         0     17364         1         0     17366         1         0
     17368         1         0     17371         1         0     17374         1         0
     17377         1         0     17380         1         0     17383         1         0
     17386         1         0     17389         1         0     17393         1         0
     17396         1         0     17399         1         0     17402         1         0
     17405         1         0     17408         1         0     17411         1         0
     17414         1         0     17417         1         0     17420         1         0
     17423         1         0     17426         1         0     17429         1         0
     17432         1         0     17436         2         0     17452         2         0
     17463         1         0     17471         1         0     17480         1         0
     17483         1         0     17486         1         0     17489         1         0
     17492         1         0     17495         1         0     17498         1         0
     17500         1         0     17502         1         0     17505         1         0
     17508         1         0     17511         1         0     17514         1         0
     17517         1         0     17520         1         0     17523         1         0
     17527         1         0     17530         1         0     17533         1         0
     17536         1         0     17539         1         0     17542         1         0
     17545         1         0     17548         1         0     17551         1         0
     17554         1         0     17557         1         0     17560         1         0
     17563         1         0     17566         1         0     17570         2         0
     17586         2         0     17597         1         0     17605         1         0
     17614         1         0     17617         1         0     17620         1         0
     17623         1         0     17626         1         0     17629         1         0
     17632         1         0     17634         1         0     17636         1         0
     17639         1         0     17642         1         0     17645         1         0
     17648         1         0     17651         1         0     17654         1         0
     17657         1         0     17661         1         0     17664         1         0
     17667         1         0     17670         1         0     17673         1         0
     17676         1         0     17679         1         0     17682         1         0
     17685         1         0     17688         1         0     17691         1         0
     17694         1         0     17697         1         0     17700         1         0
     17704         2         0     17720         2         0     17731         1         0
     17739         1         0     17748         1         0     17751         1         0
     17754         1         0     17757         1         0     17760         1         0
     17763         1         0     17766         1         0     17768         1         0
     17770         1         0     17773         1         0     17776         1         0
     17779         1         0     17782         1         0     17785         1         0
     17788         1         0     17791         1         0     17795         1         0
     17798         1         0     17801         1         0     17804         1         0
     17807         1         0     17810         1         0     17813         1         0
     17816         1         0     17819         1         0     17822         1         0
     17825         1         0     17828         1         0     17831         1         0
     17834         1         0     17838         2         0     17854         2         0
     17865         1         0     17873         1         0     17882         1         0
     17885         1         0     17888         1         0     17891         1         0
     17894         1         0     17897         1         0     17900         1         0
     17902         1         0     17904         1         0     17907         1         0
     17910         1         0     17913         1         0     17916         1         0
     17919         1         0     17922         1         0     17925         1         0
     17929         1         0     17932         1         0     17935         1         0
     17938         1         0     17941         1         0     17944         1         0
     17947         1         0     17950         1         0     17953         1         0
     17956         1         0     17959         1         0     17962         1         0
     17965         1         0     17968         1         0     17972         2         0
     17988         2         0     17999         1         0     18007         1         0
     18016         1         0     18019         1         0     18022         1         0
     18025         1         0     18028         1         0     18031         1         0
     18034         1         0     18036         1         0     18038         1         0
     18041         1         0     18044         1         0     18047         1         0
     18050         1         0     18053         1         0     18056         1         0
     18059         1         0     18063         1         0     18066         1         0
     18069         1         0     18072         1         0     18075         1         0
     18078         1         0     18081         1         0     18084         1         0
     18087         1         0     18090         1         0     18093         1         0
     18096         1         0     18099         1         0     18102         1         0
     18106         2         0     18122         2         0     18133         1         0
     18141         1         0     18150         1         0     18153         1         0
     18156         1         0     18159         1         0     18162         1         0
     18165         1         0     18168         1         0     18170         1         0
     18172         1         0     18175         1         0     18178         1         0
     18181         1         0     18184         1         0     18187         1         0
     18190         1         0     18193         1         0     18197         1         0
     18200         1         0     18203         1         0     18206         1         0
     18209         1         0     18212         1         0     18215         1         0
     18218         1         0     18221         1         0     18224         1         0
     18227         1         0     18230         1         0     18233         1         0
     18236         1         0     18240         2         0     18256         2         0
     18267         1         0     18275         1         0     18284         1         0
     18287         1         0     18290         1         0     18293         1         0
     18296         1         0     18299         1         0     18302         1         0
     18304         1         0     18306         1         0     18309         1         0
     18312         1         0     18315         1         0     18318         1         0
     18321         1         0     18324         1         0     18327         1         0
     18331         1         0     18334         1         0     18337         1         0
     18340         1         0     18343         1         0     18346         1         0
     18349         1         0     18352         1         0     18355         1         0
     18358         1         0     18361         1         0     18364         1         0
     18367         1         0     18370         1         0     18374         2         0
     18390         2         0     18401         1         0     18409         1         0
     18418         1         0     18421         1         0     18424         1         0
     18427         1         0     18430         1         0     18433         1         0
     18436         1         0     18438         1         0     18440         1         0
     18443         1         0     18446         1         0     18449         1         0
     18452         1         0     18455         1         0     18458         1         0
     18461         1         0     18465         1         0     18468         1         0
     18471         1         0     18474         1         0     18477         1         0
     18480         1         0     18483         1         0     18486         1         0
     18489         1         0     18492         1         0     18495         1         0
     18498         1         0     18501         1         0     18504         1         0
     18508         2         0     18524         2         0     18535         1         0
     18543         1         0     18552         1         0     18555         1         0
     18558         1         0     18561         1         0     18564         1         0
     18567         1         0     18570         1         0     18572         1         0
     18574         1         0     18577         1         0     18580         1         0
     18583         1         0     18586         1         0     18589         1         0
     18592         1         0     18595         1         0     18599         1         0
     18602         1         0     18605         1         0     18608         1         0
     18611         1         0     18614         1         0     18617         1         0
     18620         1         0     18623         1         0     18626         1         0
     18629         1         0     18632         1         0     18635         1         0
     18638         1         0     18642         2         0     18658         2         0
     18669         1         0     18677         1         0     18686         1         0
     18689         1         0     18692         1         0     18695         1         0
     18698         1         0     18701         1         0     18704         1         0
     18706         1         0     18708         1         0     18711         1         0
     18714         1         0     18717         1         0     18720         1         0
     18723         1         0     18726         1         0     18729         1         0
     18733         1         0     18736         1         0     18739         1         0
     18742         1         0     18745         1         0     18748         1         0
     18751         1         0     18754         1         0     18757         1         0
     18760         1         0     18763         1         0     18766         1         0
     18769         1         0     18772         1         0     18776         1         0
     18780         1         0     18783         1         0     18786         1         0
     18789         1         0     18791         1         0     18793         1         0
     18796         1         0     18799         1         0     18801         0         0
     18802         1         0     18806         1         0     18809         1         0
     18812         1         0     18814         0         0     18815         1         0
     18819         1         0     18822         1         0     18825         1         0
     18827         1         0     18831         1         0     18834         1         0
     18837         1         0     18840         1         0     18842         1         0
     18846         1         0     18850         1         0     18854         1         0
     18857         1         0     18860         1         0     18863         1         0
     18865         1         0     18867         1         0     18870         1         0
     18873         1         0     18875         0         0     18876         1         0
     18880         1         0     18883         1         0     18886         1         0
     18888         0         0     18889         1         0     18893         1         0
     18896         1         0     18899         1         0     18901         1         0
     18905         1         0     18908         1         0     18911         1         0
     18914         1         0     18916         1         0     18920         1         0
     18924         1         0     18928         1         0     18931         1         0
     18934         1         0     18937         1         0     18939         1         0
     18941         1         0     18944         1         0     18947         1         0
     18949         0         0     18950         1         0     18954         1         0
     18957         1         0     18960         1         0     18962         0         0
     18963         1         0     18967         1         0     18970         1         0
     18973         1         0     18975         1         0     18979         1         0
     18982         1         0     18985         1         0     18988         1         0
     18990         1         0     18994         1         0     18998         1         0
     19002         1         0     19005         1         0     19008         1         0
     19011         1         0     19013         1         0     19015         1         0
     19018         1         0     19021         1         0     19023         0         0
     19024         1         0     19028         1         0     19031         1         0
     19034         1         0     19036         0         0     19037         1         0
     19041         1         0     19044         1         0     19047         1         0
     19049         1         0     19053         1         0     19056         1         0
     19059         1         0     19062         1         0     19064         1         0
     19068         1         0     19072         1         0     19076         1         0
     19079         1         0     19082         1         0     19085         1         0
     19087         1         0     19089         1         0     19092         1         0
     19095         1         0     19097         0         0     19098         1         0
     19102         1         0     19105         1         0     19108         1         0
     19110         0         0     19111         1         0     19115         1         0
     19118         1         0     19121         1         0     19123         1         0
     19127         1         0     19130         1         0     19133         1         0
     19136         1         0     19138         1         0     19142         1         0
     19146         1         0     19150         1         0     19153         1         0
     19156         1         0     19159         1         0     19161         1         0
     19163         1         0     19166         1         0     19169         1         0
     19171         0         0     19172         1         0     19176         1         0
     19179         1         0     19182         1         0     19184         0         0
     19185         1         0     19189         1         0     19192         1         0
     19195         1         0     19197         1         0     19201         1         0
     19204         1         0     19207         1         0     19210         1         0
     19212         1         0     19216         1         0     19220         1         0
     19224         1         0     19227         1         0     19230         1         0
     19233         1         0     19235         1         0     19237         1         0
     19240         1         0     19243         1         0     19245         0         0
     19246         1         0     19250         1         0     19253         1         0
     19256         1         0     19258         0         0     19259         1         0
     19263         1         0     19266         1         0     19269         1         0
     19271         1         0     19275         1         0     19278         1         0
     19281         1         0     19284         1         0     19286         1         0
     19290         1         0     19294         1         0     19298         1         0
     19301         1         0     19304         1         0     19307         1         0
     19309         1         0     19311         1         0     19314         1         0
     19317         1         0     19319         0         0     19320         1         0
     19324         1         0     19327         1         0     19330         1         0
     19332         0         0     19333         1         0     19337         1         0
     19340         1         0     19343         1         0     19345         1         0
     19349         1         0     19352         1         0     19355         1         0
     19358         1         0     19360         1         0     19364         1         0
     19368         1         0     19372         1         0     19375         1         0
     19378         1         0     19381         1         0     19383         1         0
     19385         1         0     19388         1         0     19391         1         0
     19393         0         0     19394         1         0     19398         1         0
     19401         1         0     19404         1         0     19406         0         0
     19407         1         0     19411         1         0     19414         1         0
     19417         1         0     19419         1         0     19423         1         0
     19426         1         0     19429         1         0     19432         1         0
     19434         1         0     19438         1         0     19442         1         0
     19446         1         0     19449         1         0     19452         1         0
     19455         1         0     19457         1         0     19459         1         0
     19462         1         0     19465         1         0     19467         0         0
     19468         1         0     19472         1         0     19475         1         0
     19478         1         0     19480         0         0     19481         1         0
     19485         1         0     19488         1         0     19491         1         0
     19493         1         0     19497         1         0     19500         1         0
     19503         1         0     19506         1         0     19508         1         0
     19512         1         0     19516         1         0     19520         1         0
     19523         1         0     19526         1         0     19529         1         0
     19531         1         0     19533         1         0     19536         1         0
     19539         1         0     19541         0         0     19542         1         0
     19546         1         0     19549         1         0     19552         1         0
     19554         0         0     19555         1         0     19559         1         0
     19562         1         0     19565         1         0     19567         1         0
     19571         1         0     19574         1         0     19577         1         0
     19580         1         0     19582         1         0     19586         1         0
     19590         1         0     19594         1         0     19597         1         0
     19600         1         0     19603         1         0     19605         1         0
     19607         1         0     19610         1         0     19613         1         0
     19615         0         0     19616         1         0     19620         1         0
     19623         1         0     19626         1         0     19628         0         0
     19629         1         0     19633         1         0     19636         1         0
     19639         1         0     19641         1         0     19645         1         0
     19648         1         0     19651         1         0     19654         1         0
     19656         1         0     19660         1         0     19664         1         0
     19668         1         0     19671         1         0     19674         1         0
     19677         1         0     19679         1         0     19681         1         0
     19684         1         0     19687         1         0     19689         0         0
     19690         1         0     19694         1         0     19697         1         0
     19700         1         0     19702         0         0     19703         1         0
     19707         1         0     19710         1         0     19713         1         0
     19715         1         0     19719         1         0     19722         1         0
     19725         1         0     19728         1         0     19730         1         0
     19734         1         0     19738         1         0     19742         1         0
     19745         1         0     19748         1         0     19751         1         0
     19753         1         0     19755         1         0     19758         1         0
     19761         1         0     19763         0         0     19764         1         0
     19768         1         0     19771         1         0     19774         1         0
     19776         0         0     19777         1         0     19781         1         0
     19784         1         0     19787         1         0     19789         1         0
     19793         1         0     19796         1         0     19799         1         0
     19802         1         0     19804         1         0     19808         1         0
     19812         1         0     19816         1         0     19819         1         0
     19822         1         0     19825         1         0     19827         1         0
     19829         1         0     19832         1         0     19835         1         0
     19837         0         0     19838         1         0     19842         1         0
     19845         1         0     19848         1         0     19850         0         0
     19851         1         0     19855         1         0     19858         1         0
     19861         1         0     19863         1         0     19867         1         0
     19870         1         0     19873         1         0     19876         1         0
     19878         1         0     19882         1         0     19886         1         0
     19890         1         0     19893         1         0     19896         1         0
     19899         1         0     19901         1         0     19903         1         0
     19906         1         0     19909         1         0     19911         0         0
     19912         1         0     19916         1         0     19919         1         0
     19922         1         0     19924         0         0     19925         1         0
     19929         1         0     19932         1         0     19935         1         0
     19937         1         0     19941         1         0     19944         1         0
     19947         1         0     19950         1         0     19952         1         0
     19956         1         0     19960         1         0     19964         1         0
     19967         1         0     19970         1         0     19973         1         0
     19975         1         0     19977         1         0     19980         1         0
     19983         1         0     19985         0         0     19986         1         0
     19990         1         0     19993         1         0     19996         1         0
     19998         0         0     19999         1         0     20003         1         0
     20006         1         0     20009         1         0     20011         1         0
     20015         1         0     20018         1         0     20021         1         0
     20024         1         0     20026         1         0     20030         1         0
     20034         1         0     20038         1         0     20041         1         0
     20044         1         0     20047         1         0     20049         1         0
     20051         1         0     20054         1         0     20057         1         0
     20059         0         0     20060         1         0     20064         1         0
     20067         1         0     20070         1         0     20072         0         0
     20073         1         0     20077         1         0     20080         1         0
     20083         1         0     20085         1         0     20089         1         0
     20092         1         0     20095         1         0     20098         1         0
     20100         1         0     20104         1         0     20108         1         0
     20112         1         0     20115         1         0     20118         1         0
     20121         1         0     20123         1         0     20125         1         0
     20128         1         0     20131         1         0     20133         0         0
     20134         1         0     20138         1         0     20141         1         0
     20144         1         0     20146         0         0     20147         1         0
     20151         1         0     20154         1         0     20157         1         0
     20159         1         0     20163         1         0     20166         1         0
     20169         1         0     20172         1         0     20174         1         0
     20178         1         0     20182         1         0     20186         1         0
     20189         1         0     20192         1         0     20195         1         0
     20197         1         0     20199         1         0     20202         1         0
     20205         1         0     20207         0         0     20208         1         0
     20212         1         0     20215         1         0     20218         1         0
     20220         0         0     20221         1         0     20225         1         0
     20228         1         0     20231         1         0     20233         1         0
     20237         1         0     20240         1         0     20243         1         0
     20246         1         0     20248         1         0     20252         1         0
     20256         1         0     20260         1         0     20263         1         0
     20266         1         0     20269         1         0     20271         1         0
     20273         1         0     20276         1         0     20279         1         0
     20281         0         0     20282         1         0     20286         1         0
     20289         1         0     20292         1         0     20294         0         0
     20295         1         0     20299         1         0     20302         1         0
     20305         1         0     20307         1         0     20311         1         0
     20314         1         0     20317         1         0     20320         1         0
     20322         1         0     20326         1         0     20330         1         0
     20334         1         0     20337         1         0     20340         1         0
     20343         1         0     20345         1         0     20347         1         0
     20350         1         0     20353         1         0     20355         0         0
     20356         1         0     20360         1         0     20363         1         0
     20366         1         0     20368         0         0     20369         1         0
     20373         1         0     20376         1         0     20379         1         0
     20381         1         0     20385         1         0     20388         1         0
     20391         1         0     20394         1         0     20396         1         0
     20400         1         0     20404         1         0     20408         1         0
     20411         1         0     20414         1         0     20417         1         0
     20419         1         0     20421         1         0     20424         1         0
     20427         1         0     20429         0         0     20430         1         0
     20434         1         0     20437         1         0     20440         1         0
     20442         0         0     20443         1         0     20447         1         0
     20450         1         0     20453         1         0     20455         1         0
     20459         1         0     20462         1         0     20465         1         0
     20468         1         0     20470         1         0     20474         1         0
     20478         1         0     20482         1         0     20485         1         0
     20488         1         0     20491         1         0     20493         1         0
     20495         1         0     20498         1         0     20501         1         0
     20503         0         0     20504         1         0     20508         1         0
     20511         1         0     20514         1         0     20516         0         0
     20517         1         0     20521         1         0     20524         1         0
     20527         1         0     20529         1         0     20533         1         0
     20536         1         0     20539         1         0     20542         1         0
     20544         1         0     20548         1         0     20552         1         0
     20556         1         0     20559         1         0     20562         1         0
     20565         1         0     20567         1         0     20569         1         0
     20572         1         0     20575         1         0     20577         0         0
     20578         1         0     20582         1         0     20585         1         0
     20588         1         0     20590         0         0     20591         1         0
     20595         1         0     20598         1         0     20601         1         0
     20603         1         0     20607         1         0     20610         1         0
     20613         1         0     20616         1         0     20618         1         0
     20622         1         0     20626         1         0     20630         1         0
     20633         1         0     20636         1         0     20639         1         0
     20641         1         0     20643         1         0     20646         1         0
     20649         1         0     20651         0         0     20652         1         0
     20656         1         0     20659         1         0     20662         1         0
     20664         0         0     20665         1         0     20669         1         0
     20672         1         0     20675         1         0     20677         1         0
     20681         1         0     20684         1         0     20687         1         0
     20690         1         0     20692         1         0     20696         1         0
     20700         1         0     20704         1         0     20707         1         0
     20710         1         0     20713         1         0     20715         1         0
     20717         1         0     20720         1         0     20723         1         0
     20725         0         0     20726         1         0     20730         1         0
     20733         1         0     20736         1         0     20738         0         0
     20739         1         0     20743         1         0     20746         1         0
     20749         1         0     20751         1         0     20755         1         0
     20758         1         0     20761         1         0     20764         1         0
     20766         1         0     20770         1         0     20774         1         0
     20778         1         0     20781         1         0     20784         1         0
     20787         1         0     20789         1         0     20791         1         0
     20794         1         0     20797         1         0     20799         0         0
     20800         1         0     20804         1         0     20807         1         0
     20810         1         0     20812         0         0     20813         1         0
     20817         1         0     20820         1         0     20823         1         0
     20825         1         0     20829         1         0     20832         1         0
     20835         1         0     20838         1         0     20840         1         0
     20844         1         0     20848         1         0     20852         1         0
     20855         1         0     20858         1         0     20861         1         0
     20863         1         0     20865         1         0     20868         1         0
     20871         1         0     20873         0         0     20874         1         0
     20878         1         0     20881         1         0     20884         1         0
     20886         0         0     20887         1         0     20891         1         0
     20894         1         0     20897         1         0     20899         1         0
     20903         1         0     20906         1         0     20909         1         0
     20912         1         0     20914         1         0     20918         1         0
     20922         1         0     20926         1         0     20929         1         0
     20932         1         0     20935         1         0     20937         1         0
     20939         1         0     20942         1         0     20945         1         0
     20947         0         0     20948         1         0     20952         1         0
     20955         1         0     20958         1         0     20960         0         0
     20961         1         0     20965         1         0     20968         1         0
     20971         1         0     20973         1         0     20977         1         0
     20980         1         0     20983         1         0     20986         1         0
     20988         1         0     20992         1         0     20996         1         0
     21000         1         0     21003         1         0     21006         1         0
     21009         1         0     21011         1         0     21013         1         0
     21016         1         0     21019         1         0     21021         0         0
     21022         1         0     21026         1         0     21029         1         0
     21032         1         0     21034         0         0     21035         1         0
     21039         1         0     21042         1         0     21045         1         0
     21047         1         0     21051         1         0     21054         1         0
     21057         1         0     21060         1         0     21062         1         0
     21066         1         0     21070         1         0     21074         1         0
     21077         1         0     21080         1         0     21083         1         0
     21085         1         0     21087         1         0     21090         1         0
     21093         1         0     21095         0         0     21096         1         0
     21100         1         0     21103         1         0     21106         1         0
     21108         0         0     21109         1         0     21113         1         0
     21116         1         0     21119         1         0     21121         1         0
     21125         1         0     21128         1         0     21131         1         0
     21134         1         0     21136         1         0     21140         1         0
     21144         2         0     21160         2         0     21171         1         0
     21179         1         0     21188         1         0     21191         1         0
     21194         1         0     21197         1         0     21200         1         0
     21203         1         0     21206         1         0     21208         1         0
     21210         1         0     21213         1         0     21216         1         0
     21219         1         0     21222         1         0     21225         1         0
     21228         1         0     21231         1         0     21235         1         0
     21238         1         0     21241         1         0     21244         1         0
     21247         1         0     21250         1         0     21253         1         0
     21256         1         0     21259         1         0     21262         1         0
     21265         1         0     21268         1         0     21271         1         0
     21274         1         0     21278         2         0     21294         2         0
     21305         1         0     21313         1         0     21322         1         0
     21325         1         0     21328         1         0     21331         1         0
     21334         1         0     21337         1         0     21340         1         0
     21342         1         0     21344         1         0     21347         1         0
     21350         1         0     21353         1         0     21356         1         0
     21359         1         0     21362         1         0     21365         1         0
     21369         1         0     21372         1         0     21375         1         0
     21378         1         0     21381         1         0     21384         1         0
     21387         1         0     21390         1         0     21393         1         0
     21396         1         0     21399         1         0     21402         1         0
     21405         1         0     21408         1         0     21412         2         0
     21428         2         0     21439         1         0     21447         1         0
     21456         1         0     21459         1         0     21462         1         0
     21465         1         0     21468         1         0     21471         1         0
     21474         1         0     21476         1         0     21478         1         0
     21481         1         0     21484         1         0     21487         1         0
     21490         1         0     21493         1         0     21496         1         0
     21499         1         0     21503         1         0     21506         1         0
     21509         1         0     21512         1         0     21515         1         0
     21518         1         0     21521         1         0     21524         1         0
     21527         1         0     21530         1         0     21533         1         0
     21536         1         0     21539         1         0     21542         1         0
     21546         2         0     21562         2         0     21573         1         0
     21581         1         0     21590         1         0     21593         1         0
     21596         1         0     21599         1         0     21602         1         0
     21605         1         0     21608         1         0     21610         1         0
     21612         1         0     21615         1         0     21618         1         0
     21621         1         0     21624         1         0     21627         1         0
     21630         1         0     21633         1         0     21637         1         0
     21640         1         0     21643         1         0     21646         1         0
     21649         1         0     21652         1         0     21655         1         0
     21658         1         0     21661         1         0     21664         1         0
     21667         1         0     21670         1         0     21673         1         0
     21676         1         0     21680         2         0     21696         2         0
     21707         1         0     21715         1         0     21724         1         0
     21727         1         0     21730         1         0     21733         1         0
     21736         1         0     21739         1         0     21742         1         0
     21744         1         0     21746         1         0     21749         1         0
     21752         1         0     21755         1         0     21758         1         0
     21761         1         0     21764         1         0     21767         1         0
     21771         1         0     21774         1         0     21777         1         0
     21780         1         0     21783         1         0     21786         1         0
     21789         1         0     21792         1         0     21795         1         0
     21798         1         0     21801         1         0     21804         1         0
     21807         1         0     21810         1         0     21814         2         0
     21830         2         0     21841         1         0     21849         1         0
     21858         1         0     21861         1         0     21864         1         0
     21867         1         0     21870         1         0     21873         1         0
     21876         1         0     21878         1         0     21880         1         0
     21883         1         0     21886         1         0     21889         1         0
     21892         1         0     21895         1         0     21898         1         0
     21901         1         0     21905         1         0     21908         1         0
     21911         1         0     21914         1         0     21917         1         0
     21920         1         0     21923         1         0     21926         1         0
     21929         1         0     21932         1         0     21935         1         0
     21938         1         0     21941         1         0     21944         1         0
     21948         2         0     21964         2         0     21975         1         0
     21983         1         0     21992         1         0     21995         1         0
     21998         1         0     22001         1         0     22004         1         0
     22007         1         0     22010         1         0     22012         1         0
     22014         1         0     22017         1         0     22020         1         0
     22023         1         0     22026         1         0     22029         1         0
     22032         1         0     22035         1         0     22039         1         0
     22042         1         0     22045         1         0     22048         1         0
     22051         1         0     22054         1         0     22057         1         0
     22060         1         0     22063         1         0     22066         1         0
     22069         1         0     22072         1         0     22075         1         0
     22078         1         0     22082         2         0     22098         2         0
     22109         1         0     22117         1         0     22126         1         0
     22129         1         0     22132         1         0     22135         1         0
     22138         1         0     22141         1         0     22144         1         0
     22146         1         0     22148         1         0     22151         1         0
     22154         1         0     22157         1         0     22160         1         0
     22163         1         0     22166         1         0     22169         1         0
     22173         1         0     22176         1         0     22179         1         0
     22182         1         0     22185         1         0     22188         1         0
     22191         1         0     22194         1         0     22197         1         0
     22200         1         0     22203         1         0     22206         1         0
     22209         1         0     22212         1         0     22216         2         0
     22232         2         0     22243         1         0     22251         1         0
     22260         1         0     22263         1         0     22266         1         0
     22269         1         0     22272         1         0     22275         1         0
     22278         1         0     22280         1         0     22282         1         0
     22285         1         0     22288         1         0     22291         1         0
     22294         1         0     22297         1         0     22300         1         0
     22303         1         0     22307         1         0     22310         1         0
     22313         1         0     22316         1         0     22319         1         0
     22322         1         0     22325         1         0     22328         1         0
     22331         1         0     22334         1         0     22337         1         0
     22340         1         0     22343         1         0     22346         1         0
     22350         2         0     22366         2         0     22377         1         0
     22385         1         0     22394         1         0     22397         1         0
     22400         1         0     22403         1         0     22406         1         0
     22409         1         0     22412         1         0     22414         1         0
     22416         1         0     22419         1         0     22422         1         0
     22425         1         0     22428         1         0     22431         1         0
     22434         1         0     22437         1         0     22441         1         0
     22444         1         0     22447         1         0     22450         1         0
     22453         1         0     22456         1         0     22459         1         0
     22462         1         0     22465         1         0     22468         1         0
     22471         1         0     22474         1         0     22477         1         0
     22480         1         0     22484         2         0     22500         2         0
     22511         1         0     22519         1         0     22528         1         0
     22531         1         0     22534         1         0     22537         1         0
     22540         1         0     22543         1         0     22546         1         0
     22548         1         0     22550         1         0     22553         1         0
     22556         1         0     22559         1         0     22562         1         0
     22565         1         0     22568         1         0     22571         1         0
     22575         1         0     22578         1         0     22581         1         0
     22584         1         0     22587         1         0     22590         1         0
     22593         1         0     22596         1         0     22599         1         0
     22602         1         0     22605         1         0     22608         1         0
     22611         1         0     22614         1         0     22618         2         0
     22634         2         0     22645         1         0     22653         1         0
     22662         1         0     22665         1         0     22668         1         0
     22671         1         0     22674         1         0     22677         1         0
     22680         1         0     22682         1         0     22684         1         0
     22687         1         0     22690         1         0     22693         1         0
     22696         1         0     22699         1         0     22702         1         0
     22705         1         0     22709         1         0     22712         1         0
     22715         1         0     22718         1         0     22721         1         0
     22724         1         0     22727         1         0     22730         1         0
     22733         1         0     22736         1         0     22739         1         0
     22742         1         0     22745         1         0     22748         1         0
     22752         2         0     22768         2         0     22779         1         0
     22787         1         0     22796         1         0     22799         1         0
     22802         1         0     22805         1         0     22808         1         0
     22811         1         0     22814         1         0     22816         1         0
     22818         1         0     22821         1         0     22824         1         0
     22827         1         0     22830         1         0     22833         1         0
     22836         1         0     22839         1         0     22843         1         0
     22846         1         0     22849         1         0     22852         1         0
     22855         1         0     22858         1         0     22861         1         0
     22864         1         0     22867         1         0     22870         1         0
     22873         1         0     22876         1         0     22879         1         0
     22882         1         0     22886         2         0     22902         2         0
     22913         1         0     22921         1         0     22930         1         0
     22933         1         0     22936         1         0     22939         1         0
     22942         1         0     22945         1         0     22948         1         0
     22950         1         0     22952         1         0     22955         1         0
     22958         1         0     22961         1         0     22964         1         0
     22967         1         0     22970         1         0     22973         1         0
     22977         1         0     22980         1         0     22983         1         0
     22986         1         0     22989         1         0     22992         1         0
     22995         1         0     22998         1         0     23001         1         0
     23004         1         0     23007         1         0     23010         1         0
     23013         1         0     23016         1         0     23020         2         0
     23036         2         0     23047         1         0     23055         1         0
     23064         1         0     23067         1         0     23070         1         0
     23073         1         0     23076         1         0     23079         1         0
     23082         1         0     23084         1         0     23086         1         0
     23089         1         0     23092         1         0     23095         1         0
     23098         1         0     23101         1         0     23104         1         0
     23107         1         0     23111         1         0     23114         1         0
     23117         1         0     23120         1         0     23123         1         0
     23126         1         0     23129         1         0     23132         1         0
     23135         1         0     23138         1         0     23141         1         0
     23144         1         0     23147         1         0     23150         1         0
     23154         2         0     23170         2         0     23181         1         0
     23189         1         0     23198         1         0     23201         1         0
     23204         1         0     23207         1         0     23210         1         0
     23213         1         0     23216         1         0     23218         1         0
     23220         1         0     23223         1         0     23226         1         0
     23229         1         0     23232         1         0     23235         1         0
     23238         1         0     23241         1         0     23245         1         0
     23248         1         0     23251         1         0     23254         1         0
     23257         1         0     23260         1         0     23263         1         0
     23266         1         0     23269         1         0     23272         1         0
     23275         1         0     23278         1         0     23281         1         0
     23284         1         0     23288         2         0     23304         2         0
     23315         1         0     23323         1         0     23332         1         0
     23335         1         0     23338         1         0     23341         1         0
     23344         1         0     23347         1         0     23350         1         0
     23352         1         0     23354         1         0     23357         1         0
     23360         1         0     23363         1         0     23366         1         0
     23369         1         0     23372         1         0     23375         1         0
     23379         1         0     23382         1         0     23385         1         0
     23388         1         0     23391         1         0     23394         1         0
     23397         1         0     23400         1         0     23403         1         0
     23406         1         0     23409         1         0     23412         1         0
     23415         1         0     23418         1         0     23422         2         0
     23438         2         0     23449         1         0     23457         1         0
     23466         1         0     23469         1         0     23472         1         0
     23475         1         0     23478         1         0     23481         1         0
     23484         1         0     23486         1         0     23488         1         0
     23491         1         0     23494         1         0     23497         1         0
     23500         1         0     23503         1         0     23506         1         0
     23509         1         0     23513         1         0     23516         1         0
     23519         1         0     23522         1         0     23525         1         0
     23528         1         0     23531         1         0     23534         1         0
     23537         1         0     23540         1         0     23543         1         0
     23546         1         0     23549         1         0     23552         1         0
     23556         2         0     23572         2         0     23583         1         0
     23591         1         0     23600         1         0     23603         1         0
     23606         1         0     23609         1         0     23612         1         0
     23615         1         0     23618         1         0     23620         1         0
     23622         1         0     23625         1         0     23628         1         0
     23631         1         0     23634         1         0     23637         1         0
     23640         1         0     23643         1         0     23647         1         0
     23650         1         0     23653         1         0     23656         1         0
     23659         1         0     23662         1         0     23665         1         0
     23668         1         0     23671         1         0     23674         1         0
     23677         1         0     23680         1         0     23683         1         0
     23686         1         0     23690         2         0     23706         2         0
     23717         1         0     23725         1         0     23734         1         0
     23737         1         0     23740         1         0     23743         1         0
     23746         1         0     23749         1         0     23752         1         0
     23754         1         0     23756         1         0     23759         1         0
     23762         1         0     23765         1         0     23768         1         0
     23771         1         0     23774         1         0     23777         1         0
     23781         1         0     23784         1         0     23787         1         0
     23790         1         0     23793         1         0     23796         1         0
     23799         1         0     23802         1         0     23805         1         0
     23808         1         0     23811         1         0     23814         1         0
     23817         1         0     23820         1         0     23824         2         0
     23840         2         0     23851         1         0     23859         1         0
     23868         1         0     23871         1         0     23874         1         0
     23877         1         0     23880         1         0     23883         1         0
     23886         1         0     23888         1         0     23890         1         0
     23893         1         0     23896         1         0     23899         1         0
     23902         1         0     23905         1         0     23908         1         0
     23911         1         0     23915         1         0     23918         1         0
     23921         1         0     23924         1         0     23927         1         0
     23930         1         0     23933         1         0     23936         1         0
     23939         1         0     23942         1         0     23945         1         0
     23948         1         0     23951         1         0     23954         1         0
     23958         2         0     23974         2         0     23985         1         0
     23993         1         0     24002         1         0     24005         1         0
     24008         1         0     24011         1         0     24014         1         0
     24017         1         0     24020         1         0     24022         1         0
     24024         1         0     24027         1         0     24030         1         0
     24033         1         0     24036         1         0     24039         1         0
     24042         1         0     24045         1         0     24049         1         0
     24052         1         0     24055         1         0     24058         1         0
     24061         1         0     24064         1         0     24067         1         0
     24070         1         0     24073         1         0     24076         1         0
     24079         1         0     24082         1         0     24085         1         0
     24088         1         0     24092         2         0     24108         2         0
     24119         1         0     24127         1         0     24136         1         0
     24139         1         0     24142         1         0     24145         1         0
     24148         1         0     24151         1         0     24154         1         0
     24156         1         0     24158         1         0     24161         1         0
     24164         1         0     24167         1         0     24170         1         0
     24173         1         0     24176         1         0     24179         1         0
     24183         1         0     24186         1         0     24189         1         0
     24192         1         0     24195         1         0     24198         1         0
     24201         1         0     24204         1         0     24207         1         0
     24210         1         0     24213         1         0     24216         1         0
     24219         1         0     24222         1         0     24226         2         0
     24242         2         0     24253         1         0     24261         1         0
     24270         1         0     24273         1         0     24276         1         0
     24279         1         0     24282         1         0     24285         1         0
     24288         1         0     24290         1         0     24292         1         0
     24295         1         0     24298         1         0     24301         1         0
     24304         1         0     24307         1         0     24310         1         0
     24313         1         0     24317         1         0     24320         1         0
     24323         1         0     24326         1         0     24329         1         0
     24332         1         0     24335         1         0     24338         1         0
     24341         1         0     24344         1         0     24347         1         0
     24350         1         0     24353         1         0     24356         1         0
     24360         2         0     24376         2         0     24387         1         0
     24395         1         0     24404         1         0     24407         1         0
     24410         1         0     24413         1         0     24416         1         0
     24419         1         0     24422         1         0     24424         1         0
     24426         1         0     24429         1         0     24432         1         0
     24435         1         0     24438         1         0     24441         1         0
     24444         1         0     24447         1         0     24451         1         0
     24454         1         0     24457         1         0     24460         1         0
     24463         1         0     24466         1         0     24469         1         0
     24472         1         0     24475         1         0     24478         1         0
     24481         1         0     24484         1         0     24487         1         0
     24490         1         0     24494         2         0     24510         2         0
     24521         1         0     24529         1         0     24538         1         0
     24541         1         0     24544         1         0     24547         1         0
     24550         1         0     24553         1         0     24556         1         0
     24558         1         0     24560         1         0     24563         1         0
     24566         1         0     24569         1         0     24572         1         0
     24575         1         0     24578         1         0     24581         1         0
     24585         1         0     24588         1         0     24591         1         0
     24594         1         0     24597         1         0     24600         1         0
     24603         1         0     24606         1         0     24609         1         0
     24612         1         0     24615         1         0     24618         1         0
     24621         1         0     24624         1         0     24628         2         0
     24644         2         0     24655         1         0     24663         1         0
     24672         1         0     24675         1         0     24678         1         0
     24681         1         0     24684         1         0     24687         1         0
     24690         1         0     24692         1         0     24694         1         0
     24697         1         0     24700         1         0     24703         1         0
     24706         1         0     24709         1         0     24712         1         0
     24715         1         0     24719         1         0     24722         1         0
     24725         1         0     24728         1         0     24731         1         0
     24734         1         0     24737         1         0     24740         1         0
     24743         1         0     24746         1         0     24749         1         0
     24752         1         0     24755         1         0     24758         1         0
     24762         2         0     24778         2         0     24789         1         0
     24797         1         0     24806         1         0     24809         1         0
     24812         1         0     24815         1         0     24818         1         0
     24821         1         0     24824         1         0     24826         1         0
     24828         1         0     24831         1         0     24834         1         0
     24837         1         0     24840         1         0     24843         1         0
     24846         1         0     24849         1         0     24853         1         0
     24856         1         0     24859         1         0     24862         1         0
     24865         1         0     24868         1         0     24871         1         0
     24874         1         0     24877         1         0     24880         1         0
     24883         1         0     24886         1         0     24889         1         0
     24892         1         0     24896         2         0     24912         2         0
     24923         1         0     24931         1         0     24940         1         0
     24943         1         0     24946         1         0     24949         1         0
     24952         1         0     24955         1         0     24958         1         0
     24960         1         0     24962         1         0     24965         1         0
     24968         1         0     24971         1         0     24974         1         0
     24977         1         0     24980         1         0     24983         1         0
     24987         1         0     24990         1         0     24993         1         0
     24996         1         0     24999         1         0     25002         1         0
     25005         1         0     25008         1         0     25011         1         0
     25014         1         0     25017         1         0     25020         1         0
     25023         1         0     25026         1         0     25030         2         0
     25046         2         0     25057         1         0     25065         1         0
     25074         1         0     25077         1         0     25080         1         0
     25083         1         0     25086         1         0     25089         1         0
     25092         1         0     25094         1         0     25096         1         0
     25099         1         0     25102         1         0     25105         1         0
     25108         1         0     25111         1         0     25114         1         0
     25117         1         0     25121         1         0     25124         1         0
     25127         1         0     25130         1         0     25133         1         0
     25136         1         0     25139         1         0     25142         1         0
     25145         1         0     25148         1         0     25151         1         0
     25154         1         0     25157         1         0     25160         1         0
     25164         2         0     25180         2         0     25191         1         0
     25199         1         0     25208         1         0     25211         1         0
     25214         1         0     25217         1         0     25220         1         0
     25223         1         0     25226         1         0     25228         1         0
     25230         1         0     25233         1         0     25236         1         0
     25239         1         0     25242         1         0     25245         1         0
     25248         1         0     25251         1         0     25255         1         0
     25258         1         0     25261         1         0     25264         1         0
     25267         1         0     25270         1         0     25273         1         0
     25276         1         0     25279         1         0     25282         1         0
     25285         1         0     25288         1         0     25291         1         0
     25294         1         0     25298         2         0     25314         2         0
     25325         1         0     25333         1         0     25342         1         0
     25345         1         0     25348         1         0     25351         1         0
     25354         1         0     25357         1         0     25360         1         0
     25362         1         0     25364         1         0     25367         1         0
     25370         1         0     25373         1         0     25376         1         0
     25379         1         0     25382         1         0     25385         1         0
     25389         1         0     25392         1         0     25395         1         0
     25398         1         0     25401         1         0     25404         1         0
     25407         1         0     25410         1         0     25413         1         0
     25416         1         0     25419         1         0     25422         1         0
     25425         1         0     25428         1         0     25432         2         0
     25448         2         0     25459         1         0     25467         1         0
     25476         1         0     25479         1         0     25482         1         0
     25485         1         0     25488         1         0     25491         1         0
     25494         1         0     25496         1         0     25498         1         0
     25501         1         0     25504         1         0     25507         1         0
     25510         1         0     25513         1         0     25516         1         0
     25519         1         0     25523         1         0     25526         1         0
     25529         1         0     25532         1         0     25535         1         0
     25538         1         0     25541         1         0     25544         1         0
     25547         1         0     25550         1         0     25553         1         0
     25556         1         0     25559         1         0     25562         1         0
     25566         2         0     25582         2         0     25593         1         0
     25601         1         0     25610         1         0     25613         1         0
     25616         1         0     25619         1         0     25622         1         0
     25625         1         0     25628         1         0     25630         1         0
     25632         1         0     25635         1         0     25638         1         0
     25641         1         0     25644         1         0     25647         1         0
     25650         1         0     25653         1         0     25657         1         0
     25660         1         0     25663         1         0     25666         1         0
     25669         1         0     25672         1         0     25675         1         0
     25678         1         0     25681         1         0     25684         1         0
     25687         1         0     25690         1         0     25693         1         0
     25696         1         0     25700         2         0     25716         2         0
     25727         1         0     25735         1         0     25744         1         0
     25747         1         0     25750         1         0     25753         1         0
     25756         1         0     25759         1         0     25762         1         0
     25764         1         0     25766         1         0     25769         1         0
     25772         1         0     25775         1         0     25778         1         0
     25781         1         0     25784         1         0     25787         1         0
     25791         1         0     25794         1         0     25797         1         0
     25800         1         0     25803         1         0     25806         1         0
     25809         1         0     25812         1         0     25815         1         0
     25818         1         0     25821         1         0     25824         1         0
     25827         1         0     25830         1         0     25834         2         0
     25850         2         0     25861         1         0     25869         1         0
     25878         1         0     25881         1         0     25884         1         0
     25887         1         0     25890         1         0     25893         1         0
     25896         1         0     25898         1         0     25900         1         0
     25903         1         0     25906         1         0     25909         1         0
     25912         1         0     25915         1         0     25918         1         0
     25921         1         0     25925         1         0     25928         1         0
     25931         1         0     25934         1         0     25937         1         0
     25940         1         0     25943         1         0     25946         1         0
     25949         1         0     25952         1         0     25955         1         0
     25958         1         0     25961         1         0     25964         1         0
     25968         2         0     25984         2         0     25995         1         0
     26003         1         0     26012         1         0     26015         1         0
     26018         1         0     26021         1         0     26024         1         0
     26027         1         0     26030         1         0     26032         1         0
     26034         1         0     26037         1         0     26040         1         0
     26043         1         0     26046         1         0     26049         1         0
     26052         1         0     26055         1         0     26059         1         0
     26062         1         0     26065         1         0     26068         1         0
     26071         1         0     26074         1         0     26077         1         0
     26080         1         0     26083         1         0     26086         1         0
     26089         1         0     26092         1         0     26095         1         0
     26098         1         0     26102         2         0     26118         2         0
     26129         1         0     26137         1         0     26146         1         0
     26149         1         0     26152         1         0     26155         1         0
     26158         1         0     26161         1         0     26164         1         0
     26166         1         0     26168         1         0     26171         1         0
     26174         1         0     26177         1         0     26180         1         0
     26183         1         0     26186         1         0     26189         1         0
     26193         1         0     26196         1         0     26199         1         0
     26202         1         0     26205         1         0     26208         1         0
     26211         1         0     26214         1         0     26217         1         0
     26220         1         0     26223         1         0     26226         1         0
     26229         1         0     26232         1         0     26236         2         0
     26252         2         0     26263         1         0     26271         1         0
     26280         1         0     26283         1         0     26286         1         0
     26289         1         0     26292         1         0     26295         1         0
     26298         1         0     26300         1         0     26302         1         0
     26305         1         0     26308         1         0     26311         1         0
     26314         1         0     26317         1         0     26320         1         0
     26323         1         0     26327         1         0     26330         1         0
     26333         1         0     26336         1         0     26339         1         0
     26342         1         0     26345         1         0     26348         1         0
     26351         1         0     26354         1         0     26357         1         0
     26360         1         0     26363         1         0     26366         1         0
     26370         2         0     26386         2         0     26397         1         0
     26405         1         0     26414         1         0     26417         1         0
     26420         1         0     26423         1         0     26426         1         0
     26429         1         0     26432         1         0     26434         1         0
     26436         1         0     26439         1         0     26442         1         0
     26445         1         0     26448         1         0     26451         1         0
     26454         1         0     26457         1         0     26461         1         0
     26464         1         0     26467         1         0     26470         1         0
     26473         1         0     26476         1         0     26479         1         0
     26482         1         0     26485         1         0     26488         1         0
     26491         1         0     26494         1         0     26497         1         0
     26500         1         0     26504         2         0     26520         2         0
     26531         1         0     26539         1         0     26548         1         0
     26551         1         0     26554         1         0     26557         1         0
     26560         1         0     26563         1         0     26566         1         0
     26568         1         0     26570         1         0     26573         1         0
     26576         1         0     26579         1         0     26582         1         0
     26585         1         0     26588         1         0     26591         1         0
     26595         1         0     26598         1         0     26601         1         0
     26604         1         0     26607         1         0     26610         1         0
     26613         1         0     26616         1         0     26619         1         0
     26622         1         0     26625         1         0     26628         1         0
     26631         1         0     26634         1         0     26638         2         0
     26654         2         0     26665         1         0     26673         1         0
     26682         1         0     26685         1         0     26688         1         0
     26691         1         0     26694         1         0     26697         1         0
     26700         1         0     26702         1         0     26704         1         0
     26707         1         0     26710         1         0     26713         1         0
     26716         1         0     26719         1         0     26722         1         0
     26725         1         0     26729         1         0     26732         1         0
     26735         1         0     26738         1         0     26741         1         0
     26744         1         0     26747         1         0     26750         1         0
     26753         1         0     26756         1         0     26759         1         0
     26762         1         0     26765         1         0     26768         1         0
     26772         2         0     26788         2         0     26799         1         0
     26807         1         0     26816         1         0     26819         1         0
     26822         1         0     26825         1         0     26828         1         0
     26831         1         0     26834         1         0     26836         1         0
     26838         1         0     26841         1         0     26844         1         0
     26847         1         0     26850         1         0     26853         1         0
     26856         1         0     26859         1         0     26863         1         0
     26866         1         0     26869         1         0     26872         1         0
     26875         1         0     26878         1         0     26881         1         0
     26884         1         0     26887         1         0     26890         1         0
     26893         1         0     26896         1         0     26899         1         0
     26902         1         0     26906         2         0     26922         2         0
     26933         1         0     26941         1         0     26950         1         0
     26953         1         0     26956         1         0     26959         1         0
     26962         1         0     26965         1         0     26968         1         0
     26970         1         0     26972         1         0     26975         1         0
     26978         1         0     26981         1         0     26984         1         0
     26987         1         0     26990         1         0     26993         1         0
     26997         1         0     27000         1         0     27003         1         0
     27006         1         0     27009         1         0     27012         1         0
     27015         1         0     27018         1         0     27021         1         0
     27024         1         0     27027         1         0     27030         1         0
     27033         1         0     27036         1         0     27040         2         0
     27056         2         0     27067         1         0     27075         1         0
     27084         1         0     27087         1         0     27090         1         0
     27093         1         0     27096         1         0     27099         1         0
     27102         1         0     27104         1         0     27106         1         0
     27109         1         0     27112         1         0     27115         1         0
     27118         1         0     27121         1         0     27124         1         0
     27127         1         0     27131         1         0     27134         1         0
     27137         1         0     27140         1         0     27143         1         0
     27146         1         0     27149         1         0     27152         1         0
     27155         1         0     27158         1         0     27161         1         0
     27164         1         0     27167         1         0     27170         1         0
     27174         2         0     27190         2         0     27201         1         0
     27209         1         0     27218         1         0     27221         1         0
     27224         1         0     27227         1         0     27230         1         0
     27233         1         0     27236         1         0     27238         1         0
     27240         1         0     27243         1         0     27246         1         0
     27249         1         0     27252         1         0     27255         1         0
     27258         1         0     27261         1         0     27265         1         0
     27268         1         0     27271         1         0     27274         1         0
     27277         1         0     27280         1         0     27283         1         0
     27286         1         0     27289         1         0     27292         1         0
     27295         1         0     27298         1         0     27301         1         0
     27304         1         0     27308         2         0     27324         2         0
     27335         1         0     27343         1         0     27352         1         0
     27355         1         0     27358         1         0     27361         1         0
     27364         1         0     27367         1         0     27370         1         0
     27372         1         0     27374         1         0     27377         1         0
     27380         1         0     27383         1         0     27386         1         0
     27389         1         0     27392         1         0     27395         1         0
     27399         1         0     27402         1         0     27405         1         0
     27408         1         0     27411         1         0     27414         1         0
     27417         1         0     27420         1         0     27423         1         0
     27426         1         0     27429         1         0     27432         1         0
     27435         1         0     27438         1         0     27442         2         0
     27458         2         0     27469         1         0     27477         1         0
     27486         1         0     27489         1         0     27492         1         0
     27495         1         0     27498         1         0     27501         1         0
     27504         1         0     27506         1         0     27508         1         0
     27511         1         0     27514         1         0     27517         1         0
     27520         1         0     27523         1         0     27526         1         0
     27529         1         0     27533         1         0     27536         1         0
     27539         1         0     27542         1         0     27545         1         0
     27548         1         0     27551         1         0     27554         1         0
     27557         1         0     27560         1         0     27563         1         0
     27566         1         0     27569         1         0     27572         1         0
     27576         2         0     27592         2         0     27603         1         0
     27611         1         0     27620         1         0     27623         1         0
     27626         1         0     27629         1         0     27632         1         0
     27635         1         0     27638         1         0     27640         1         0
     27642         1         0     27645         1         0     27648         1         0
     27651         1         0     27654         1         0     27657         1         0
     27660         1         0     27663         1         0     27667         1         0
     27670         1         0     27673         1         0     27676         1         0
     27679         1         0     27682         1         0     27685         1         0
     27688         1         0     27691         1         0     27694         1         0
     27697         1         0     27700         1         0     27703         1         0
     27706         1         0     27710         2         0     27726         2         0
     27737         1         0     27745         1         0     27754         1         0
     27757         1         0     27760         1         0     27763         1         0
     27766         1         0     27769         1         0     27772         1         0
     27774         1         0     27776         1         0     27779         1         0
     27782         1         0     27785         1         0     27788         1         0
     27791         1         0     27794         1         0     27797         1         0
     27801         1         0     27804         1         0     27807         1         0
     27810         1         0     27813         1         0     27816         1         0
     27819         1         0     27822         1         0     27825         1         0
     27828         1         0     27831         1         0     27834         1         0
     27837         1         0     27840         1         0     27844         2         0
     27860         2         0     27871         1         0     27879         1         0
     27888         1         0     27891         1         0     27894         1         0
     27897         1         0     27900         1         0     27903         1         0
     27906         1         0     27908         1         0     27910         1         0
     27913         1         0     27916         1         0     27919         1         0
     27922         1         0     27925         1         0     27928         1         0
     27931         1         0     27935         1         0     27938         1         0
     27941         1         0     27944         1         0     27947         1         0
     27950         1         0     27953         1         0     27956         1         0
     27959         1         0     27962         1         0     27965         1         0
     27968         1         0     27971         1         0     27974         1         0
     27978         2         0     27994         2         0     28005         1         0
     28013         1         0     28022         1         0     28025         1         0
     28028         1         0     28031         1         0     28034         1         0
     28037         1         0     28040         1         0     28042         1         0
     28044         1         0     28047         1         0     28050         1         0
     28053         1         0     28056         1         0     28059         1         0
     28062         1         0     28065         1         0     28069         1         0
     28072         1         0     28075         1         0     28078         1         0
     28081         1         0     28084         1         0     28087         1         0
     28090         1         0     28093         1         0     28096         1         0
     28099         1         0     28102         1         0     28105         1         0
     28108         1         0     28112         2         0     28128         2         0
     28139         1         0     28147         1         0     28156         1         0
     28159         1         0     28162         1         0     28165         1         0
     28168         1         0     28171         1         0     28174         1         0
     28176         1         0     28178         1         0     28181         1         0
     28184         1         0     28187         1         0     28190         1         0
     28193         1         0     28196         1         0     28199         1         0
     28203         1         0     28206         1         0     28209         1         0
     28212         1         0     28215         1         0     28218         1         0
     28221         1         0     28224         1         0     28227         1         0
     28230         1         0     28233         1         0     28236         1         0
     28239         1         0     28242         1         0     28246         2         0
     28262         2         0     28273         1         0     28281         1         0
     28290         1         0     28293         1         0     28296         1         0
     28299         1         0     28302         1         0     28305         1         0
     28308         1         0     28310         1         0     28312         1         0
     28315         1         0     28318         1         0     28321         1         0
     28324         1         0     28327         1         0     28330         1         0
     28333         1         0     28337         1         0     28340         1         0
     28343         1         0     28346         1         0     28349         1         0
     28352         1         0     28355         1         0     28358         1         0
     28361         1         0     28364         1         0     28367         1         0
     28370         1         0     28373         1         0     28376         1         0
     28380         2         0     28396         2         0     28407         1         0
     28415         1         0     28424         1         0     28427         1         0
     28430         1         0     28433         1         0     28436         1         0
     28439         1         0     28442         1         0     28444         1         0
     28446         1         0     28449         1         0     28452         1         0
     28455         1         0     28458         1         0     28461         1         0
     28464         1         0     28467         1         0     28471         1         0
     28474         1         0     28477         1         0     28480         1         0
     28483         1         0     28486         1         0     28489         1         0
     28492         1         0     28495         1         0     28498         1         0
     28501         1         0     28504         1         0     28507         1         0
     28510         1         0     28514         2         0     28530         2         0
     28541         1         0     28549         1         0     28558         1         0
     28561         1         0     28564         1         0     28567         1         0
     28570         1         0     28573         1         0     28576         1         0
     28578         1         0     28580         1         0     28583         1         0
     28586         1         0     28589         1         0     28592         1         0
     28595         1         0     28598         1         0     28601         1         0
     28605         1         0     28608         1         0     28611         1         0
     28614         1         0     28617         1         0     28620         1         0
     28623         1         0     28626         1         0     28629         1         0
     28632         1         0     28635         1         0     28638         1         0
     28641         1         0     28644         1         0     28648         2         0
     28664         2         0     28675         1         0     28683         1         0
     28692         1         0     28695         1         0     28698         1         0
     28701         1         0     28704         1         0     28707         1         0
     28710         1         0     28712         1         0     28714         1         0
     28717         1         0     28720         1         0     28723         1         0
     28726         1         0     28729         1         0     28732         1         0
     28735         1         0     28739         1         0     28742         1         0
     28745         1         0     28748         1         0     28751         1         0
     28754         1         0     28757         1         0     28760         1         0
     28763         1         0     28766         1         0     28769         1         0
     28772         1         0     28775         1         0     28778         1         0
     28782         2         0     28798         2         0     28809         1         0
     28817         1         0     28826         1         0     28829         1         0
     28832         1         0     28835         1         0     28838         1         0
     28841         1         0     28844         1         0     28846         1         0
     28848         1         0     28851         1         0     28854         1         0
     28857         1         0     28860         1         0     28863         1         0
     28866         1         0     28869         1         0     28873         1         0
     28876         1         0     28879         1         0     28882         1         0
     28885         1         0     28888         1         0     28891         1         0
     28894         1         0     28897         1         0     28900         1         0
     28903         1         0     28906         1         0     28909         1         0
     28912         1         0     28916         2         0     28932         2         0
     28943         1         0     28951         1         0     28960         1         0
     28963         1         0     28966         1         0     28969         1         0
     28972         1         0     28975         1         0     28978         1         0
     28980         1         0     28982         1         0     28985         1         0
     28988         1         0     28991         1         0     28994         1         0
     28997         1         0     29000         1         0     29003         1         0
     29007         1         0     29010         1         0     29013         1         0
     29016         1         0     29019         1         0     29022         1         0
     29025         1         0     29028         1         0     29031         1         0
     29034         1         0     29037         1         0     29040         1         0
     29043         1         0     29046         1         0     29050         2         0
     29066         2         0     29077         1         0     29085         1         0
     29094         1         0     29097         1         0     29100         1         0
     29103         1         0     29106         1         0     29109         1         0
     29112         1         0     29114         1         0     29116         1         0
     29119         1         0     29122         1         0     29125         1         0
     29128         1         0     29131         1         0     29134         1         0
     29137         1         0     29141         1         0     29144         1         0
     29147         1         0     29150         1         0     29153         1         0
     29156         1         0     29159         1         0     29162         1         0
     29165         1         0     29168         1         0     29171         1         0
     29174         1         0     29177         1         0     29180         1         0
     29184         2         0     29200         2         0     29211         1         0
     29219         1         0     29228         1         0     29231         1         0
     29234         1         0     29237         1         0     29240         1         0
     29243         1         0     29246         1         0     29248         1         0
     29250         1         0     29253         1         0     29256         1         0
     29259         1         0     29262         1         0     29265         1         0
     29268         1         0     29271         1         0     29275         1         0
     29278         1         0     29281         1         0     29284         1         0
     29287         1         0     29290         1         0     29293         1         0
     29296         1         0     29299         1         0     29302         1         0
     29305         1         0     29308         1         0     29311         1         0
     29314         1         0     29318         2         0     29334         2         0
     29345         1         0     29353         1         0     29362         1         0
     29365         1         0     29368         1         0     29371         1         0
     29374         1         0     29377         1         0     29380         1         0
     29382         1         0     29384         1         0     29387         1         0
     29390         1         0     29393         1         0     29396         1         0
     29399         1         0     29402         1         0     29405         1         0
     29409         1         0     29412         1         0     29415         1         0
     29418         1         0     29421         1         0     29424         1         0
     29427         1         0     29430         1         0     29433         1         0
     29436         1         0     29439         1         0     29442         1         0
     29445         1         0     29448         1         0     29452         2         0
     29468         2         0     29479         1         0     29487         1         0
     29496         1         0     29499         1         0     29502         1         0
     29505         1         0     29508         1         0     29511         1         0
     29514         1         0     29516         1         0     29518         1         0
     29521         1         0     29524         1         0     29527         1         0
     29530         1         0     29533         1         0     29536         1         0
     29539         1         0     29543         1         0     29546         1         0
     29549         1         0     29552         1         0     29555         1         0
     29558         1         0     29561         1         0     29564         1         0
     29567         1         0     29570         1         0     29573         1         0
     29576         1         0     29579         1         0     29582         1         0
     29586         2         0     29602         2         0     29613         1         0
     29621         1         0     29630         1         0     29633         1         0
     29636         1         0     29639         1         0     29642         1         0
     29645         1         0     29648         1         0     29650         1         0
     29652         1         0     29655         1         0     29658         1         0
     29661         1         0     29664         1         0     29667         1         0
     29670         1         0     29673         1         0     29677         1         0
     29680         1         0     29683         1         0     29686         1         0
     29689         1         0     29692         1         0     29695         1         0
     29698         1         0     29701         1         0     29704         1         0
     29707         1         0     29710         1         0     29713         1         0
     29716         1         0     29720         2         0     29736         2         0
     29747         1         0     29755         1         0     29764         1         0
     29767         1         0     29770         1         0     29773         1         0
     29776         1         0     29779         1         0     29782         1         0
     29784         1         0     29786         1         0     29789         1         0
     29792         1         0     29795         1         0     29798         1         0
     29801         1         0     29804         1         0     29807         1         0
     29811         1         0     29814         1         0     29817         1         0
     29820         1         0     29823         1         0     29826         1         0
     29829         1         0     29832         1         0     29835         1         0
     29838         1         0     29841         1         0     29844         1         0
     29847         1         0     29850         1         0     29854         2         0
     29870         2         0     29881         1         0     29889         1         0
     29898         1         0     29901         1         0     29904         1         0
     29907         1         0     29910         1         0     29913         1         0
     29916         1         0     29918         1         0     29920         1         0
     29923         1         0     29926         1         0     29929         1         0
     29932         1         0     29935         1         0     29938         1         0
     29941         1         0     29945         1         0     29948         1         0
     29951         1         0     29954         1         0     29957         1         0
     29960         1         0     29963         1         0     29966         1         0
     29969         1         0     29972         1         0     29975         1         0
     29978         1         0     29981         1         0     29984         1         0
     29988         2         0     30004         2         0     30015         1         0
     30023         1         0     30032         1         0     30035         1         0
     30038         1         0     30041         1         0     30044         1         0
     30047         1         0     30050         1         0     30052         1         0
     30054         1         0     30057         1         0     30060         1         0
     30063         1         0     30066         1         0     30069         1         0
     30072         1         0     30075         1         0     30079         1         0
     30082         1         0     30085         1         0     30088         1         0
     30091         1         0     30094         1         0     30097         1         0
     30100         1         0     30103         1         0     30106         1         0
     30109         1         0     30112         1         0     30115         1         0
     30118         1         0     30122         2         0     30138         2         0
     30149         1         0     30157         1         0     30166         1         0
     30169         1         0     30172         1         0     30175         1         0
     30178         1         0     30181         1         0     30184         1         0
     30186         1         0     30188         1         0     30191         1         0
     30194         1         0     30197         1         0     30200         1         0
     30203         1         0     30206         1         0     30209         1         0
     30213         1         0     30216         1         0     30219         1         0
     30222         1         0     30225         1         0     30228         1         0
     30231         1         0     30234         1         0     30237         1         0
     30240         1         0     30243         1         0     30246         1         0
     30249         1         0     30252         1         0     30256         2         0
     30272         2         0     30283         1         0     30291         1         0
     30300         1         0     30303         1         0     30306         1         0
     30309         1         0     30312         1         0     30315         1         0
     30318         1         0     30320         1         0     30322         1         0
     30325         1         0     30328         1         0     30331         1         0
     30334         1         0     30337         1         0     30340         1         0
     30343         1         0     30347         1         0     30350         1         0
     30353         1         0     30356         1         0     30359         1         0
     30362         1         0     30365         1         0     30368         1         0
     30371         1         0     30374         1         0     30377         1         0
     30380         1         0     30383         1         0     30386         1         0
     30390         2         0     30406         2         0     30417         1         0
     30425         1         0     30434         1         0     30437         1         0
     30440         1         0     30443         1         0     30446         1         0
     30449         1         0     30452         1         0     30454         1         0
     30456         1         0     30459         1         0     30462         1         0
     30465         1         0     30468         1         0     30471         1         0
     30474         1         0     30477         1         0     30481         1         0
     30484         1         0     30487         1         0     30490         1         0
     30493         1         0     30496         1         0     30499         1         0
     30502         1         0     30505         1         0     30508         1         0
     30511         1         0     30514         1         0     30517         1         0
     30520         1         0     30524         2         0     30540         2         0
     30551         1         0     30559         1         0     30568         1         0
     30571         1         0     30574         1         0     30577         1         0
     30580         1         0     30583         1         0     30586         1         0
     30588         1         0     30590         1         0     30593         1         0
     30596         1         0     30599         1         0     30602         1         0
     30605         1         0     30608         1         0     30611         1         0
     30615         1         0     30618         1         0     30621         1         0
     30624         1         0     30627         1         0     30630         1         0
     30633         1         0     30636         1         0     30639         1         0
     30642         1         0     30645         1         0     30648         1         0
     30651         1         0     30654         1         0     30658         2         0
     30674         2         0     30685         1         0     30693         1         0
     30702         1         0     30705         1         0     30708         1         0
     30711         1         0     30714         1         0     30717         1         0
     30720         1         0     30722         1         0     30724         1         0
     30727         1         0     30730         1         0     30733         1         0
     30736         1         0     30739         1         0     30742         1         0
     30745         1         0     30749         1         0     30752         1         0
     30755         1         0     30758         1         0     30761         1         0
     30764         1         0     30767         1         0     30770         1         0
     30773         1         0     30776         1         0     30779         1         0
     30782         1         0     30785         1         0     30788         1         0
     30792         2         0     30808         2         0     30819         1         0
     30827         1         0     30836         1         0     30839         1         0
     30842         1         0     30845         1         0     30848         1         0
     30851         1         0     30854         1         0     30856         1         0
     30858         1         0     30861         1         0     30864         1         0
     30867         1         0     30870         1         0     30873         1         0
     30876         1         0     30879         1         0     30883         1         0
     30886         1         0     30889         1         0     30892         1         0
     30895         1         0     30898         1         0     30901         1         0
     30904         1         0     30907         1         0     30910         1         0
     30913         1         0     30916         1         0     30919         1         0
     30922         1         0     30926         2         0     30942         2         0
     30953         1         0     30961         1         0     30970         1         0
     30973         1         0     30976         1         0     30979         1         0
     30982         1         0     30985         1         0     30988         1         0
     30990         1         0     30992         1         0     30995         1         0
     30998         1         0     31001         1         0     31004         1         0
     31007         1         0     31010         1         0     31013         1         0
     31017         1         0     31020         1         0     31023         1         0
     31026         1         0     31029         1         0     31032         1         0
     31035         1         0     31038         1         0     31041         1         0
     31044         1         0     31047         1         0     31050         1         0
     31053         1         0     31056         1         0     31060         2         0
     31076         2         0     31087         1         0     31095         1         0
     31104         1         0     31107         1         0     31110         1         0
     31113         1         0     31116         1         0     31119         1         0
     31122         1         0     31124         1         0     31126         1         0
     31129         1         0     31132         1         0     31135         1         0
     31138         1         0     31141         1         0     31144         1         0
     31147         1         0     31151         1         0     31154         1         0
     31157         1         0     31160         1         0     31163         1         0
     31166         1         0     31169         1         0     31172         1         0
     31175         1         0     31178         1         0     31181         1         0
     31184         1         0     31187         1         0     31190         1         0
     31194         2         0     31210         2         0     31221         1         0
     31229         1         0     31238         1         0     31241         1         0
     31244         1         0     31247         1         0     31250         1         0
     31253         1         0     31256         1         0     31258         1         0
     31260         1         0     31263         1         0     31266         1         0
     31269         1         0     31272         1         0     31275         1         0
     31278         1         0     31281         1         0     31285         1         0
     31288         1         0     31291         1         0     31294         1         0
     31297         1         0     31300         1         0     31303         1         0
     31306         1         0     31309         1         0     31312         1         0
     31315         1         0     31318         1         0     31321         1         0
     31324         1         0     31328         2         0     31344         2         0
     31355         1         0     31363         1         0     31372         1         0
     31375         1         0     31378         1         0     31381         1         0
     31384         1         0     31387         1         0     31390         1         0
     31392         1         0     31394         1         0     31397         1         0
     31400         1         0     31403         1         0     31406         1         0
     31409         1         0     31412         1         0     31415         1         0
     31419         1         0     31422         1         0     31425         1         0
     31428         1         0     31431         1         0     31434         1         0
     31437         1         0     31440         1         0     31443         1         0
     31446         1         0     31449         1         0     31452         1         0
     31455         1         0     31458         1         0     31462         2         0
     31478         2         0     31489         1         0     31497         1         0
     31506         1         0     31509         1         0     31512         1         0
     31515         1         0     31518         1         0     31521         1         0
     31524         1         0     31526         1         0     31528         1         0
     31531         1         0     31534         1         0     31537         1         0
     31540         1         0     31543         1         0     31546         1         0
     31549         1         0     31553         1         0     31556         1         0
     31559         1         0     31562         1         0     31565         1         0
     31568         1         0     31571         1         0     31574         1         0
     31577         1         0     31580         1         0     31583         1         0
     31586         1         0     31589         1         0     31592         1         0
     31596         2         0     31612         2         0     31623         1         0
     31631         1         0     31640         1         0     31643         1         0
     31646         1         0     31649         1         0     31652         1         0
     31655         1         0     31658         1         0     31660         1         0
     31662         1         0     31665         1         0     31668         1         0
     31671         1         0     31674         1         0     31677         1         0
     31680         1         0     31683         1         0     31687         1         0
     31690         1         0     31693         1         0     31696         1         0
     31699         1         0     31702         1         0     31705         1         0
     31708         1         0     31711         1         0     31714         1         0
     31717         1         0     31720         1         0     31723         1         0
     31726         1         0     31730         2         0     31746         2         0
     31757         1         0     31765         1         0     31774         1         0
     31777         1         0     31780         1         0     31783         1         0
     31786         1         0     31789         1         0     31792         1         0
     31794         1         0     31796         1         0     31799         1         0
     31802         1         0     31805         1         0     31808         1         0
     31811         1         0     31814         1         0     31817         1         0
     31821         1         0     31824         1         0     31827         1         0
     31830         1         0     31833         1         0     31836         1         0
     31839         1         0     31842         1         0     31845         1         0
     31848         1         0     31851         1         0     31854         1         0
     31857         1         0     31860         1         0     31864         2         0
     31880         2         0     31891         1         0     31899         1         0
     31908         1         0     31911         1         0     31914         1         0
     31917         1         0     31920         1         0     31923         1         0
     31926         1         0     31928         1         0     31930         1         0
     31933         1         0     31936         1         0     31939         1         0
     31942         1         0     31945         1         0     31948         1         0
     31951         1         0     31955         1         0     31958         1         0
     31961         1         0     31964         1         0     31967         1         0
     31970         1         0     31973         1         0     31976         1         0
     31979         1         0     31982         1         0     31985         1         0
     31988         1         0     31991         1         0     31994         1         0
     31998         2         0     32014         2         0     32025         1         0
     32033         1         0     32042         1         0     32045         1         0
     32048         1         0     32051         1         0     32054         1         0
     32057         1         0     32060         1         0     32062         1         0
     32064         1         0     32067         1         0     32070         1         0
     32073         1         0     32076         1         0     32079         1         0
     32082         1         0     32085         1         0     32089         1         0
     32092         1         0     32095         1         0     32098         1         0
     32101         1         0     32104         1         0     32107         1         0
     32110         1         0     32113         1         0     32116         1         0
     32119         1         0     32122         1         0     32125         1         0
     32128         1         0     32132         2         0     32148         2         0
     32159         1         0     32167         1         0     32176         1         0
     32179         1         0     32182         1         0     32185         1         0
     32188         1         0     32191         1         0     32194         1         0
     32196         1         0     32198         1         0     32201         1         0
     32204         1         0     32207         1         0     32210         1         0
     32213         1         0     32216         1         0     32219         1         0
     32223         1         0     32226         1         0     32229         1         0
     32232         1         0     32235         1         0     32238         1         0
     32241         1         0     32244         1         0     32247         1         0
     32250         1         0     32253         1         0     32256         1         0
     32259         1         0     32262         1         0     32266         2         0
     32282         2         0     32293         1         0     32301         1         0
     32310         1         0     32313         1         0     32316         1         0
     32319         1         0     32322         1         0     32325         1         0
     32328         1         0     32330         1         0     32332         1         0
     32335         1         0     32338         1         0     32341         1         0
     32344         1         0     32347         1         0     32350         1         0
     32353         1         0     32357         1         0     32360         1         0
     32363         1         0     32366         1         0     32369         1         0
     32372         1         0     32375         1         0     32378         1         0
     32381         1         0     32384         1         0     32387         1         0
     32390         1         0     32393         1         0     32396         1         0
     32400         2         0     32416         2         0     32427         1         0
     32435         1         0     32444         1         0     32447         1         0
     32450         1         0     32453         1         0     32456         1         0
     32459         1         0     32462         1         0     32464         1         0
     32466         1         0     32469         1         0     32472         1         0
     32475         1         0     32478         1         0     32481         1         0
     32484         1         0     32487         1         0     32491         1         0
     32494         1         0     32497         1         0     32500         1         0
     32503         1         0     32506         1         0     32509         1         0
     32512         1         0     32515         1         0     32518         1         0
     32521         1         0     32524         1         0     32527         1         0
     32530         1         0     32534         2         0     32550         2         0
     32561         1         0     32569         1         0     32578         1         0
     32581         1         0     32584         1         0     32587         1         0
     32590         1         0     32593         1         0     32596         1         0
     32598         1         0     32600         1         0     32603         1         0
     32606         1         0     32609         1         0     32612         1         0
     32615         1         0     32618         1         0     32621         1         0
     32625         1         0     32628         1         0     32631         1         0
     32634         1         0     32637         1         0     32640         1         0
     32643         1         0     32646         1         0     32649         1         0
     32652         1         0     32655         1         0     32658         1         0
     32661         1         0     32664         1         0     32668         2         0
     32684         2         0     32695         1         0     32703         1         0
     32712         1         0     32715         1         0     32718         1         0
     32721         1         0     32724         1         0     32727         1         0
     32730         1         0     32732         1         0     32734         1         0
     32737         1         0     32740         1         0     32743         1         0
     32746         1         0     32749         1         0     32752         1         0
     32755         1         0     32759         1         0     32762         1         0
     32765         1         0     32768         1         0     32771         1         0
     32774         1         0     32777         1         0     32780         1         0
     32783         1         0     32786         1         0     32789         1         0
     32792         1         0     32795         1         0     32798         1         0
     32802         2         0     32818         2         0     32829         1         0
     32837         1         0     32846         1         0     32849         1         0
     32852         1         0     32855         1         0     32858         1         0
     32861         1         0     32864         1         0     32866         1         0
     32868         1         0     32871         1         0     32874         1         0
     32877         1         0     32880         1         0     32883         1         0
     32886         1         0     32889         1         0     32893         1         0
     32896         1         0     32899         1         0     32902         1         0
     32905         1         0     32908         1         0     32911         1         0
     32914         1         0     32917         1         0     32920         1         0
     32923         1         0     32926         1         0     32929         1         0
     32932         1         0     32936         2         0     32952         2         0
     32963         1         0     32971         1         0     32980         1         0
     32983         1         0     32986         1         0     32989         1         0
     32992         1         0     32995         1         0     32998         1         0
     33000         1         0     33002         1         0     33005         1         0
     33008         1         0     33011         1         0     33014         1         0
     33017         1         0     33020         1         0     33023         1         0
     33027         1         0     33030         1         0     33033         1         0
     33036         1         0     33039         1         0     33042         1         0
     33045         1         0     33048         1         0     33051         1         0
     33054         1         0     33057         1         0     33060         1         0
     33063         1         0     33066         1         0     33070         2         0
     33086         2         0     33097         1         0     33105         1         0
     33114         1         0     33117         1         0     33120         1         0
     33123         1         0     33126         1         0     33129         1         0
     33132         1         0     33134         1         0     33136         1         0
     33139         1         0     33142         1         0     33145         1         0
     33148         1         0     33151         1         0     33154         1         0
     33157         1         0     33161         1         0     33164         1         0
     33167         1         0     33170         1         0     33173         1         0
     33176         1         0     33179         1         0     33182         1         0
     33185         1         0     33188         1         0     33191         1         0
     33194         1         0     33197         1         0     33200         1         0
     33204         2         0     33220         2         0     33231         1         0
     33239         1         0     33248         1         0     33251         1         0
     33254         1         0     33257         1         0     33260         1         0
     33263         1         0     33266         1         0     33268         1         0
     33270         1         0     33273         1         0     33276         1         0
     33279         1         0     33282         1         0     33285         1         0
     33288         1         0     33291         1         0     33295         1         0
     33298         1         0     33301         1         0     33304         1         0
     33307         1         0     33310         1         0     33313         1         0
     33316         1         0     33319         1         0     33322         1         0
     33325         1         0     33328         1         0     33331         1         0
     33334         1         0     33338         2         0     33354         2         0
     33365         1         0     33373         1         0     33382         1         0
     33385         1         0     33388         1         0     33391         1         0
     33394         1         0     33397         1         0     33400         1         0
     33402         1         0     33404         1         0     33407         1         0
     33410         1         0     33413         1         0     33416         1         0
     33419         1         0     33422         1         0     33425         1         0
     33429         1         0     33432         1         0     33435         1         0
     33438         1         0     33441         1         0     33444         1         0
     33447         1         0     33450         1         0     33453         1         0
     33456         1         0     33459         1         0     33462         1         0
     33465         1         0     33468         1         0     33472         2         0
     33488         2         0     33499         1         0     33507         1         0
     33516         1         0     33519         1         0     33522         1         0
     33525         1         0     33528         1         0     33531         1         0
     33534         1         0     33536         1         0     33538         1         0
     33541         1         0     33544         1         0     33547         1         0
     33550         1         0     33553         1         0     33556         1         0
     33559         1         0     33563         1         0     33566         1         0
     33569         1         0     33572         1         0     33575         1         0
     33578         1         0     33581         1         0     33584         1         0
     33587         1         0     33590         1         0     33593         1         0
     33596         1         0     33599         1         0     33602         1         0
     33606         2         0     33622         2         0     33633         1         0
     33641         1         0     33650         1         0     33653         1         0
     33656         1         0     33659         1         0     33662         1         0
     33665         1         0     33668         1         0     33670         1         0
     33672         1         0     33675         1         0     33678         1         0
     33681         1         0     33684         1         0     33687         1         0
     33690         1         0     33693         1         0     33697         1         0
     33700         1         0     33703         1         0     33706         1         0
     33709         1         0     33712         1         0     33715         1         0
     33718         1         0     33721         1         0     33724         1         0
     33727         1         0     33730         1         0     33733         1         0
     33736         1         0     33740         2         0     33756         2         0
     33767         1         0     33775         1         0     33784         1         0
     33787         1         0     33790         1         0     33793         1         0
     33796         1         0     33799         1         0     33802         1         0
     33804         1         0     33806         1         0     33809         1         0
     33812         1         0     33815         1         0     33818         1         0
     33821         1         0     33824         1         0     33827         1         0
     33831         1         0     33834         1         0     33837         1         0
     33840         1         0     33843         1         0     33846         1         0
     33849         1         0     33852         1         0     33855         1         0
     33858         1         0     33861         1         0     33864         1         0
     33867         1         0     33870         1         0     33874         2         0
     33890         2         0     33901         1         0     33909         1         0
     33918         1         0     33921         1         0     33924         1         0
     33927         1         0     33930         1         0     33933         1         0
     33936         1         0     33938         1         0     33940         1         0
     33943         1         0     33946         1         0     33949         1         0
     33952         1         0     33955         1         0     33958         1         0
     33961         1         0     33965         1         0     33968         1         0
     33971         1         0     33974         1         0     33977         1         0
     33980         1         0     33983         1         0     33986         1         0
     33989         1         0     33992         1         0     33995         1         0
     33998         1         0     34001         1         0     34004         1         0
     34008         2         0     34024         2         0     34035         1         0
     34043         1         0     34052         1         0     34055         1         0
     34058         1         0     34061         1         0     34064         1         0
     34067         1         0     34070         1         0     34072         1         0
     34074         1         0     34077         1         0     34080         1         0
     34083         1         0     34086         1         0     34089         1         0
     34092         1         0     34095         1         0     34099         1         0
     34102         1         0     34105         1         0     34108         1         0
     34111         1         0     34114         1         0     34117         1         0
     34120         1         0     34123         1         0     34126         1         0
     34129         1         0     34132         1         0     34135         1         0
     34138         1         0     34142         2         0     34158         2         0
     34169         1         0     34177         1         0     34186         1         0
     34189         1         0     34192         1         0     34195         1         0
     34198         1         0     34201         1         0     34204         1         0
     34206         1         0     34208         1         0     34211         1         0
     34214         1         0     34217         1         0     34220         1         0
     34223         1         0     34226         1         0     34229         1         0
     34233         1         0     34236         1         0     34239         1         0
     34242         1         0     34245         1         0     34248         1         0
     34251         1         0     34254         1         0     34257         1         0
     34260         1         0     34263         1         0     34266         1         0
     34269         1         0     34272         1         0     34276         2         0
     34292         2         0     34303         1         0     34311         1         0
     34320         1         0     34323         1         0     34326         1         0
     34329         1         0     34332         1         0     34335         1         0
     34338         1         0     34340         1         0     34342         1         0
     34345         1         0     34348         1         0     34351         1         0
     34354         1         0     34357         1         0     34360         1         0
     34363         1         0     34367         1         0     34370         1         0
     34373         1         0     34376         1         0     34379         1         0
     34382         1         0     34385         1         0     34388         1         0
     34391         1         0     34394         1         0     34397         1         0
     34400         1         0     34403         1         0     34406         1         0
     34410         2         0     34426         2         0     34437         1         0
     34445         1         0     34454         1         0     34457         1         0
     34460         1         0     34463         1         0     34466         1         0
     34469         1         0     34472         1         0     34474         1         0
     34476         1         0     34479         1         0     34482         1         0
     34485         1         0     34488         1         0     34491         1         0
     34494         1         0     34497         1         0     34501         1         0
     34504         1         0     34507         1         0     34510         1         0
     34513         1         0     34516         1         0     34519         1         0
     34522         1         0     34525         1         0     34528         1         0
     34531         1         0     34534         1         0     34537         1         0
     34540         1         0     34544         2         0     34560         2         0
     34571         1         0     34579         1         0     34588         1         0
     34591         1         0     34594         1         0     34597         1         0
     34600         1         0     34603         1         0     34606         1         0
     34608         1         0     34610         1         0     34613         1         0
     34616         1         0     34619         1         0     34622         1         0
     34625         1         0     34628         1         0     34631         1         0
     34635         1         0     34638         1         0     34641         1         0
     34644         1         0     34647         1         0     34650         1         0
     34653         1         0     34656         1         0     34659         1         0
     34662         1         0     34665         1         0     34668         1         0
     34671         1         0     34674         1         0     34678         2         0
     34694         2         0     34705         1         0     34713         1         0
     34722         1         0     34725         1         0     34728         1         0
     34731         1         0     34734         1         0     34737         1         0
     34740         1         0     34742         1         0     34744         1         0
     34747         1         0     34750         1         0     34753         1         0
     34756         1         0     34759         1         0     34762         1         0
     34765         1         0     34769         1         0     34772         1         0
     34775         1         0     34778         1         0     34781         1         0
     34784         1         0     34787         1         0     34790         1         0
     34793         1         0     34796         1         0     34799         1         0
     34802         1         0     34805         1         0     34808         1         0
     34812         2         0     34828         2         0     34839         1         0
     34847         1         0     34856         1         0     34859         1         0
     34862         1         0     34865         1         0     34868         1         0
     34871         1         0     34874         1         0     34876         1         0
     34878         1         0     34881         1         0     34884         1         0
     34887         1         0     34890         1         0     34893         1         0
     34896         1         0     34899         1         0     34903         1         0
     34906         1         0     34909         1         0     34912         1         0
     34915         1         0     34918         1         0     34921         1         0
     34924         1         0     34927         1         0     34930         1         0
     34933         1         0     34936         1         0     34939         1         0
     34942         1         0     34946         2         0     34962         2         0
     34973         1         0     34981         1         0     34990         1         0
     34993         1         0     34996         1         0     34999         1         0
     35002         1         0     35005         1         0     35008         1         0
     35010         1         0     35012         1         0     35015         1         0
     35018         1         0     35021         1         0     35024         1         0
     35027         1         0     35030         1         0     35033         1         0
     35037         1         0     35040         1         0     35043         1         0
     35046         1         0     35049         1         0     35052         1         0
     35055         1         0     35058         1         0     35061         1         0
     35064         1         0     35067         1         0     35070         1         0
     35073         1         0     35076         1         0     35080         2         0
     35096         2         0     35107         1         0     35115         1         0
     35124         1         0     35127         1         0     35130         1         0
     35133         1         0     35136         1         0     35139         1         0
     35142         1         0     35144         1         0     35146         1         0
     35149         1         0     35152         1         0     35155         1         0
     35158         1         0     35161         1         0     35164         1         0
     35167         1         0     35171         1         0     35174         1         0
     35177         1         0     35180         1         0     35183         1         0
     35186         1         0     35189         1         0     35192         1         0
     35195         1         0     35198         1         0     35201         1         0
     35204         1         0     35207         1         0     35210         1         0
     35214         2         0     35230         2         0     35241         1         0
     35249         1         0     35258         1         0     35261         1         0
     35264         1         0     35267         1         0     35270         1         0
     35273         1         0     35276         1         0     35278         1         0
     35280         1         0     35283         1         0     35286         1         0
     35289         1         0     35292         1         0     35295         1         0
     35298         1         0     35301         1         0     35305         1         0
     35308         1         0     35311         1         0     35314         1         0
     35317         1         0     35320         1         0     35323         1         0
     35326         1         0     35329         1         0     35332         1         0
     35335         1         0     35338         1         0     35341         1         0
     35344         1         0     35348         2         0     35364         2         0
     35375         1         0     35383         1         0     35392         1         0
     35395         1         0     35398         1         0     35401         1         0
     35404         1         0     35407         1         0     35410         1         0
     35412         1         0     35414         1         0     35417         1         0
     35420         1         0     35423         1         0     35426         1         0
     35429         1         0     35432         1         0     35435         1         0
     35439         1         0     35442         1         0     35445         1         0
     35448         1         0     35451         1         0     35454         1         0
     35457         1         0     35460         1         0     35463         1         0
     35466         1         0     35469         1         0     35472         1         0
     35475         1         0     35478         1         0     35482         2         0
     35498         2         0     35509         1         0     35517         1         0
     35526         1         0     35529         1         0     35532         1         0
     35535         1         0     35538         1         0     35541         1         0
     35544         1         0     35546         1         0     35548         1         0
     35551         1         0     35554         1         0     35557         1         0
     35560         1         0     35563         1         0     35566         1         0
     35569         1         0     35573         1         0     35576         1         0
     35579         1         0     35582         1         0     35585         1         0
     35588         1         0     35591         1         0     35594         1         0
     35597         1         0     35600         1         0     35603         1         0
     35606         1         0     35609         1         0     35612         1         0
     35616         2         0     35632         2         0     35643         1         0
     35651         1         0     35660         1         0     35663         1         0
     35666         1         0     35669         1         0     35672         1         0
     35675         1         0     35678         1         0     35680         1         0
     35682         1         0     35685         1         0     35688         1         0
     35691         1         0     35694         1         0     35697         1         0
     35700         1         0     35703         1         0     35707         1         0
     35710         1         0     35713         1         0     35716         1         0
     35719         1         0     35722         1         0     35725         1         0
     35728         1         0     35731         1         0     35734         1         0
     35737         1         0     35740         1         0     35743         1         0
     35746         1         0     35750         2         0     35766         2         0
     35777         1         0     35785         1         0     35794         1         0
     35797         1         0     35800         1         0     35803         1         0
     35806         1         0     35809         1         0     35812         1         0
     35814         1         0     35816         1         0     35819         1         0
     35822         1         0     35825         1         0     35828         1         0
     35831         1         0     35834         1         0     35837         1         0
     35841         1         0     35844         1         0     35847         1         0
     35850         1         0     35853         1         0     35856         1         0
     35859         1         0     35862         1         0     35865         1         0
     35868         1         0     35871         1         0     35874         1         0
     35877         1         0     35880         1         0     35884         2         0
     35900         2         0     35911         1         0     35919         1         0
     35928         1         0     35931         1         0     35934         1         0
     35937         1         0     35940         1         0     35943         1         0
     35946         1         0     35948         1         0     35950         1         0
     35953         1         0     35956         1         0     35959         1         0
     35962         1         0     35965         1         0     35968         1         0
     35971         1         0     35975         1         0     35978         1         0
     35981         1         0     35984         1         0     35987         1         0
     35990         1         0     35993         1         0     35996         1         0
     35999         1         0     36002         1         0     36005         1         0
     36008         1         0     36011         1         0     36014         1         0
     36018         2         0     36034         2         0     36045         1         0
     36053         1         0     36062         1         0     36065         1         0
     36068         1         0     36071         1         0     36074         1         0
     36077         1         0     36080         1         0     36082         1         0
     36084         1         0     36087         1         0     36090         1         0
     36093         1         0     36096         1         0     36099         1         0
     36102         1         0     36105         1         0     36109         1         0
     36112         1         0     36115         1         0     36118         1         0
     36121         1         0     36124         1         0     36127         1         0
     36130         1         0     36133         1         0     36136         1         0
     36139         1         0     36142         1         0     36145         1         0
     36148         1         0     36152         2         0     36168         2         0
     36179         1         0     36187         1         0     36196         1         0
     36199         1         0     36202         1         0     36205         1         0
     36208         1         0     36211         1         0     36214         1         0
     36216         1         0     36218         1         0     36221         1         0
     36224         1         0     36227         1         0     36230         1         0
     36233         1         0     36236         1         0     36239         1         0
     36243         1         0     36246         1         0     36249         1         0
     36252         1         0     36255         1         0     36258         1         0
     36261         1         0     36264         1         0     36267         1         0
     36270         1         0     36273         1         0     36276         1         0
     36279         1         0     36282         1         0     36286         2         0
     36302         2         0     36313         1         0     36321         1         0
     36330         1         0     36333         1         0     36336         1         0
     36339         1         0     36342         1         0     36345         1         0
     36348         1         0     36350         1         0     36352         1         0
     36355         1         0     36358         1         0     36361         1         0
     36364         1         0     36367         1         0     36370         1         0
     36373         1         0     36377         1         0     36380         1         0
     36383         1         0     36386         1         0     36389         1         0
     36392         1         0     36395         1         0     36398         1         0
     36401         1         0     36404         1         0     36407         1         0
     36410         1         0     36413         1         0     36416         1         0
     36420         2         0     36436         2         0     36447         1         0
     36455         1         0     36464         1         0     36467         1         0
     36470         1         0     36473         1         0     36476         1         0
     36479         1         0     36482         1         0     36484         1         0
     36486         1         0     36489         1         0     36492         1         0
     36495         1         0     36498         1         0     36501         1         0
     36504         1         0     36507         1         0     36511         1         0
     36514         1         0     36517         1         0     36520         1         0
     36523         1         0     36526         1         0     36529         1         0
     36532         1         0     36535         1         0     36538         1         0
     36541         1         0     36544         1         0     36547         1         0
     36550         1         0     36554         2         0     36570         2         0
     36581         1         0     36589         1         0     36598         1         0
     36601         1         0     36604         1         0     36607         1         0
     36610         1         0     36613         1         0     36616         1         0
     36618         1         0     36620         1         0     36623         1         0
     36626         1         0     36629         1         0     36632         1         0
     36635         1         0     36638         1         0     36641         1         0
     36645         1         0     36648         1         0     36651         1         0
     36654         1         0     36657         1         0     36660         1         0
     36663         1         0     36666         1         0     36669         1         0
     36672         1         0     36675         1         0     36678         1         0
     36681         1         0     36684         1         0     36688         2         0
     36704         2         0     36715         1         0     36723         1         0
     36732         1         0     36735         1         0     36738         1         0
     36741         1         0     36744         1         0     36747         1         0
     36750         1         0     36752         1         0     36754         1         0
     36757         1         0     36760         1         0     36763         1         0
     36766         1         0     36769         1         0     36772         1         0
     36775         1         0     36779         1         0     36782         1         0
     36785         1         0     36788         1         0     36791         1         0
     36794         1         0     36797         1         0     36800         1         0
     36803         1         0     36806         1         0     36809         1         0
     36812         1         0     36815         1         0     36818         1         0
     36822         2         0     36838         2         0     36849         1         0
     36857         1         0     36866         1         0     36869         1         0
     36872         1         0     36875         1         0     36878         1         0
     36881         1         0     36884         1         0     36886         1         0
     36888         1         0     36891         1         0     36894         1         0
     36897         1         0     36900         1         0     36903         1         0
     36906         1         0     36909         1         0     36913         1         0
     36916         1         0     36919         1         0     36922         1         0
     36925         1         0     36928         1         0     36931         1         0
     36934         1         0     36937         1         0     36940         1         0
     36943         1         0     36946         1         0     36949         1         0
     36952         1         0     36956         2         0     36972         2         0
     36983         1         0     36991         1         0     37000         1         0
     37003         1         0     37006         1         0     37009         1         0
     37012         1         0     37015         1         0     37018         1         0
     37020         1         0     37022         1         0     37025         1         0
     37028         1         0     37031         1         0     37034         1         0
     37037         1         0     37040         1         0     37043         1         0
     37047         1         0     37050         1         0     37053         1         0
     37056         1         0     37059         1         0     37062         1         0
     37065         1         0     37068         1         0     37071         1         0
     37074         1         0     37077         1         0     37080         1         0
     37083         1         0     37086         1         0     37090         2         0
     37106         2         0     37117         1         0     37125         1         0
     37134         1         0     37137         1         0     37140         1         0
     37143         1         0     37146         1         0     37149         1         0
     37152         1         0     37154         1         0     37156         1         0
     37159         1         0     37162         1         0     37165         1         0
     37168         1         0     37171         1         0     37174         1         0
     37177         1         0     37181         1         0     37184         1         0
     37187         1         0     37190         1         0     37193         1         0
     37196         1         0     37199         1         0     37202         1         0
     37205         1         0     37208         1         0     37211         1         0
     37214         1         0     37217         1         0     37220         1         0
     37224         2         0     37240         2         0     37251         1         0
     37259         1         0     37268         1         0     37271         1         0
     37274         1         0     37277         1         0     37280         1         0
     37283         1         0     37286         1         0     37288         1         0
     37290         1         0     37293         1         0     37296         1         0
     37299         1         0     37302         1         0     37305         1         0
     37308         1         0     37311         1         0     37315         1         0
     37318         1         0     37321         1         0     37324         1         0
     37327         1         0     37330         1         0     37333         1         0
     37336         1         0     37339         1         0     37342         1         0
     37345         1         0     37348         1         0     37351         1         0
     37354         1         0     37358         2         0     37374         2         0
     37385         1         0     37393         1         0     37402         1         0
     37405         1         0     37408         1         0     37411         1         0
     37414         1         0     37417         1         0     37420         1         0
     37422         1         0     37424         1         0     37427         1         0
     37430         1         0     37433         1         0     37436         1         0
     37439         1         0     37442         1         0     37445         1         0
     37449         1         0     37452         1         0     37455         1         0
     37458         1         0     37461         1         0     37464         1         0
     37467         1         0     37470         1         0     37473         1         0
     37476         1         0     37479         1         0     37482         1         0
     37485         1         0     37488         1         0     37492         2         0
     37508         2         0     37519         1         0     37527         1         0
     37536         1         0     37539         1         0     37542         1         0
     37545         1         0     37548         1         0     37551         1         0
     37554         1         0     37556         1         0     37558         1         0
     37561         1         0     37564         1         0     37567         1         0
     37570         1         0     37573         1         0     37576         1         0
     37579         1         0     37583         1         0     37586         1         0
     37589         1         0     37592         1         0     37595         1         0
     37598         1         0     37601         1         0     37604         1         0
     37607         1         0     37610         1         0     37613         1         0
     37616         1         0     37619         1         0     37622         1         0
     37626         2         0     37642         2         0     37653         1         0
     37661         1         0     37670         1         0     37673         1         0
     37676         1         0     37679         1         0     37682         1         0
     37685         1         0     37688         1         0     37690         1         0
     37692         1         0     37695         1         0     37698         1         0
     37701         1         0     37704         1         0     37707         1         0
     37710         1         0     37713         1         0     37717         1         0
     37720         1         0     37723         1         0     37726         1         0
     37729         1         0     37732         1         0     37735         1         0
     37738         1         0     37741         1         0     37744         1         0
     37747         1         0     37750         1         0     37753         1         0
     37756         1         0     37760         2         0     37776         2         0
     37787         1         0     37795         1         0     37804         1         0
     37807         1         0     37810         1         0     37813         1         0
     37816         1         0     37819         1         0     37822         1         0
     37824         1         0     37826         1         0     37829         1         0
     37832         1         0     37835         1         0     37838         1         0
     37841         1         0     37844         1         0     37847         1         0
     37851         1         0     37854         1         0     37857         1         0
     37860         1         0     37863         1         0     37866         1         0
     37869         1         0     37872         1         0     37875         1         0
     37878         1         0     37881         1         0     37884         1         0
     37887         1         0     37890         1         0     37894         2         0
     37910         2         0     37921         1         0     37929         1         0
     37938         1         0     37941         1         0     37944         1         0
     37947         1         0     37950         1         0     37953         1         0
     37956         1         0     37958         1         0     37960         1         0
     37963         1         0     37966         1         0     37969         1         0
     37972         1         0     37975         1         0     37978         1         0
     37981         1         0     37985         1         0     37988         1         0
     37991         1         0     37994         1         0     37997         1         0
     38000         1         0     38003         1         0     38006         1         0
     38009         1         0     38012         1         0     38015         1         0
     38018         1         0     38021         1         0     38024         1         0

         0         0 !NUMLP NUMLPH

         0 !NCRTERM: cross-terms

